1
Lattice="-2.024631999160649 0.0 2.024631999160649 0.0 2.024631999160649 2.024631999160649 -2.024631999160649 2.024631999160649 0.0" Properties=species:S:1:pos:R:3 energy=-169.61298755215492 free_energy=-169.61298755215492 pbc="T T T"
Al       0.00000000       0.00000000       0.00000000
