
     Program PWSCF v.7.3.1 starts on 29Jan2026 at 16: 3:44 

     This program is part of the open-source Quantum ESPRESSO suite
     for quantum simulation of materials; please cite
         "P. Giannozzi et al., J. Phys.:Condens. Matter 21 395502 (2009);
         "P. Giannozzi et al., J. Phys.:Condens. Matter 29 465901 (2017);
         "P. Giannozzi et al., J. Chem. Phys. 152 154105 (2020);
          URL http://www.quantum-espresso.org", 
     in publications or presentations arising from this work. More details at
     http://www.quantum-espresso.org/quote

     Parallel version (MPI), running on   128 processors

     MPI processes distributed on     1 nodes
     242238 MiB available memory on the printing compute node when the environment starts

     Waiting for input...
     Reading input from standard input

     Current dimensions of program PWSCF are:
     Max number of different atomic species (ntypx) = 10
     Max number of k-points (npk) =  40000
     Max angular momentum in pseudopotentials (lmaxx) =  4

     K-points division:     npool     =      16
     R & G space division:  proc/nbgrp/npool/nimage =       8
     Subspace diagonalization in iterative solution of the eigenvalue problem:
     a serial algorithm will be used


     Parallelization info
     --------------------
     sticks:   dense  smooth     PW     G-vecs:    dense   smooth      PW
     Min          61      61     18                  871      871     153
     Max          63      63     19                  872      872     156
     Sum         499     499    151                 6975     6975    1243

     Using Slab Decomposition



     bravais-lattice index     =            2
     lattice parameter (alat)  =       7.6520  a.u.
     unit-cell volume          =     112.0121 (a.u.)^3
     number of atoms/cell      =            1
     number of atomic types    =            1
     number of electrons       =         3.00
     number of Kohn-Sham states=            6
     kinetic-energy cutoff     =      60.0000  Ry
     charge density cutoff     =     240.0000  Ry
     scf convergence threshold =      1.0E-07
     mixing beta               =       0.7000
     number of iterations used =            8  plain     mixing
     Exchange-correlation=  SLA  PW   PBE  PBE
                           (   1   4   3   4   0   0   0)

     celldm(1)=   7.652000  celldm(2)=   0.000000  celldm(3)=   0.000000
     celldm(4)=   0.000000  celldm(5)=   0.000000  celldm(6)=   0.000000

     crystal axes: (cart. coord. in units of alat)
               a(1) = (  -0.500000   0.000000   0.500000 )  
               a(2) = (   0.000000   0.500000   0.500000 )  
               a(3) = (  -0.500000   0.500000   0.000000 )  

     reciprocal axes: (cart. coord. in units 2 pi/alat)
               b(1) = ( -1.000000 -1.000000  1.000000 )  
               b(2) = (  1.000000  1.000000  1.000000 )  
               b(3) = ( -1.000000  1.000000 -1.000000 )  


     PseudoPot. # 1 for Al read from file:
     ./Al.pbe-n-van.UPF
     MD5 check sum: b11ded24487aef5bc42d5c7a2e22a7b6
     Pseudo is Ultrasoft + core correction, Zval =  3.0
     Generated by new atomic code, or converted to UPF format
     Using radial grid of  893 points,  2 beta functions with: 
                l(1) =   0
                l(2) =   1
     Q(r) pseudized with  8 coefficients,  rinner =    0.900   0.900   0.900


     atomic species   valence    mass     pseudopotential
     Al                3.00    26.98000     Al( 1.00)

     48 Sym. Ops., with inversion, found



   Cartesian axes

     site n.     atom                  positions (alat units)
         1        Al     tau(   1) = (   0.0000000   0.0000000   0.0000000  )

     number of k points=    29  Gaussian smearing, width (Ry)=  0.0100
                       cart. coord. in units 2pi/alat
        k(    1) = (   0.0000000   0.0000000   0.0000000), wk =   0.0039062
        k(    2) = (  -0.1250000   0.1250000  -0.1250000), wk =   0.0312500
        k(    3) = (  -0.2500000   0.2500000  -0.2500000), wk =   0.0312500
        k(    4) = (  -0.3750000   0.3750000  -0.3750000), wk =   0.0312500
        k(    5) = (   0.5000000  -0.5000000   0.5000000), wk =   0.0156250
        k(    6) = (   0.0000000   0.2500000   0.0000000), wk =   0.0234375
        k(    7) = (  -0.1250000   0.3750000  -0.1250000), wk =   0.0937500
        k(    8) = (  -0.2500000   0.5000000  -0.2500000), wk =   0.0937500
        k(    9) = (   0.6250000  -0.3750000   0.6250000), wk =   0.0937500
        k(   10) = (   0.5000000  -0.2500000   0.5000000), wk =   0.0937500
        k(   11) = (   0.3750000  -0.1250000   0.3750000), wk =   0.0937500
        k(   12) = (   0.2500000   0.0000000   0.2500000), wk =   0.0468750
        k(   13) = (   0.0000000   0.5000000   0.0000000), wk =   0.0234375
        k(   14) = (  -0.1250000   0.6250000  -0.1250000), wk =   0.0937500
        k(   15) = (   0.7500000  -0.2500000   0.7500000), wk =   0.0937500
        k(   16) = (   0.6250000  -0.1250000   0.6250000), wk =   0.0937500
        k(   17) = (   0.5000000   0.0000000   0.5000000), wk =   0.0468750
        k(   18) = (   0.0000000   0.7500000   0.0000000), wk =   0.0234375
        k(   19) = (   0.8750000  -0.1250000   0.8750000), wk =   0.0937500
        k(   20) = (   0.7500000   0.0000000   0.7500000), wk =   0.0468750
        k(   21) = (   0.0000000  -1.0000000   0.0000000), wk =   0.0117188
        k(   22) = (  -0.2500000   0.5000000   0.0000000), wk =   0.0937500
        k(   23) = (   0.6250000  -0.3750000   0.8750000), wk =   0.1875000
        k(   24) = (   0.5000000  -0.2500000   0.7500000), wk =   0.0937500
        k(   25) = (   0.7500000  -0.2500000   1.0000000), wk =   0.0937500
        k(   26) = (   0.6250000  -0.1250000   0.8750000), wk =   0.1875000
        k(   27) = (   0.5000000   0.0000000   0.7500000), wk =   0.0937500
        k(   28) = (  -0.2500000  -1.0000000   0.0000000), wk =   0.0468750
        k(   29) = (  -0.5000000  -1.0000000   0.0000000), wk =   0.0234375

     Dense  grid:     6975 G-vectors     FFT dimensions: (  27,  27,  27)

     Estimated max dynamical RAM per process >       0.77 MB

     Estimated total dynamical RAM >      73.38 MB

     Initial potential from superposition of free atoms

     starting charge       2.9975, renormalised to       3.0000
     Starting wfcs are    4 randomized atomic wfcs +    2 random wfcs

     total cpu time spent up to now is        4.5 secs

     per-process dynamical memory:     7.4 Mb

     Self-consistent Calculation

     iteration #  1     ecut=    60.00 Ry     beta= 0.70
     Davidson diagonalization with overlap
     ethr =  1.00E-02,  avg # of iterations =  5.7

     Threshold (ethr) on eigenvalues was too large:
     Diagonalizing with lowered threshold

     Davidson diagonalization with overlap
     ethr =  2.22E-04,  avg # of iterations =  3.0

     total cpu time spent up to now is        5.6 secs

     total energy              =     -12.46628870 Ry
     estimated scf accuracy    <       0.00666973 Ry

     iteration #  2     ecut=    60.00 Ry     beta= 0.70
     Davidson diagonalization with overlap
     ethr =  2.22E-04,  avg # of iterations =  1.0

     total cpu time spent up to now is        5.6 secs

     total energy              =     -12.46628816 Ry
     estimated scf accuracy    <       0.00040669 Ry

     iteration #  3     ecut=    60.00 Ry     beta= 0.70
     Davidson diagonalization with overlap
     ethr =  1.36E-05,  avg # of iterations =  3.3

     total cpu time spent up to now is        5.6 secs

     total energy              =     -12.46632396 Ry
     estimated scf accuracy    <       0.00000107 Ry

     iteration #  4     ecut=    60.00 Ry     beta= 0.70
     Davidson diagonalization with overlap
     ethr =  3.56E-08,  avg # of iterations =  3.3

     total cpu time spent up to now is        5.6 secs

     End of self-consistent calculation

          k = 0.0000 0.0000 0.0000 (   893 PWs)   bands (ev):

    -3.2668  20.4378  20.4378  21.6311  21.6311  21.6311

          k =-0.1250 0.1250-0.1250 (   893 PWs)   bands (ev):

    -2.8431  16.1097  19.4259  19.4260  22.2550  23.1982

          k =-0.2500 0.2500-0.2500 (   890 PWs)   bands (ev):

    -1.5789  11.2730  18.6545  18.6545  21.8339  22.4370

          k =-0.3750 0.3750-0.3750 (   878 PWs)   bands (ev):

     0.5046   6.9885  18.5587  18.5587  20.4920  20.4920

          k = 0.5000-0.5000 0.5000 (   886 PWs)   bands (ev):

     3.2722   3.4812  19.0615  19.0615  19.2881  19.2881

          k = 0.0000 0.2500 0.0000 (   889 PWs)   bands (ev):

    -2.7021  17.6786  17.6787  17.9926  20.3988  22.3958

          k =-0.1250 0.3750-0.1250 (   885 PWs)   bands (ev):

    -1.7188  13.1247  16.6236  18.1030  19.3071  21.7263

          k =-0.2500 0.5000-0.2500 (   876 PWs)   bands (ev):

     0.0900   8.6826  16.2784  16.9932  17.8915  23.9043

          k = 0.6250-0.3750 0.6250 (   883 PWs)   bands (ev):

     2.6906   4.8613  15.3759  16.6457  18.3235  22.4160

          k = 0.5000-0.2500 0.5000 (   873 PWs)   bands (ev):

     1.7397   6.0541  14.5015  17.7238  19.4863  21.5928

          k = 0.3750-0.1250 0.3750 (   877 PWs)   bands (ev):

    -0.6030  10.0790  14.4000  19.4816  21.3428  21.4694

          k = 0.2500 0.0000 0.2500 (   887 PWs)   bands (ev):

    -2.1394  14.2773  15.4526  21.5309  21.5994  23.0940

          k = 0.0000 0.5000 0.0000 (   881 PWs)   bands (ev):

    -1.0207  15.3112  15.3112  15.3307  16.0417  18.5015

          k =-0.1250 0.6250-0.1250 (   876 PWs)   bands (ev):

     0.5028  11.0636  13.3918  14.7187  16.1347  19.9755

          k = 0.7500-0.2500 0.7500 (   875 PWs)   bands (ev):

     2.8205   7.1002  11.4787  14.8438  16.4450  23.6282

          k = 0.6250-0.1250 0.6250 (   871 PWs)   bands (ev):

     3.7690   5.8819  10.3610  15.6863  17.4110  25.3031

          k = 0.5000 0.0000 0.5000 (   883 PWs)   bands (ev):

     1.1918   9.0971  10.5651  17.2429  19.0934  24.7701

          k = 0.0000 0.7500 0.0000 (   870 PWs)   bands (ev):

     1.7323  10.4221  13.6775  13.8819  13.8819  17.1038

          k = 0.8750-0.1250 0.8750 (   877 PWs)   bands (ev):

     3.7334   8.2219  10.0524  13.7645  15.0854  19.0510

          k = 0.7500 0.0000 0.7500 (   874 PWs)   bands (ev):

     5.9765   6.5048   7.4359  14.3658  15.9285  23.2062

          k = 0.0000-1.0000 0.0000 (   846 PWs)   bands (ev):

     4.9372   6.2532  13.1219  13.4054  13.4054  16.6092

          k =-0.2500 0.5000 0.0000 (   880 PWs)   bands (ev):

    -0.4643  11.6959  13.0480  16.5329  19.9194  21.4288

          k = 0.6250-0.3750 0.8750 (   876 PWs)   bands (ev):

     1.6016   7.9885  12.3930  14.4192  20.4609  22.4771

          k = 0.5000-0.2500 0.7500 (   882 PWs)   bands (ev):

     4.3206   4.5690  12.8151  13.2097  20.9724  21.3484

          k = 0.7500-0.2500 1.0000 (   880 PWs)   bands (ev):

     2.2775  10.1383  10.8463  11.6704  18.4360  20.1696

          k = 0.6250-0.1250 0.8750 (   884 PWs)   bands (ev):

     4.7999   6.9284   9.2974  11.4287  19.5355  23.5127

          k = 0.5000 0.0000 0.7500 (   885 PWs)   bands (ev):

     3.8996   7.5367   8.9815  12.5287  20.7073  24.0203

          k =-0.2500-1.0000 0.0000 (   876 PWs)   bands (ev):

     5.4567   6.7926   9.6182  11.0768  17.9309  19.7220

          k =-0.5000-1.0000 0.0000 (   876 PWs)   bands (ev):

     7.0166   7.0166   8.0408   8.8902  23.5482  23.5482

     the Fermi energy is     7.8842 ev

!    total energy              =     -12.46632574 Ry
     estimated scf accuracy    <       0.00000004 Ry
     smearing contrib. (-TS)   =      -0.00031266 Ry
     internal energy E=F+TS    =     -12.46601308 Ry

     The total energy is F=E-TS. E is the sum of the following terms:
     one-electron contribution =       2.94489781 Ry
     hartree contribution      =       0.00791142 Ry
     xc contribution           =     -10.02627674 Ry
     ewald contribution        =      -5.39254557 Ry

     convergence has been achieved in   4 iterations

     Writing all to output data dir ./al-fcc/al-fcc.save/ :
     XML data file, charge density, pseudopotentials, collected wavefunctions

     init_run     :      0.13s CPU      0.26s WALL (       1 calls)
     electrons    :      0.07s CPU      1.11s WALL (       1 calls)

     Called by init_run:
     wfcinit      :      0.01s CPU      0.05s WALL (       1 calls)
     potinit      :      0.01s CPU      0.01s WALL (       1 calls)
     hinit0       :      0.10s CPU      0.16s WALL (       1 calls)

     Called by electrons:
     c_bands      :      0.04s CPU      0.05s WALL (       5 calls)
     sum_band     :      0.01s CPU      0.03s WALL (       5 calls)
     v_of_rho     :      0.01s CPU      0.01s WALL (       5 calls)
     newd         :      0.01s CPU      0.01s WALL (       5 calls)
     mix_rho      :      0.00s CPU      0.00s WALL (       5 calls)

     Called by c_bands:
     init_us_2    :      0.00s CPU      0.00s WALL (      22 calls)
     cegterg      :      0.02s CPU      0.04s WALL (      10 calls)

     Called by *egterg:
     cdiaghg      :      0.00s CPU      0.00s WALL (      38 calls)
     h_psi        :      0.03s CPU      0.08s WALL (      42 calls)
     s_psi        :      0.00s CPU      0.00s WALL (      42 calls)
     g_psi        :      0.00s CPU      0.00s WALL (      30 calls)

     Called by h_psi:
     h_psi:calbec :      0.00s CPU      0.04s WALL (      42 calls)
     vloc_psi     :      0.03s CPU      0.04s WALL (      42 calls)
     add_vuspsi   :      0.00s CPU      0.00s WALL (      42 calls)

     General routines
     calbec       :      0.00s CPU      0.04s WALL (      52 calls)
     fft          :      0.08s CPU      0.14s WALL (      56 calls)
     ffts         :      0.00s CPU      0.00s WALL (       5 calls)
     fftw         :      0.03s CPU      0.04s WALL (     446 calls)

     Parallel routines

     PWSCF        :      0.34s CPU      5.70s WALL


   This run was terminated on:  16: 3:50  29Jan2026            

=------------------------------------------------------------------------------=
   JOB DONE.
=------------------------------------------------------------------------------=
