1
Lattice="1.7550162115045198 1.7550162115045198 1.7550162115045198 -1.7550162115045198 1.7550162115045198 1.7550162115045198 -1.7550162115045198 -1.7550162115045198 1.7550162115045198" Properties=species:S:1:pos:R:3 energy=-24.638455138427325 free_energy=-24.638455138427325 pbc="T T T"
Li       0.00000000       0.00000000       0.00000000
