2
Lattice="-2.714679078853667 0.0 2.714679078853667 0.0 2.714679078853667 2.714679078853667 -2.714679078853667 2.714679078853667 0.0" Properties=species:S:1:pos:R:3 energy=-261.13001580416875 free_energy=-261.13001580416875 pbc="T T T"
Si      -4.07201862       4.07201862       4.07201862
Si       0.00000000       0.00000000       0.00000000
