
     Program PWSCF v.7.3.1 starts on 30Jan2026 at 13:22:19 

     This program is part of the open-source Quantum ESPRESSO suite
     for quantum simulation of materials; please cite
         "P. Giannozzi et al., J. Phys.:Condens. Matter 21 395502 (2009);
         "P. Giannozzi et al., J. Phys.:Condens. Matter 29 465901 (2017);
         "P. Giannozzi et al., J. Chem. Phys. 152 154105 (2020);
          URL http://www.quantum-espresso.org", 
     in publications or presentations arising from this work. More details at
     http://www.quantum-espresso.org/quote

     Parallel version (MPI), running on   128 processors

     MPI processes distributed on     1 nodes
     242027 MiB available memory on the printing compute node when the environment starts

     Waiting for input...
     Reading input from standard input

     Current dimensions of program PWSCF are:
     Max number of different atomic species (ntypx) = 10
     Max number of k-points (npk) =  40000
     Max angular momentum in pseudopotentials (lmaxx) =  4

     K-points division:     npool     =       8
     R & G space division:  proc/nbgrp/npool/nimage =      16
     Subspace diagonalization in iterative solution of the eigenvalue problem:
     a serial algorithm will be used


     Parallelization info
     --------------------
     sticks:   dense  smooth     PW     G-vecs:    dense   smooth      PW
     Min          53      53     15                 1052     1052     168
     Max          54      54     16                 1055     1055     173
     Sum         859     859    253                16865    16865    2741

     Using Slab Decomposition



     bravais-lattice index     =            2
     lattice parameter (alat)  =      10.2600  a.u.
     unit-cell volume          =     270.0114 (a.u.)^3
     number of atoms/cell      =            2
     number of atomic types    =            1
     number of electrons       =         8.00
     number of Kohn-Sham states=            8
     kinetic-energy cutoff     =      60.0000  Ry
     charge density cutoff     =     240.0000  Ry
     scf convergence threshold =      1.0E-07
     mixing beta               =       0.7000
     number of iterations used =            8  plain     mixing
     Exchange-correlation=  SLA  PW   PBE  PBE
                           (   1   4   3   4   0   0   0)

     celldm(1)=  10.260000  celldm(2)=   0.000000  celldm(3)=   0.000000
     celldm(4)=   0.000000  celldm(5)=   0.000000  celldm(6)=   0.000000

     crystal axes: (cart. coord. in units of alat)
               a(1) = (  -0.500000   0.000000   0.500000 )  
               a(2) = (   0.000000   0.500000   0.500000 )  
               a(3) = (  -0.500000   0.500000   0.000000 )  

     reciprocal axes: (cart. coord. in units 2 pi/alat)
               b(1) = ( -1.000000 -1.000000  1.000000 )  
               b(2) = (  1.000000  1.000000  1.000000 )  
               b(3) = ( -1.000000  1.000000 -1.000000 )  


     PseudoPot. # 1 for Si read from file:
     ./Si.pbe-n-van.UPF
     MD5 check sum: 8a97496598b7338af554a5de8957bfee
     Pseudo is Ultrasoft + core correction, Zval =  4.0
     Generated by new atomic code, or converted to UPF format
     Using radial grid of  899 points,  6 beta functions with: 
                l(1) =   0
                l(2) =   0
                l(3) =   1
                l(4) =   1
                l(5) =   2
                l(6) =   2
     Q(r) pseudized with  8 coefficients,  rinner =    0.900   0.900   0.900
                                                       0.900   0.900

     atomic species   valence    mass     pseudopotential
     Si                4.00    28.08550     Si( 1.00)

     48 Sym. Ops., with inversion, found (24 have fractional translation)



   Cartesian axes

     site n.     atom                  positions (alat units)
         1        Si     tau(   1) = (  -0.7500000   0.7500000   0.7500000  )
         2        Si     tau(   2) = (   0.0000000   0.0000000   0.0000000  )

     number of k points=    29  Gaussian smearing, width (Ry)=  0.0100
                       cart. coord. in units 2pi/alat
        k(    1) = (   0.0000000   0.0000000   0.0000000), wk =   0.0039062
        k(    2) = (  -0.1250000   0.1250000  -0.1250000), wk =   0.0312500
        k(    3) = (  -0.2500000   0.2500000  -0.2500000), wk =   0.0312500
        k(    4) = (  -0.3750000   0.3750000  -0.3750000), wk =   0.0312500
        k(    5) = (   0.5000000  -0.5000000   0.5000000), wk =   0.0156250
        k(    6) = (   0.0000000   0.2500000   0.0000000), wk =   0.0234375
        k(    7) = (  -0.1250000   0.3750000  -0.1250000), wk =   0.0937500
        k(    8) = (  -0.2500000   0.5000000  -0.2500000), wk =   0.0937500
        k(    9) = (   0.6250000  -0.3750000   0.6250000), wk =   0.0937500
        k(   10) = (   0.5000000  -0.2500000   0.5000000), wk =   0.0937500
        k(   11) = (   0.3750000  -0.1250000   0.3750000), wk =   0.0937500
        k(   12) = (   0.2500000   0.0000000   0.2500000), wk =   0.0468750
        k(   13) = (   0.0000000   0.5000000   0.0000000), wk =   0.0234375
        k(   14) = (  -0.1250000   0.6250000  -0.1250000), wk =   0.0937500
        k(   15) = (   0.7500000  -0.2500000   0.7500000), wk =   0.0937500
        k(   16) = (   0.6250000  -0.1250000   0.6250000), wk =   0.0937500
        k(   17) = (   0.5000000   0.0000000   0.5000000), wk =   0.0468750
        k(   18) = (   0.0000000   0.7500000   0.0000000), wk =   0.0234375
        k(   19) = (   0.8750000  -0.1250000   0.8750000), wk =   0.0937500
        k(   20) = (   0.7500000   0.0000000   0.7500000), wk =   0.0468750
        k(   21) = (   0.0000000  -1.0000000   0.0000000), wk =   0.0117188
        k(   22) = (  -0.2500000   0.5000000   0.0000000), wk =   0.0937500
        k(   23) = (   0.6250000  -0.3750000   0.8750000), wk =   0.1875000
        k(   24) = (   0.5000000  -0.2500000   0.7500000), wk =   0.0937500
        k(   25) = (   0.7500000  -0.2500000   1.0000000), wk =   0.0937500
        k(   26) = (   0.6250000  -0.1250000   0.8750000), wk =   0.1875000
        k(   27) = (   0.5000000   0.0000000   0.7500000), wk =   0.0937500
        k(   28) = (  -0.2500000  -1.0000000   0.0000000), wk =   0.0468750
        k(   29) = (  -0.5000000  -1.0000000   0.0000000), wk =   0.0234375

     Dense  grid:    16865 G-vectors     FFT dimensions: (  36,  36,  36)

     Estimated max dynamical RAM per process >       2.49 MB

     Estimated total dynamical RAM >     290.16 MB

     Initial potential from superposition of free atoms

     starting charge       7.9987, renormalised to       8.0000
     Starting wfcs are    8 randomized atomic wfcs

     total cpu time spent up to now is        6.2 secs

     per-process dynamical memory:     9.9 Mb

     Self-consistent Calculation

     iteration #  1     ecut=    60.00 Ry     beta= 0.70
     Davidson diagonalization with overlap
     ethr =  1.00E-02,  avg # of iterations =  3.9

     Threshold (ethr) on eigenvalues was too large:
     Diagonalizing with lowered threshold

     Davidson diagonalization with overlap
     ethr =  6.78E-04,  avg # of iterations =  1.5

     total cpu time spent up to now is        6.4 secs

     total energy              =     -19.18999902 Ry
     estimated scf accuracy    <       0.05647274 Ry

     iteration #  2     ecut=    60.00 Ry     beta= 0.70
     Davidson diagonalization with overlap
     ethr =  7.06E-04,  avg # of iterations =  1.0

     total cpu time spent up to now is        6.4 secs

     total energy              =     -19.19248486 Ry
     estimated scf accuracy    <       0.00212327 Ry

     iteration #  3     ecut=    60.00 Ry     beta= 0.70
     Davidson diagonalization with overlap
     ethr =  2.65E-05,  avg # of iterations =  3.6

     total cpu time spent up to now is        6.5 secs

     total energy              =     -19.19265026 Ry
     estimated scf accuracy    <       0.00004529 Ry

     iteration #  4     ecut=    60.00 Ry     beta= 0.70
     Davidson diagonalization with overlap
     ethr =  5.66E-07,  avg # of iterations =  4.8

     total cpu time spent up to now is        6.5 secs

     total energy              =     -19.19270330 Ry
     estimated scf accuracy    <       0.00000014 Ry

     iteration #  5     ecut=    60.00 Ry     beta= 0.70
     Davidson diagonalization with overlap
     ethr =  1.74E-09,  avg # of iterations =  4.2

     total cpu time spent up to now is        6.6 secs

     End of self-consistent calculation

          k = 0.0000 0.0000 0.0000 (  2085 PWs)   bands (ev):

    -5.7612   6.2021   6.2021   6.2021   8.7682   8.7682   8.7682   9.5753

          k =-0.1250 0.1250-0.1250 (  2112 PWs)   bands (ev):

    -5.5570   4.6039   5.9130   5.9130   8.7083   9.1929   9.1929  10.9194

          k =-0.2500 0.2500-0.2500 (  2106 PWs)   bands (ev):

    -4.9612   2.2753   5.4419   5.4419   8.2358   9.7118   9.7118  13.1265

          k =-0.3750 0.3750-0.3750 (  2114 PWs)   bands (ev):

    -4.0670   0.2546   5.1146   5.1146   7.8727   9.6578   9.6578  14.0885

          k = 0.5000-0.5000 0.5000 (  2120 PWs)   bands (ev):

    -3.4288  -0.7682   5.0026   5.0026   7.7449   9.5469   9.5469  13.9338

          k = 0.0000 0.2500 0.0000 (  2105 PWs)   bands (ev):

    -5.4882   4.8695   5.3951   5.3951   8.2167   9.9092   9.9092  10.6060

          k =-0.1250 0.3750-0.1250 (  2106 PWs)   bands (ev):

    -5.0193   2.9786   4.8831   4.9598   8.3534   9.9149  10.6743  10.9589

          k =-0.2500 0.5000-0.2500 (  2116 PWs)   bands (ev):

    -4.2040   0.9173   4.3681   4.6148   8.4536   9.8486  10.6714  11.6756

          k = 0.6250-0.3750 0.6250 (  2115 PWs)   bands (ev):

    -3.3422  -0.5466   3.9223   4.6392   8.4008   9.7218  10.3078  13.5778

          k = 0.5000-0.2500 0.5000 (  2110 PWs)   bands (ev):

    -3.5868  -0.1758   3.7405   4.9358   8.5675   9.8302  10.0754  14.1236

          k = 0.3750-0.1250 0.3750 (  2111 PWs)   bands (ev):

    -4.5105   1.5768   3.8913   5.4277   8.9261   9.8833  10.0631  12.5064

          k = 0.2500 0.0000 0.2500 (  2111 PWs)   bands (ev):

    -5.2206   3.5189   4.5734   5.9090   9.2493   9.3294   9.5653  11.7574

          k = 0.0000 0.5000 0.0000 (  2085 PWs)   bands (ev):

    -4.6788   2.6861   4.3116   4.3116   7.3354   9.3406  11.9638  11.9638

          k =-0.1250 0.6250-0.1250 (  2114 PWs)   bands (ev):

    -3.9685   1.2619   3.5312   3.9933   7.5564   9.1017  12.2053  12.4763

          k = 0.7500-0.2500 0.7500 (  2123 PWs)   bands (ev):

    -3.0421  -0.1807   2.6677   3.9964   7.7263  10.6554  11.9529  12.1269

          k = 0.6250-0.1250 0.6250 (  2122 PWs)   bands (ev):

    -2.8377  -0.4393   2.2090   4.3149   8.0509  11.6727  11.6875  13.1678

          k = 0.5000 0.0000 0.5000 (  2119 PWs)   bands (ev):

    -3.7166   0.7221   2.4491   4.8737   8.6567  10.9959  11.3404  12.3544

          k = 0.0000 0.7500 0.0000 (  2104 PWs)   bands (ev):

    -3.3657   0.4572   3.5948   3.5948   6.8208   7.7465  14.2484  14.2484

          k = 0.8750-0.1250 0.8750 (  2125 PWs)   bands (ev):

    -2.4681  -0.6282   2.7658   3.5185   7.1006   8.1736  14.4738  14.5625

          k = 0.7500 0.0000 0.7500 (  2129 PWs)   bands (ev):

    -2.0291  -1.0250   1.8997   3.7762   7.4102  10.3356  13.6765  14.2225

          k = 0.0000-1.0000 0.0000 (  2100 PWs)   bands (ev):

    -1.6152  -1.6152   3.3490   3.3490   6.9159   6.9159  16.3181  16.3181

          k =-0.2500 0.5000 0.0000 (  2111 PWs)   bands (ev):

    -4.4312   1.9132   3.4888   4.7742   8.6532  10.1098  10.4015  11.7087

          k = 0.6250-0.3750 0.8750 (  2115 PWs)   bands (ev):

    -3.5426   0.3607   2.8809   4.2724   9.0839   9.7611  11.2267  12.1441

          k = 0.5000-0.2500 0.7500 (  2132 PWs)   bands (ev):

    -2.8899  -0.5848   2.7521   4.0426   9.2743   9.3386  12.1192  13.3264

          k = 0.7500-0.2500 1.0000 (  2120 PWs)   bands (ev):

    -3.1670   0.2382   2.8395   3.4424   8.1529   8.8533  11.9617  14.1977

          k = 0.6250-0.1250 0.8750 (  2132 PWs)   bands (ev):

    -2.2919  -0.7302   2.1413   3.2417   8.5948  10.4881  11.4845  13.6473

          k = 0.5000 0.0000 0.7500 (  2128 PWs)   bands (ev):

    -2.6427  -0.3669   1.9743   3.6178   9.0748  10.7514  11.4226  13.2376

          k =-0.2500-1.0000 0.0000 (  2128 PWs)   bands (ev):

    -1.5372  -1.5372   2.7849   2.7849   8.1768   8.1768  14.0545  14.0545

          k =-0.5000-1.0000 0.0000 (  2148 PWs)   bands (ev):

    -1.4512  -1.4512   2.3490   2.3490  10.4762  10.4762  11.2106  11.2106

     the Fermi energy is     6.5016 ev

!    total energy              =     -19.19270384 Ry
     estimated scf accuracy    <          7.8E-09 Ry
     smearing contrib. (-TS)   =      -0.00000054 Ry
     internal energy E=F+TS    =     -19.19270331 Ry

     The total energy is F=E-TS. E is the sum of the following terms:
     one-electron contribution =       5.11657029 Ry
     hartree contribution      =       1.11679324 Ry
     xc contribution           =      -8.62513726 Ry
     ewald contribution        =     -16.80092958 Ry

     convergence has been achieved in   5 iterations

     Writing all to output data dir ./si-fcc/si-fcc.save/ :
     XML data file, charge density, pseudopotentials, collected wavefunctions

     init_run     :      0.33s CPU      0.48s WALL (       1 calls)
     electrons    :      0.25s CPU      0.36s WALL (       1 calls)

     Called by init_run:
     wfcinit      :      0.01s CPU      0.06s WALL (       1 calls)
     potinit      :      0.00s CPU      0.03s WALL (       1 calls)
     hinit0       :      0.28s CPU      0.35s WALL (       1 calls)

     Called by electrons:
     c_bands      :      0.12s CPU      0.15s WALL (       6 calls)
     sum_band     :      0.04s CPU      0.05s WALL (       6 calls)
     v_of_rho     :      0.01s CPU      0.03s WALL (       6 calls)
     newd         :      0.01s CPU      0.02s WALL (       6 calls)
     mix_rho      :      0.01s CPU      0.01s WALL (       6 calls)

     Called by c_bands:
     init_us_2    :      0.00s CPU      0.00s WALL (      52 calls)
     cegterg      :      0.10s CPU      0.12s WALL (      24 calls)

     Called by *egterg:
     cdiaghg      :      0.01s CPU      0.01s WALL (      90 calls)
     h_psi        :      0.08s CPU      0.14s WALL (      98 calls)
     s_psi        :      0.00s CPU      0.00s WALL (      98 calls)
     g_psi        :      0.00s CPU      0.00s WALL (      70 calls)

     Called by h_psi:
     h_psi:calbec :      0.01s CPU      0.04s WALL (      98 calls)
     vloc_psi     :      0.08s CPU      0.09s WALL (      98 calls)
     add_vuspsi   :      0.00s CPU      0.00s WALL (      98 calls)

     General routines
     calbec       :      0.01s CPU      0.04s WALL (     122 calls)
     fft          :      0.26s CPU      0.32s WALL (      67 calls)
     ffts         :      0.00s CPU      0.00s WALL (       6 calls)
     fftw         :      0.08s CPU      0.10s WALL (    1324 calls)

     Parallel routines

     PWSCF        :      0.80s CPU      6.77s WALL


   This run was terminated on:  13:22:26  30Jan2026            

=------------------------------------------------------------------------------=
   JOB DONE.
=------------------------------------------------------------------------------=
