36
Lattice="6.491374676997684 -3.747796823403464 2.0843318328023193 0.0 7.495593646806928 2.0843318328023193 -6.491374676997684 -3.747796823403464 2.0843318328023193" Properties=species:S:1:pos:R:3:forces:R:3 energy=-5632.295804096708 free_energy=-5632.295804096708 stress="0.006095648407309161 0.0 -0.0 0.0 0.006095648407309161 0.0 -0.0 0.0 0.0032980221537964307" pbc="T T T"
O       -3.82007224      -4.05005135       2.37476232      -0.01580380       0.00334449       0.01596938
O        3.82007224       4.05005135       3.87823396       0.01580380      -0.00334449      -0.01596938
O        5.41748348      -1.28325409       2.37476232       0.00500542      -0.01535874       0.01596938
O       -5.41748348       1.28325409       3.87823396      -0.00500542       0.01535874      -0.01596938
O       -1.59741124       5.33330544       2.37476232       0.01079838       0.01201425       0.01596938
O        1.59741124      -5.33330544       3.87823396      -0.01079838      -0.01201425      -0.01596938
O        0.95683877       2.56975555       3.26472577       0.00497097       0.00664424       0.01345638
O       -0.95683877      -2.56975555       2.98827050      -0.00497097      -0.00664424      -0.01345638
O       -2.70389286      -0.45623083       3.26472577      -0.00823961       0.00098268       0.01345638
O        2.70389286       0.45623083       2.98827050       0.00823961      -0.00098268      -0.01345638
O        1.74705408      -2.11352472       3.26472577       0.00326864      -0.00762718       0.01345638
O       -1.74705408       2.11352395       2.98827050      -0.00326864       0.00762718      -0.01345638
H       -4.23773528      -3.21058398       2.02057007       0.00734127      -0.00911456       0.02283345
H        4.23773528       3.21058398       4.23242621      -0.00734127       0.00911456      -0.02283345
H        4.89931530      -2.06469434       2.02057007       0.00422278       0.01091510       0.02283345
H       -4.89931530       2.06469434       4.23242621      -0.00422278      -0.01091510      -0.02283345
H       -0.66158002       5.27527832       2.02057007      -0.01156431      -0.00180054       0.02283345
H        0.66158002      -5.27527832       4.23242621       0.01156431       0.00180054      -0.02283345
H       -3.67713031      -3.83245955       3.33665887       0.01454242      -0.00667793      -0.00564614
H        3.67713031       3.83246033       2.91633741      -0.01454242       0.00667793       0.00564614
H        5.15757315      -1.26825814       3.33665887      -0.00148815       0.01593313      -0.00564614
H       -5.15757315       1.26825814       2.91633741       0.00148815      -0.01593313       0.00564614
H       -1.48044284       5.10071847       3.33665887      -0.01305452      -0.00925520      -0.00564614
H        1.48044284      -5.10071847       2.91633741       0.01305452       0.00925520       0.00564614
H        2.08269648      -1.17262872       3.22957185       0.00377078       0.00355918      -0.00253896
H       -2.08269648       1.17262795       3.02342521      -0.00377078      -0.00355918       0.00253896
H       -0.02582260       2.38998233       3.22957185      -0.00496789       0.00148584      -0.00253896
H        0.02582260      -2.38998233       3.02342521       0.00496789      -0.00148584       0.00253896
H       -2.05687388      -1.21735361       3.22957185       0.00119711      -0.00504528      -0.00253896
H        2.05687388       1.21735438       3.02342521      -0.00119711       0.00504528       0.00253896
H        2.41408788      -2.65799319       2.76653041      -0.02161989       0.01272619       0.00863814
H       -2.41408788       2.65799319       3.48646587       0.02161989      -0.01272619      -0.00863814
H        1.09484585       3.41965824       2.76653041      -0.00021134      -0.02508651       0.00863814
H       -1.09484585      -3.41965824       3.48646587       0.00021134       0.02508651      -0.00863814
H       -3.50893373      -0.76166427       2.76653041       0.02183124       0.01236032       0.00863814
H        3.50893373       0.76166427       3.48646587      -0.02183124      -0.01236032      -0.00863814
