24
Lattice="4.790127436155298 0.0 0.0 0.0 8.297070744585877 0.0 0.0 0.0 7.7969910205061375" Properties=species:S:1:pos:R:3:forces:R:3 energy=-3753.3066314696175 free_energy=-3753.3066314696175 stress="0.06589984467332545 -0.0 -0.0 -0.0 0.06104554536176595 -0.0 -0.0 -0.0 0.0592836008981982" pbc="T T T"
O        0.00000000       5.50139717       0.47154781       0.00000000      -1.79455956       1.21734998
O        0.00000000       2.79567357       4.37004332       0.00000000       1.79455930       1.21734896
O        2.39506372       1.35286180       0.47154733       0.00000000      -1.79457910       1.21736387
O        2.39506372       6.94420942       4.37004332       0.00000000       1.79456804       1.21735693
O        2.39506372       6.89894895       7.27493371       0.00000000      -1.66128668       1.55482167
O        2.39506372       1.39812228       3.37643820       0.00000000       1.66128874       1.55482681
O        0.00000000       2.75041357       7.27493323       0.00000000      -1.66129028       1.55482784
O        0.00000000       5.54665765       3.37643772       0.00000000       1.66128771       1.55482553
H        0.00000000       5.50261961       1.54083311       0.00000000      -0.15579625      -2.02747039
H        0.00000000       2.79445113       5.43932862       0.00000000       0.15579780      -2.02746808
H        2.39506372       1.35408424       1.54083311       0.00000000      -0.15579677      -2.02746654
H        2.39506372       6.94298650       5.43932862       0.00000000       0.15579831      -2.02746834
H        0.00000000       4.47091047       0.15095751       0.00000000       2.08249792       0.77683234
H        0.00000000       3.82616075       4.04945302       0.00000000      -2.08249689       0.77683285
H        2.39506372       0.32237462       0.15095751       0.00000000       2.08249740       0.77683311
H        2.39506372       7.97469613       4.04945302       0.00000000      -2.08249483       0.77683285
H        3.26720174       6.40222710       7.67028305      -1.98055265       0.78870389      -0.76077246
H        1.52292569       1.89484412       3.77178754       1.98055188      -0.78870209      -0.76077246
H        3.26720174       1.89484412       3.77178754      -1.98055188      -0.78870209      -0.76077246
H        1.52292569       6.40222710       7.67028305       1.98055265       0.78870389      -0.76077246
H        0.87213802       2.25369125       7.67028305      -1.98054828       0.78870261      -0.76077168
H        3.91798941       6.04337949       3.77178754       1.98054982      -0.78870209      -0.76077297
H        0.87213802       6.04337949       3.77178754      -1.98054982      -0.78870209      -0.76077297
H        3.91798941       2.25369125       7.67028305       1.98054828       0.78870261      -0.76077168
