24
Lattice="4.501999442219337 0.0 0.0 0.0 7.797998771857516 0.0 0.0 0.0 7.327999034088702" Properties=species:S:1:pos:R:3:forces:R:3 energy=-3754.549034140003 free_energy=-3754.549034140003 stress="-0.04332051260034053 -0.0 -0.0 -0.0 0.017351342612039238 -0.0 -0.0 -0.0 -0.020500623232173356" pbc="T T T"
O        0.00000000       5.18410953       0.46239676       0.00000000      -1.47989998      -1.62548947
O        0.00000000       2.61388924       4.12639628       0.00000000       1.47990024      -1.62547122
O        2.25099972       1.28511015       0.46239676       0.00000000      -1.47990487      -1.62549744
O        2.25099972       6.51288907       4.12639628       0.00000000       1.47990307      -1.62547636
O        2.25099972       6.43724828       6.86560227       0.00000000       2.88407815      -1.95935699
O        2.25099972       1.36075094       3.20160276       0.00000000      -2.88407301      -1.95935210
O        0.00000000       2.53824890       6.86560227       0.00000000       2.88408098      -1.95936804
O        0.00000000       5.25975033       3.20160276       0.00000000      -2.88407609      -1.95936110
H        0.00000000       5.17475258       1.43848606       0.00000000      -0.09089544       0.92313351
H        0.00000000       2.62324664       5.10248603       0.00000000       0.09089518       0.92311320
H        2.25099972       1.27575274       1.43848606       0.00000000      -0.09089621       0.92313248
H        2.25099972       6.52224603       5.10248603       0.00000000       0.09089570       0.92311294
H        0.00000000       4.18206710       0.13410241       0.00000000       1.52039974       0.56816803
H        0.00000000       3.61593212       3.79810193       0.00000000      -1.52039923       0.56816700
H        2.25099972       0.28306727       0.13410241       0.00000000       1.52039846       0.56816726
H        2.25099972       7.51493151       3.79810193       0.00000000      -1.52039640       0.56816572
H        3.04605282       6.04188989       7.19389663       1.80766319      -1.41232676       1.04677914
H        1.45594662       1.75610933       3.52989711      -1.80765881       1.41232394       1.04677683
H        3.04605282       1.75610933       3.52989711       1.80765881       1.41232394       1.04677683
H        1.45594662       6.04188989       7.19389663      -1.80766319      -1.41232676       1.04677914
H        0.79505310       2.14289006       7.19389663       1.80765676      -1.41232419       1.04677606
H        3.70694634       5.65510871       3.52989711      -1.80765342       1.41232188       1.04677452
H        0.79505310       5.65510871       3.52989711       1.80765342       1.41232188       1.04677452
H        3.70694634       2.14289006       7.19389663      -1.80765676      -1.41232419       1.04677606
24
Lattice="4.501999442219337 0.0 0.0 0.0 7.797998771857516 0.0 0.0 0.0 7.327999034088702" Properties=species:S:1:pos:R:3:forces:R:3 energy=-3755.1676460399085 free_energy=-3755.1676460399085 stress="0.0356575691438859 -0.0 -0.0 -0.0 -0.00037460830700137627 -0.0 -0.0 -0.0 0.024195289475735952" pbc="T T T"
O        0.00000000       5.15365061       0.42894140       0.00000000       1.22073510       1.03920390
O        0.00000000       2.64434817       4.09294112       0.00000000      -1.22073176       1.03918925
O        2.25099972       1.25465112       0.42894123       0.00000000       1.22074101       1.03921136
O        2.25099972       6.54334761       4.09294102       0.00000000      -1.22073330       1.03919388
O        2.25099972       6.49660735       6.82527551       0.00000000      -0.94680283       0.89065430
O        2.25099972       1.30139153       3.16127587       0.00000000       0.94679923       0.89065199
O        0.00000000       2.59760802       6.82527528       0.00000000      -0.94680103       0.89065482
O        0.00000000       5.20039085       3.16127569       0.00000000       0.94679794       0.89065250
H        0.00000000       5.17288142       1.45748588       0.00000000      -0.08690097      -0.67861285
H        0.00000000       2.62511735       5.12148520       0.00000000       0.08690149      -0.67860103
H        2.25099972       1.27388202       1.45748586       0.00000000      -0.08690123      -0.67861645
H        2.25099972       6.52411674       5.12148520       0.00000000       0.08690174      -0.67860334
H        0.00000000       4.21335921       0.14579626       0.00000000      -0.83389900      -0.28804686
H        0.00000000       3.58463957       3.80979573       0.00000000       0.83389540      -0.28804506
H        2.25099972       0.31435980       0.14579625       0.00000000      -0.83390491      -0.28804840
H        2.25099972       7.48363902       3.80979570       0.00000000       0.83389720      -0.28804532
H        3.08325754       6.01282136       7.21544119      -0.92429667       0.33038239      -0.48159925
H        1.41874199       1.78517735       3.55144162       0.92429410      -0.33038084      -0.48159822
H        3.08325745       1.78517735       3.55144162      -0.92429410      -0.33038084      -0.48159822
H        1.41874190       6.01282136       7.21544119       0.92429667       0.33038239      -0.48159925
H        0.83225769       2.11382203       7.21544112      -0.92429462       0.33038239      -0.48160002
H        3.66974182       5.68417670       3.55144157       0.92429256      -0.33038110      -0.48159899
H        0.83225762       5.68417670       3.55144157      -0.92429256      -0.33038110      -0.48159899
H        3.66974175       2.11382203       7.21544112       0.92429462       0.33038239      -0.48160002
24
Lattice="4.501999442219337 0.0 0.0 0.0 7.797998771857516 0.0 0.0 0.0 7.327999034088702" Properties=species:S:1:pos:R:3:forces:R:3 energy=-3755.3995784606927 free_energy=-3755.3995784606927 stress="0.018414569130440202 -0.0 -0.0 -0.0 0.013766855282300578 0.0 -0.0 0.0 0.007783222104045752" pbc="T T T"
O        0.00000000       5.17048597       0.44318382       0.00000000      -0.15678279      -0.10346222
O        0.00000000       2.62751286       4.10718335       0.00000000       0.15677970      -0.10346299
O        2.25099972       1.27148656       0.44318376       0.00000000      -0.15678484      -0.10346248
O        2.25099972       6.52651228       4.10718330       0.00000000       0.15678073      -0.10346222
O        2.25099972       6.48397438       6.83734359       0.00000000      -0.10345219       0.32524789
O        2.25099972       1.31402445       3.17334392       0.00000000       0.10345116       0.32524789
O        0.00000000       2.58497508       6.83734337       0.00000000      -0.10345322       0.32524943
O        0.00000000       5.21302374       3.17334374       0.00000000       0.10345245       0.32524943
H        0.00000000       5.17163497       1.44815158       0.00000000      -0.04087437      -0.02843614
H        0.00000000       2.62636381       5.11215106       0.00000000       0.04087488      -0.02843460
H        2.25099972       1.27263556       1.44815151       0.00000000      -0.04087437      -0.02843614
H        2.25099972       6.52536321       5.11215102       0.00000000       0.04087514      -0.02843512
H        0.00000000       4.20198334       0.14187730       0.00000000       0.33757325       0.08540176
H        0.00000000       3.59601539       3.80587679       0.00000000      -0.33757093       0.08540125
H        2.25099972       0.30298385       0.14187726       0.00000000       0.33757505       0.08540228
H        2.25099972       7.49501486       3.80587676       0.00000000      -0.33757170       0.08540176
H        3.07067843       6.01713031       7.20891256      -0.37536101      -0.01069142      -0.13937590
H        1.43132107       1.78086842       3.54491302       0.37535998       0.01069219      -0.13937590
H        3.07067838       1.78086842       3.54491302      -0.37535998       0.01069219      -0.13937590
H        1.43132101       6.01713031       7.20891256       0.37536101      -0.01069142      -0.13937590
H        0.81967860       2.11813098       7.20891249      -0.37535972      -0.01069116      -0.13937667
H        3.68232088       5.67986776       3.54491296       0.37535895       0.01069168      -0.13937642
H        0.81967856       5.67986776       3.54491296      -0.37535895       0.01069168      -0.13937642
H        3.68232084       2.11813098       7.20891249       0.37535972      -0.01069116      -0.13937667
24
Lattice="4.501999442219337 0.0 0.0 0.0 7.797998771857516 0.0 0.0 0.0 7.327999034088702" Properties=species:S:1:pos:R:3:forces:R:3 energy=-3755.4257967651038 free_energy=-3755.4257967651038 stress="0.007822702881499327 -0.0 -0.0 -0.0 0.005319805222465623 -0.0 -0.0 -0.0 0.006132374711917138" pbc="T T T"
O        0.00000000       5.16825680       0.44196979       0.00000000       0.10524528       0.03287207
O        0.00000000       2.62974197       4.10596928       0.00000000      -0.10524477       0.03287335
O        2.25099972       1.26925735       0.44196973       0.00000000       0.10524605       0.03287207
O        2.25099972       6.52874141       4.10596926       0.00000000      -0.10524502       0.03287284
O        2.25099972       6.48061299       6.84556822       0.00000000       0.29116663      -0.05399188
O        2.25099972       1.31738581       3.18156855       0.00000000      -0.29116663      -0.05399085
O        0.00000000       2.58161367       6.84556804       0.00000000       0.29116663      -0.05399111
O        0.00000000       5.21638514       3.18156840       0.00000000      -0.29116663      -0.05399034
H        0.00000000       5.17063879       1.44680552       0.00000000      -0.04659636      -0.06435266
H        0.00000000       2.62736000       5.11080505       0.00000000       0.04659636      -0.06435368
H        2.25099972       1.27163939       1.44680544       0.00000000      -0.04659636      -0.06435240
H        2.25099972       6.52635940       5.11080499       0.00000000       0.04659662      -0.06435317
H        0.00000000       4.20863450       0.14347629       0.00000000       0.06944061       0.01936581
H        0.00000000       3.58936428       3.80747578       0.00000000      -0.06944113       0.01936581
H        2.25099972       0.30963504       0.14347627       0.00000000       0.06944035       0.01936581
H        2.25099972       7.48836373       3.80747576       0.00000000      -0.06944113       0.01936606
H        3.06130666       6.01727327       7.20528079      -0.01164581      -0.20496963       0.03305282
H        1.44069281       1.78072547       3.54128124       0.01164555       0.20496963       0.03305256
H        3.06130663       1.78072547       3.54128124      -0.01164555       0.20496963       0.03305256
H        1.44069279       6.01727327       7.20528079       0.01164581      -0.20496963       0.03305282
H        0.81030686       2.11827395       7.20528071      -0.01164453      -0.20496989       0.03305282
H        3.69169260       5.67972481       3.54128117       0.01164453       0.20496963       0.03305256
H        0.81030685       5.67972481       3.54128117      -0.01164453       0.20496963       0.03305256
H        3.69169258       2.11827395       7.20528071       0.01164453      -0.20496989       0.03305282
24
Lattice="4.501999442219337 0.0 0.0 0.0 7.797998771857516 0.0 0.0 0.0 7.327999034088702" Properties=species:S:1:pos:R:3:forces:R:3 energy=-3755.4374511286996 free_energy=-3755.4374511286996 stress="0.00832218062416783 -0.0 -0.0 -0.0 0.005484155435586325 -0.0 -0.0 -0.0 0.004783601175189143" pbc="T T T"
O        0.00000000       5.17021826       0.44265510       0.00000000       0.10444104      -0.04723708
O        0.00000000       2.62778051       4.10665461       0.00000000      -0.10444027      -0.04723682
O        2.25099972       1.27121882       0.44265504       0.00000000       0.10444130      -0.04723734
O        2.25099972       6.52677995       4.10665458       0.00000000      -0.10444078      -0.04723682
O        2.25099972       6.48534515       6.84646821       0.00000000       0.16780176       0.01762877
O        2.25099972       1.31265365       3.18246856       0.00000000      -0.16780151       0.01762954
O        0.00000000       2.58634582       6.84646805       0.00000000       0.16780151       0.01762954
O        0.00000000       5.21165298       3.18246843       0.00000000      -0.16780151       0.01763031
H        0.00000000       5.16948542       1.44507287       0.00000000      -0.03271317       0.02283577
H        0.00000000       2.62851337       5.10907239       0.00000000       0.03271317       0.02283525
H        2.25099972       1.27048601       1.44507280       0.00000000      -0.03271317       0.02283602
H        2.25099972       6.52751278       5.10907235       0.00000000       0.03271317       0.02283551
H        0.00000000       4.21113247       0.14410995       0.00000000       0.04371698       0.00644036
H        0.00000000       3.58686630       3.80810944       0.00000000      -0.04371750       0.00644036
H        2.25099972       0.31213301       0.14410993       0.00000000       0.04371698       0.00644036
H        2.25099972       7.48586575       3.80810943       0.00000000      -0.04371750       0.00644061
H        3.05887862       6.01338388       7.20503763      -0.02386215      -0.13653920       0.00016584
H        1.44312083       1.78461487       3.54103807       0.02386215       0.13653895       0.00016558
H        3.05887861       1.78461487       3.54103807      -0.02386215       0.13653895       0.00016558
H        1.44312082       6.01338388       7.20503763       0.02386215      -0.13653920       0.00016584
H        0.80787886       2.11438455       7.20503753      -0.02386164      -0.13653920       0.00016584
H        3.69412059       5.68361421       3.54103800       0.02386164       0.13653920       0.00016558
H        0.80787885       5.68361421       3.54103800      -0.02386164       0.13653920       0.00016558
H        3.69412059       2.11438455       7.20503753       0.02386164      -0.13653920       0.00016584
24
Lattice="4.501999442219337 0.0 0.0 0.0 7.797998771857516 0.0 0.0 0.0 7.327999034088702" Properties=species:S:1:pos:R:3:forces:R:3 energy=-3755.445885977414 free_energy=-3755.445885977414 stress="0.00798521677938963 -0.0 -0.0 -0.0 0.005766029823452556 -0.0 -0.0 -0.0 0.005248188928480066" pbc="T T T"
O        0.00000000       5.17328594       0.44184471       0.00000000       0.07294271      -0.01698265
O        0.00000000       2.62471283       4.10584422       0.00000000      -0.07294271      -0.01698214
O        2.25099972       1.27428651       0.44184465       0.00000000       0.07294297      -0.01698239
O        2.25099972       6.52371226       4.10584419       0.00000000      -0.07294271      -0.01698214
O        2.25099972       6.48995977       6.84868235       0.00000000       0.07645278       0.05033706
O        2.25099972       1.30803902       3.18468272       0.00000000      -0.07645278       0.05033757
O        0.00000000       2.59096044       6.84868221       0.00000000       0.07645252       0.05033757
O        0.00000000       5.20703836       3.18468261       0.00000000      -0.07645252       0.05033809
H        0.00000000       5.16817634       1.44468914       0.00000000      -0.01111385       0.00832960
H        0.00000000       2.62982245       5.10868866       0.00000000       0.01111385       0.00832935
H        2.25099972       1.26917694       1.44468908       0.00000000      -0.01111385       0.00832960
H        2.25099972       6.52882186       5.10868862       0.00000000       0.01111385       0.00832935
H        0.00000000       4.21372298       0.14462638       0.00000000       0.03849019      -0.00666996
H        0.00000000       3.58427578       3.80862587       0.00000000      -0.03849044      -0.00666996
H        2.25099972       0.31472352       0.14462636       0.00000000       0.03849044      -0.00666996
H        2.25099972       7.48327523       3.80862586       0.00000000      -0.03849044      -0.00666970
H        3.05586936       6.00909083       7.20426940      -0.00427420      -0.08259977      -0.01750741
H        1.44613009       1.78890792       3.54026984       0.00427420       0.08259977      -0.01750741
H        3.05586935       1.78890792       3.54026984      -0.00427420       0.08259977      -0.01750741
H        1.44613009       6.00909083       7.20426940       0.00427420      -0.08259977      -0.01750741
H        0.80486962       2.11009150       7.20426930      -0.00427394      -0.08260003      -0.01750741
H        3.69712983       5.68790726       3.54026975       0.00427394       0.08259977      -0.01750741
H        0.80486961       5.68790726       3.54026975      -0.00427394       0.08259977      -0.01750741
H        3.69712982       2.11009150       7.20426930       0.00427394      -0.08260003      -0.01750741
24
Lattice="4.501999442219337 0.0 0.0 0.0 7.797998771857516 0.0 0.0 0.0 7.327999034088702" Properties=species:S:1:pos:R:3:forces:R:3 energy=-3755.4516195520514 free_energy=-3755.4516195520514 stress="0.00721671885546769 -0.0 -0.0 -0.0 0.006102993668230756 -0.0 -0.0 -0.0 0.005432738609135156" pbc="T T T"
O        0.00000000       5.17818500       0.44121220       0.00000000       0.02859555      -0.00828049
O        0.00000000       2.61981377       4.10521173       0.00000000      -0.02859504      -0.00828127
O        2.25099972       1.27918557       0.44121215       0.00000000       0.02859555      -0.00828075
O        2.25099972       6.51881320       4.10521170       0.00000000      -0.02859530      -0.00828075
O        2.25099972       6.49604998       6.85365105       0.00000000      -0.03078279       0.06556853
O        2.25099972       1.30194880       3.18965146       0.00000000       0.03078253       0.06556853
O        0.00000000       2.59705064       6.85365096       0.00000000      -0.03078253       0.06556853
O        0.00000000       5.20094815       3.18965138       0.00000000       0.03078253       0.06556879
H        0.00000000       5.16658565       1.44373889       0.00000000       0.01704539       0.01723462
H        0.00000000       2.63141315       5.10773840       0.00000000      -0.01704539       0.01723513
H        2.25099972       1.26758624       1.44373883       0.00000000       0.01704539       0.01723488
H        2.25099972       6.53041257       5.10773837       0.00000000      -0.01704564       0.01723488
H        0.00000000       4.21835665       0.14498521       0.00000000       0.02517316      -0.02057242
H        0.00000000       3.57964211       3.80898471       0.00000000      -0.02517367      -0.02057217
H        2.25099972       0.31935720       0.14498520       0.00000000       0.02517341      -0.02057217
H        2.25099972       7.47864155       3.80898471       0.00000000      -0.02517341      -0.02057217
H        3.05187053       6.00248214       7.20239699       0.03101136      -0.01392278      -0.02697524
H        1.45012890       1.79551662       3.53839742      -0.03101136       0.01392304      -0.02697524
H        3.05187054       1.79551662       3.53839742       0.03101136       0.01392304      -0.02697524
H        1.45012891       6.00248214       7.20239699      -0.03101136      -0.01392278      -0.02697524
H        0.80087083       2.10348281       7.20239688       0.03101110      -0.01392304      -0.02697524
H        3.70112861       5.69451596       3.53839733      -0.03101110       0.01392304      -0.02697524
H        0.80087083       5.69451596       3.53839733       0.03101110       0.01392304      -0.02697524
H        3.70112861       2.10348281       7.20239688      -0.03101110      -0.01392304      -0.02697524
24
Lattice="4.501999442219337 0.0 0.0 0.0 7.797998771857516 0.0 0.0 0.0 7.327999034088702" Properties=species:S:1:pos:R:3:forces:R:3 energy=-3755.452660387484 free_energy=-3755.452660387484 stress="0.007093685735030964 -0.0 -0.0 -0.0 0.006177364435061911 0.0 -0.0 0.0 0.005738485094996573" pbc="T T T"
O        0.00000000       5.17981983       0.44101009       0.00000000       0.01544307       0.00267883
O        0.00000000       2.61817894       4.10500961       0.00000000      -0.01544359       0.00267909
O        2.25099972       1.28082040       0.44101004       0.00000000       0.01544307       0.00267883
O        2.25099972       6.51717837       4.10500959       0.00000000      -0.01544333       0.00267909
O        2.25099972       6.49688664       6.85600520       0.00000000      -0.04234376       0.05175811
O        2.25099972       1.30111214       3.19200562       0.00000000       0.04234350       0.05175811
O        0.00000000       2.59788730       6.85600512       0.00000000      -0.04234350       0.05175811
O        0.00000000       5.20011149       3.19200555       0.00000000       0.04234350       0.05175836
H        0.00000000       5.16661276       1.44378260       0.00000000       0.02212306       0.00766420
H        0.00000000       2.63138604       5.10778212       0.00000000      -0.02212306       0.00766394
H        2.25099972       1.26761336       1.44378254       0.00000000       0.02212306       0.00766420
H        2.25099972       6.53038545       5.10778209       0.00000000      -0.02212306       0.00766420
H        0.00000000       4.21997851       0.14463369       0.00000000       0.02274578      -0.01952393
H        0.00000000       3.57802024       3.80863319       0.00000000      -0.02274552      -0.01952393
H        2.25099972       0.32097906       0.14463368       0.00000000       0.02274604      -0.01952393
H        2.25099972       7.47701969       3.80863319       0.00000000      -0.02274578      -0.01952393
H        3.05176031       6.00064419       7.20147487       0.03183309      -0.00295137      -0.02128873
H        1.45023912       1.79735457       3.53747530      -0.03183283       0.00295137      -0.02128873
H        3.05176032       1.79735457       3.53747530       0.03183283       0.00295137      -0.02128873
H        1.45023913       6.00064419       7.20147487      -0.03183309      -0.00295137      -0.02128873
H        0.80076061       2.10164485       7.20147476       0.03183257      -0.00295163      -0.02128873
H        3.70123883       5.69635391       3.53747521      -0.03183257       0.00295163      -0.02128873
H        0.80076061       5.69635391       3.53747521       0.03183257       0.00295163      -0.02128873
H        3.70123883       2.10164485       7.20147476      -0.03183257      -0.00295163      -0.02128873
24
Lattice="4.501999442219337 0.0 0.0 0.0 7.797998771857516 0.0 0.0 0.0 7.327999034088702" Properties=species:S:1:pos:R:3:forces:R:3 energy=-3755.4537240804793 free_energy=-3755.4537240804793 stress="0.0070872586317245675 -0.0 -0.0 -0.0 0.006188382326444304 -0.0 -0.0 -0.0 0.005981796863024427" pbc="T T T"
O        0.00000000       5.18142406       0.44099573       0.00000000       0.00700420       0.00525508
O        0.00000000       2.61657471       4.10499526       0.00000000      -0.00700394       0.00525431
O        2.25099972       1.28242464       0.44099569       0.00000000       0.00700420       0.00525482
O        2.25099972       6.51557413       4.10499523       0.00000000      -0.00700420       0.00525456
O        2.25099972       6.49685969       6.85875332       0.00000000      -0.03891622       0.02743393
O        2.25099972       1.30113908       3.19475375       0.00000000       0.03891622       0.02743393
O        0.00000000       2.59786036       6.85875325       0.00000000      -0.03891622       0.02743393
O        0.00000000       5.20013842       3.19475369       0.00000000       0.03891622       0.02743393
H        0.00000000       5.16713095       1.44388835       0.00000000       0.02303863       0.00280790
H        0.00000000       2.63086785       5.10788786       0.00000000      -0.02303888       0.00280816
H        2.25099972       1.26813154       1.44388830       0.00000000       0.02303888       0.00280790
H        2.25099972       6.52986726       5.10788784       0.00000000      -0.02303888       0.00280816
H        0.00000000       4.22179049       0.14394811       0.00000000       0.01799515      -0.01449254
H        0.00000000       3.57620827       3.80794761       0.00000000      -0.01799541      -0.01449254
H        2.25099972       0.32279104       0.14394810       0.00000000       0.01799541      -0.01449254
H        2.25099972       7.47520771       3.80794761       0.00000000      -0.01799515      -0.01449254
H        3.05248117       5.99900216       7.20039790       0.02384852       0.00086492      -0.01050219
H        1.44951827       1.79899660       3.53639833      -0.02384852      -0.00086466      -0.01050219
H        3.05248118       1.79899660       3.53639833       0.02384852      -0.00086466      -0.01050219
H        1.44951827       5.99900216       7.20039790      -0.02384852       0.00086492      -0.01050219
H        0.80148147       2.10000282       7.20039779       0.02384827       0.00086466      -0.01050193
H        3.70051798       5.69799594       3.53639824      -0.02384827      -0.00086466      -0.01050193
H        0.80148147       5.69799594       3.53639824       0.02384827      -0.00086466      -0.01050193
H        3.70051798       2.10000282       7.20039779      -0.02384827       0.00086466      -0.01050193
24
Lattice="4.501999442219337 0.0 0.0 0.0 7.797998771857516 0.0 0.0 0.0 7.327999034088702" Properties=species:S:1:pos:R:3:forces:R:3 energy=-3755.4545398777673 free_energy=-3755.4545398777673 stress="0.007261708578612464 -0.0 -0.0 -0.0 0.006167264701294716 0.0 -0.0 0.0 0.006312333604496231" pbc="T T T"
O        0.00000000       5.18341135       0.44110980       0.00000000       0.00215690       0.00415105
O        0.00000000       2.61458744       4.10510930       0.00000000      -0.00215844       0.00415310
O        2.25099972       1.28441192       0.44110975       0.00000000       0.00215741       0.00415182
O        2.25099972       6.51358685       4.10510929       0.00000000      -0.00215767       0.00415233
O        2.25099972       6.49569876       6.86228820       0.00000000      -0.02017802      -0.01005378
O        2.25099972       1.30230000       3.19828863       0.00000000       0.02017802      -0.01005378
O        0.00000000       2.59669943       6.86228813       0.00000000      -0.02017802      -0.01005378
O        0.00000000       5.20129934       3.19828858       0.00000000       0.02017827      -0.01005378
H        0.00000000       5.16853007       1.44417110       0.00000000       0.01898014      -0.00279453
H        0.00000000       2.62946873       5.10817063       0.00000000      -0.01898014      -0.00279607
H        2.25099972       1.26953067       1.44417106       0.00000000       0.01898014      -0.00279505
H        2.25099972       6.52846813       5.10817060       0.00000000      -0.01898040      -0.00279556
H        0.00000000       4.22426206       0.14270755       0.00000000       0.01011369      -0.00365328
H        0.00000000       3.57373669       3.80670706       0.00000000      -0.01011215      -0.00365379
H        2.25099972       0.32526263       0.14270754       0.00000000       0.01011343      -0.00365354
H        2.25099972       7.47273613       3.80670705       0.00000000      -0.01011292      -0.00365354
H        3.05430188       5.99717762       7.19905232       0.00267909      -0.00114414       0.00617528
H        1.44769756       1.80082115       3.53505275      -0.00267909       0.00114414       0.00617528
H        3.05430188       1.80082115       3.53505275       0.00267909       0.00114414       0.00617528
H        1.44769756       5.99717762       7.19905232      -0.00267909      -0.00114414       0.00617528
H        0.80330216       2.09817826       7.19905222       0.00267909      -0.00114414       0.00617528
H        3.69869729       5.69982051       3.53505268      -0.00267909       0.00114388       0.00617528
H        0.80330216       5.69982051       3.53505268       0.00267909       0.00114388       0.00617528
H        3.69869729       2.09817826       7.19905222      -0.00267909      -0.00114414       0.00617528
24
Lattice="4.501999442219337 0.0 0.0 0.0 7.797998771857516 0.0 0.0 0.0 7.327999034088702" Properties=species:S:1:pos:R:3:forces:R:3 energy=-3755.454651988669 free_energy=-3755.454651988669 stress="0.007323225138830826 -0.0 -0.0 -0.0 0.00616175575560352 -0.0 -0.0 -0.0 0.006328860441569821" pbc="T T T"
O        0.00000000       5.18361723       0.44118207       0.00000000       0.00517923       0.00053942
O        0.00000000       2.61438152       4.10518161       0.00000000      -0.00517820       0.00053762
O        2.25099972       1.28461782       0.44118204       0.00000000       0.00517897       0.00053890
O        2.25099972       6.51338095       4.10518158       0.00000000      -0.00517872       0.00053839
O        2.25099972       6.49495102       6.86237100       0.00000000      -0.01235878      -0.01450205
O        2.25099972       1.30304774       3.19837144       0.00000000       0.01235878      -0.01450205
O        0.00000000       2.59595169       6.86237094       0.00000000      -0.01235904      -0.01450179
O        0.00000000       5.20204709       3.19837139       0.00000000       0.01235878      -0.01450205
H        0.00000000       5.16917555       1.44423484       0.00000000       0.01570430      -0.00151207
H        0.00000000       2.62882324       5.10823434       0.00000000      -0.01570430      -0.00151078
H        2.25099972       1.27017616       1.44423479       0.00000000       0.01570430      -0.00151155
H        2.25099972       6.52782264       5.10823432       0.00000000      -0.01570430      -0.00151129
H        0.00000000       4.22463515       0.14244481       0.00000000       0.00826841      -0.00061912