36
Lattice="6.919805631741866 -3.99515154426524 2.2218978063541965 0.0 7.99030308853048 2.2218978063541965 -6.919805631741866 -3.99515154426524 2.2218978063541965" Properties=species:S:1:pos:R:3:forces:R:3 energy=-5627.670194151656 free_energy=-5627.670194151656 stress="0.08313458126823435 -0.0 0.0 -0.0 0.08313458126823435 0.0 0.0 0.0 0.061511969430287264" pbc="T T T"
O       -4.02040768      -4.31076903       2.55740472      -1.61356727       3.64244637       2.15946852
O        4.02040768       4.31076986       4.10828953       1.61356727      -3.64244637      -2.15946852
O        5.74343942      -1.32639028       2.55740472      -2.34766735      -3.21861338       2.15946852
O       -5.74344025       1.32639028       4.10828953       2.34766735       3.21861338      -2.15946852
O       -1.72303174       5.63716014       2.55740472       3.96123462      -0.42383299       2.15946852
O        1.72303174      -5.63716014       4.10828953      -3.96123462       0.42383299      -2.15946852
O        1.01029177       2.75665556       3.46616108      -2.43267702       1.72516626      -1.59056283
O       -1.01029177      -2.75665556       3.19953317       2.43267702      -1.72516626       1.59056283
O       -2.89247953      -0.50338933       3.46616108      -0.27769945      -2.96934313      -1.59056283
O        2.89247953       0.50338933       3.19953317       0.27769945       2.96934313       1.59056283
O        1.88218776      -2.25326623       3.46616108       2.71037648       1.24417687      -1.59056283
O       -1.88218776       2.25326540       3.19953317      -2.71037648      -1.24417687       1.59056283
H       -4.46327534      -3.34394256       2.31966134       0.86063102      -2.30156696      -0.59701761
H        4.46327534       3.34394256       4.34603291      -0.86063102       2.30156696       0.59701761
H        5.12757724      -2.19333838       2.31966134       1.56290008       1.89611171      -0.59701761
H       -5.12757724       2.19333838       4.34603291      -1.56290008      -1.89611171       0.59701761
H       -0.66430190       5.53728094       2.31966134      -2.42353110       0.40545526      -0.59701761
H        0.66430190      -5.53728094       4.34603291       2.42353110      -0.40545526       0.59701761
H       -4.04116709      -3.99515237       3.58836550       0.64871735      -1.48891170      -1.77553468
H        4.04116709       3.99515237       3.07732875      -0.64871735       1.48891170       1.77553468
H        5.48048719      -1.50217721       3.58836550       0.96507668       1.30626156      -1.77553468
H       -5.48048719       1.50217721       3.07732875      -0.96507668      -1.30626156       1.77553468
H       -1.43932010       5.49732959       3.58836550      -1.61379404       0.18265014      -1.77553468
H        1.43932010      -5.49732959       3.07732875       1.61379404      -0.18265014       1.77553468
H        2.24201696      -1.24648758       3.36617572      -0.90504271      -2.04722264       0.41147781
H       -2.24201779       1.24648758       3.29951853       0.90504271       2.04722264      -0.41147781
H       -0.04151882       2.56488792       3.36617572       2.22546796       0.23982145       0.41147781
H        0.04151882      -2.56488792       3.29951853      -2.22546796      -0.23982145      -0.41147781
H       -2.20049814      -1.31840034       3.36617572      -1.32042551       1.80740119       0.41147781
H        2.20049814       1.31840034       3.29951853       1.32042551      -1.80740119      -0.41147781
H        2.63644655      -2.77663124       2.89735527      -2.03172506       0.91044537       1.43311439
H       -2.63644655       2.77663124       3.76833898       2.03172506      -0.91044537      -1.43311439
H        1.08641016       3.67154495       2.89735527       0.22739376      -2.21474826       1.43311439
H       -1.08640933      -3.67154495       3.76833898      -0.22739376       2.21474826      -1.43311439
H       -3.72285588      -0.89491371       2.89735527       1.80433129       1.30430264       1.43311439
H        3.72285588       0.89491371       3.76833898      -1.80433129      -1.30430264      -1.43311439
36
Lattice="6.919805631741866 -3.99515154426524 2.2218978063541965 0.0 7.99030308853048 2.2218978063541965 -6.919805631741866 -3.99515154426524 2.2218978063541965" Properties=species:S:1:pos:R:3:forces:R:3 energy=-5631.306460085254 free_energy=-5631.306460085254 stress="0.006865064488846301 -0.0 0.0 -0.0 0.006865064488846301 0.0 0.0 0.0 -0.009266046652592867" pbc="T T T"
O       -4.05361685      -4.23580062       2.60184989      -0.06468099      -0.23756839      -0.22341832
O        4.05361705       4.23580083       4.06384349       0.06468099       0.23756839       0.22341832
O        5.69511946      -1.39263477       2.60184989       0.23808081       0.06276886      -0.22341832
O       -5.69511974       1.39263484       4.06384349      -0.23808081      -0.06276886       0.22341832
O       -1.64150261       5.62843539       2.60184989      -0.17339983       0.17479953      -0.22341832
O        1.64150269      -5.62843567       4.06384349       0.17339983      -0.17479953       0.22341832
O        0.96022294       2.79216156       3.43342400       0.23011013      -0.25931555       0.13945124
O       -0.96022274      -2.79216144       3.23226935      -0.23011013       0.25931555      -0.13945124
O       -2.89819437      -0.56450334       3.43342400       0.10951897       0.32893897       0.13945124
O        2.89819417       0.56450346       3.23226935      -0.10951897      -0.32893897      -0.13945124
O        1.93797143      -2.22765822       3.43342400      -0.33962910      -0.06962342       0.13945124
O       -1.93797143       2.22765798       3.23226935       0.33962910       0.06962342      -0.13945124
H       -4.44556134      -3.39131209       2.30737368      -0.36462022       0.45654230      -0.87409331
H        4.44556124       3.39131208       4.35831969       0.36462022      -0.45654230       0.87409331
H        5.15974316      -2.15431291       2.30737368      -0.21306706      -0.54404157      -0.87409331
H       -5.15974311       2.15431283       4.35831969       0.21306706       0.54404157       0.87409331
H       -0.71418183       5.54562500       2.30737368       0.57768729       0.08749927      -0.87409331
H        0.71418187      -5.54562491       4.35831969      -0.57768729      -0.08749927       0.87409331
H       -4.02781471      -4.02579579       3.55182133       0.41858228      -0.30699229       0.97882129
H        4.02781486       4.02579599       3.11387208      -0.41858228       0.30699229      -0.97882129
H        5.50034886      -1.47529188       3.55182133       0.05657198       0.51599906       0.97882129
H       -5.50034911       1.47529190       3.11387208      -0.05657198      -0.51599906      -0.97882129
H       -1.47253415       5.50108767       3.55182133      -0.47515426      -0.20900678       0.97882129
H        1.47253426      -5.50108789       3.11387208       0.47515426       0.20900678      -0.97882129
H        2.22338950      -1.28862266       3.37464406       0.21544867       0.22054460      -0.00823319
H       -2.22338970       1.28862230       3.29104935      -0.21544867      -0.22054460       0.00823319
H        0.00428524       2.56982307       3.37464406      -0.29872156       0.07631188      -0.00823319
H       -0.00428482      -2.56982307       3.29104935       0.29872156      -0.07631188       0.00823319
H       -2.22767473      -1.28120041       3.37464406       0.08327289      -0.29685649      -0.00823319
H        2.22767453       1.28120077       3.29104935      -0.08327289       0.29685649       0.00823319
H        2.59462944      -2.75789189       2.92685070       0.00610663      -0.06646019      -0.02651707
H       -2.59462944       2.75789177       3.73884268      -0.00610663       0.06646019       0.02651707
H        1.09108977       3.62596090       2.92685070       0.05450302       0.03851872      -0.02651707
H       -1.09108967      -3.62596084       3.73884268      -0.05450302      -0.03851872       0.02651707
H       -3.68571922      -0.86806901       2.92685070      -0.06060964       0.02794172      -0.02651707
H        3.68571911       0.86806907       3.73884268       0.06060964      -0.02794172       0.02651707
36
Lattice="6.919805631741866 -3.99515154426524 2.2218978063541965 0.0 7.99030308853048 2.2218978063541965 -6.919805631741866 -3.99515154426524 2.2218978063541965" Properties=species:S:1:pos:R:3:forces:R:3 energy=-5631.494257274091 free_energy=-5631.494257274091 stress="0.013960586539107664 -0.0 -0.0 -0.0 0.013960586539107664 0.0 -0.0 0.0 0.007079913370802972" pbc="T T T"
O       -4.05594105      -4.23779504       2.59910869      -0.20999177       0.28534257       0.32935394
O        4.05594126       4.23779525       4.06658469       0.20999177      -0.28534257      -0.32935394
O        5.69800878      -1.39365038       2.59910869      -0.14211798      -0.32452927       0.32935394
O       -5.69800906       1.39365045       4.06658469       0.14211798       0.32452927      -0.32935394
O       -1.64206773       5.63144542       2.59910869       0.35210975       0.03918695       0.32935394
O        1.64206781      -5.63144570       4.06658469      -0.35210975      -0.03918695      -0.32935394
O        0.96290368       2.78844577       3.43496906       0.01457764      -0.19804051       0.06064435
O       -0.96290347      -2.78844565       3.23072430      -0.01457764       0.19804051      -0.06064435
O       -2.89631678      -0.56032386       3.43496906       0.16421919       0.11164501       0.06064435
O        2.89631657       0.56032398       3.23072430      -0.16421919      -0.11164501      -0.06064435
O        1.93341310      -2.22812191       3.43496906      -0.17879683       0.08639549       0.06064435
O       -1.93341310       2.22812167       3.23072430       0.17879683      -0.08639549      -0.06064435
H       -4.45185610      -3.38426722       2.29046470      -0.13052668      -0.03770111      -0.51428517
H        4.45185600       3.38426721       4.37522867       0.13052668       0.03770111       0.51428517
H        5.15678950      -2.16328677       2.29046470       0.09791326      -0.09418876      -0.51428517
H       -5.15678945       2.16328669       4.37522867      -0.09791326       0.09418876       0.51428517
H       -0.70493341       5.54755399       2.29046470       0.03261316       0.13188988      -0.51428517
H        0.70493345      -5.54755390       4.37522867      -0.03261316      -0.13188988       0.51428517
H       -4.01946935      -4.03260903       3.56908523       0.31579523      -0.32942054       0.07955739
H        4.01946949       4.03260923       3.09660817      -0.31579523       0.32942054      -0.07955739
H        5.50207662      -1.46465796       3.56908523       0.12738891       0.43819697       0.07955739
H       -5.50207687       1.46465799       3.09660817      -0.12738891      -0.43819697      -0.07955739
H       -1.48260727       5.49726699       3.56908523      -0.44318414      -0.10877643       0.07955739
H        1.48260738      -5.49726722       3.09660817       0.44318414       0.10877643      -0.07955739
H        2.22683789      -1.28585897       3.37476996       0.11898500       0.02059582       0.02885421
H       -2.22683809       1.28585861       3.29092346      -0.11898500      -0.02059582      -0.02885421
H        0.00016762       2.57142762       3.37476996      -0.07732901       0.09274612       0.02885421
H       -0.00016720      -2.57142762       3.29092346       0.07732901      -0.09274612      -0.02885421
H       -2.22700550      -1.28556865       3.37476996      -0.04165598      -0.11334194       0.02885421
H        2.22700530       1.28556901       3.29092346       0.04165598       0.11334194      -0.02885421
H        2.59335565      -2.75852404       2.92732993      -0.06565543      -0.03773608       0.03003511
H       -2.59335565       2.75852392       3.73836345       0.06565543       0.03773608      -0.03003511
H        1.09227413       3.62517384       2.92732993       0.06550811      -0.03799139       0.03003511
H       -1.09227402      -3.62517378       3.73836345      -0.06550811       0.03799139      -0.03003511
H       -3.68562978      -0.86664980       2.92732993       0.00014758       0.07572722       0.03003511
H        3.68562967       0.86664986       3.73836345      -0.00014758      -0.07572722      -0.03003511
36
Lattice="6.919805631741866 -3.99515154426524 2.2218978063541965 0.0 7.99030308853048 2.2218978063541965 -6.919805631741866 -3.99515154426524 2.2218978063541965" Properties=species:S:1:pos:R:3:forces:R:3 energy=-5631.629563159225 free_energy=-5631.629563159225 stress="0.017525792558927132 -0.0 -0.0 -0.0 0.017525792558927132 0.0 -0.0 0.0 0.011947985046590465" pbc="T T T"
O       -4.06483806      -4.22844407       2.60859230      -0.17244286       0.18059789       0.06298894
O        4.06483827       4.22844428       4.05710108       0.17244286      -0.18059789      -0.06298894
O        5.69435911      -1.40603090       2.60859230      -0.07018109      -0.23963890       0.06298894
O       -5.69435939       1.40603097       4.05710108       0.07018109       0.23963890      -0.06298894
O       -1.62952105       5.63447497       2.60859230       0.24262395       0.05904101       0.06298894
O        1.62952113      -5.63447525       4.05710108      -0.24262395      -0.05904101      -0.06298894
O        0.96394915       2.78064397       3.43710418      -0.04657528       0.00873301      -0.08662509
O       -0.96394894      -2.78064385       3.22858917       0.04657528      -0.00873301       0.08662509
O       -2.89008295      -0.55551755       3.43710418       0.01572461      -0.04470171      -0.08662509
O        2.89008275       0.55551767       3.22858917      -0.01572461       0.04470171       0.08662509
O        1.92613380      -2.22512642       3.43710418       0.03085067       0.03596896      -0.08662509
O       -1.92613380       2.22512618       3.22858917      -0.03085067      -0.03596896       0.08662509
H       -4.45971644      -3.38185492       2.26281221      -0.02353639      -0.21325424      -0.07321910
H        4.45971634       3.38185491       4.40288116       0.02353639       0.21325424       0.07321910
H        5.15863056      -2.17130017       2.26281221       0.19645182       0.08624406      -0.07321910
H       -5.15863051       2.17130009       4.40288116      -0.19645182      -0.08624406       0.07321910
H       -0.69891413       5.55315509       2.26281221      -0.17291543       0.12701018      -0.07321910
H        0.69891417      -5.55315500       4.40288116       0.17291543      -0.12701018       0.07321910
H       -4.00371689      -4.04817433       3.58226692       0.15638529      -0.03733499      -0.08192435
H        4.00371703       4.04817453       3.08342649      -0.15638529       0.03733499       0.08192435
H        5.50768034      -1.44323328       3.58226692      -0.04585974       0.15410112      -0.08192435
H       -5.50768059       1.44323331       3.08342649       0.04585974      -0.15410112       0.08192435
H       -1.50396345       5.49140761       3.58226692      -0.11052555      -0.11676614      -0.08192435
H        1.50396356      -5.49140784       3.08342649       0.11052555       0.11676614       0.08192435
H        2.23240660      -1.28437918       3.37595681       0.04257078      -0.04206145       0.06435908
H       -2.23240681       1.28437882       3.28973661      -0.04257078       0.04206145      -0.06435908
H       -0.00389828       2.57551037       3.37595681       0.01514097       0.05789816       0.06435908
H        0.00389869      -2.57551037       3.28973661      -0.01514097      -0.05789816      -0.06435908
H       -2.22850832      -1.29113119       3.37595681      -0.05771175      -0.01583671       0.06435908
H        2.22850812       1.29113155       3.28973661       0.05771175       0.01583671      -0.06435908
H        2.58944871      -2.75967098       2.92929776      -0.19350482       0.04491177       0.12800597
H       -2.58944871       2.75967086       3.73639563       0.19350482      -0.04491177      -0.12800597
H        1.09522088       3.62236380       2.92929776       0.05785753      -0.19003615       0.12800597
H       -1.09522078      -3.62236374       3.73639563      -0.05785753       0.19003615      -0.12800597
H       -3.68466959      -0.86269281       2.92929776       0.13564729       0.14512412       0.12800597
H        3.68466949       0.86269287       3.73639563      -0.13564729      -0.14512412      -0.12800597
36
Lattice="6.919805631741866 -3.99515154426524 2.2218978063541965 0.0 7.99030308853048 2.2218978063541965 -6.919805631741866 -3.99515154426524 2.2218978063541965" Properties=species:S:1:pos:R:3:forces:R:3 energy=-5631.651859895051 free_energy=-5631.651859895051 stress="0.01438477535732981 -0.0 0.0 -0.0 0.01438477535732981 0.0 0.0 0.0 0.012985503151765845" pbc="T T T"
O       -4.07135434      -4.22280866       2.61078884      -0.02891874      -0.08659013       0.12272441
O        4.07135455       4.22280887       4.05490454       0.02891874       0.08659013      -0.12272441
O        5.69273684      -1.41449187       2.61078884       0.08944842       0.01825072       0.12272441
O       -5.69273712       1.41449195       4.05490454      -0.08944842      -0.01825072      -0.12272441
O       -1.62138249       5.63730053       2.61078884      -0.06052994       0.06833941       0.12272441
O        1.62138257      -5.63730082       4.05490454       0.06052994      -0.06833941      -0.12272441
O        0.96347955       2.77889954       3.43541985      -0.05132308      -0.18463118       0.03936590
O       -0.96347934      -2.77889942       3.23027350       0.05132308       0.18463118      -0.03936590
O       -2.88833743      -0.55505202       3.43541985       0.18555677       0.04786854       0.03936590
O        2.88833722       0.55505214       3.23027350      -0.18555677      -0.04786854      -0.03936590
O        1.92485788      -2.22384752       3.43541985      -0.13423370       0.13676263       0.03936590
O       -1.92485788       2.22384728       3.23027350       0.13423370      -0.13676263      -0.03936590
H       -4.46315391      -3.38528800       2.25229989      -0.08753552      -0.04649377       0.01066725
H        4.46315381       3.38528799       4.41339348       0.08753552       0.04649377      -0.01066725
H        5.16332243      -2.17256057       2.25229989       0.08403265      -0.05256106       0.01066725
H       -5.16332238       2.17256049       4.41339348      -0.08403265       0.05256106      -0.01066725
H       -0.70016852       5.55784857       2.25229989       0.00350287       0.09905483       0.01066725
H        0.70016857      -5.55784848       4.41339348      -0.00350287      -0.09905483      -0.01066725
H       -3.99503384      -4.05325684       3.58677222       0.07803992       0.07018880      -0.20961587
H        3.99503399       4.05325704       3.07892119      -0.07803992      -0.07018880       0.20961587
H        5.50774040      -1.43317229       3.58677222      -0.09980534       0.03249026      -0.20961587
H       -5.50774065       1.43317231       3.07892119       0.09980534      -0.03249026       0.20961587
H       -1.51270656       5.48642913       3.58677222       0.02176516      -0.10267906      -0.20961587
H        1.51270666      -5.48642936       3.07892119      -0.02176516       0.10267906       0.20961587
H        2.23521185      -1.28462394       3.37788682       0.03562829      -0.02619286       0.06341960
H       -2.23521206       1.28462358       3.28780660      -0.03562829       0.02619286      -0.06341960
H       -0.00508893       2.57806216       3.37788682       0.00486967       0.04395147       0.06341960
H        0.00508935      -2.57806216       3.28780660      -0.00486967      -0.04395147      -0.06341960
H       -2.23012292      -1.29343823       3.37788682      -0.04049796      -0.01775835       0.06341960
H        2.23012271       1.29343859       3.28780660       0.04049796       0.01775835      -0.06341960
H        2.58328464      -2.75874681       2.93319522      -0.01934807      -0.08174977      -0.00128272
H       -2.58328464       2.75874669       3.73249817       0.01934807       0.08174977       0.00128272
H        1.09750256       3.61656348       2.93319522       0.08047142       0.02411926      -0.00128272
H       -1.09750246      -3.61656342       3.73249817      -0.08047142      -0.02411926       0.00128272
H       -3.68078721      -0.85781666       2.93319522      -0.06112361       0.05763076      -0.00128272
H        3.68078710       0.85781672       3.73249817       0.06112361      -0.05763076       0.00128272
36
Lattice="6.919805631741866 -3.99515154426524 2.2218978063541965 0.0 7.99030308853048 2.2218978063541965 -6.919805631741866 -3.99515154426524 2.2218978063541965" Properties=species:S:1:pos:R:3:forces:R:3 energy=-5631.663848142326 free_energy=-5631.663848142326 stress="0.014730920778260003 -0.0 0.0 -0.0 0.014730920778260003 0.0 0.0 0.0 0.011248348943808481" pbc="T T T"
O       -4.07418003      -4.22323305       2.61345546      -0.04385402      -0.09792586      -0.08697579
O        4.07418024       4.22323326       4.05223792       0.04385402       0.09792586       0.08697579
O        5.69451721      -1.41672679       2.61345546       0.10673343       0.01098427      -0.08697579
O       -5.69451750       1.41672687       4.05223792      -0.10673343      -0.01098427       0.08697579
O       -1.62033718       5.63995984       2.61345546      -0.06287916       0.08694185      -0.08697579
O        1.62033726      -5.63996013       4.05223792       0.06287916      -0.08694185       0.08697579
O        0.96245305       2.77434575       3.43565458       0.05468916      -0.04717203      -0.01364227
O       -0.96245284      -2.77434563       3.23003877      -0.05468916       0.04717203       0.01364227
O       -2.88388048      -0.55366410       3.43565458       0.01350755       0.07094831      -0.01364227
O        2.88388027       0.55366422       3.23003877      -0.01350755      -0.07094831       0.01364227
O        1.92142743      -2.22068164       3.43565458      -0.06819671      -0.02377628      -0.01364227
O       -1.92142743       2.22068140       3.23003877       0.06819671       0.02377628       0.01364227
H       -4.46645928      -3.38716597       2.24864773      -0.06375873      -0.08250721       0.06466067
H        4.46645918       3.38716596       4.41704564       0.06375873       0.08250721      -0.06466067
H        5.16660149      -2.17448412       2.24864773       0.10333289      -0.01396315       0.06466067
H       -5.16660143       2.17448404       4.41704564      -0.10333289       0.01396315      -0.06466067
H       -0.70014221       5.56165009       2.24864773      -0.03957391       0.09647036       0.06466067
H        0.70014225      -5.56165000       4.41704564       0.03957391      -0.09647036      -0.06466067
H       -3.99018958      -4.05335887       3.58472011       0.06329130       0.11949793      -0.05802543
H        3.99018972       4.05335907       3.08097330      -0.06329130      -0.11949793       0.05802543
H        5.50540663      -1.42892602       3.58472011      -0.13513384      -0.00493703      -0.05802543
H       -5.50540688       1.42892604       3.08097330       0.13513384       0.00493703       0.05802543
H       -1.51521705       5.48228489       3.58472011       0.07184254      -0.11456090      -0.05802543
H        1.51521715      -5.48228511       3.08097330      -0.07184254       0.11456090       0.05802543
H        2.23708111      -1.28506187       3.37993479       0.04655394       0.05661492       0.05532757
H       -2.23708132       1.28506151       3.28575863      -0.04655394      -0.05661492      -0.05532757
H       -0.00564431       2.57989996       3.37993479      -0.07230688       0.01200937       0.05532757
H        0.00564472      -2.57989996       3.28575863       0.07230688      -0.01200937      -0.05532757
H       -2.23143680      -1.29483809       3.37993479       0.02575294      -0.06862429       0.05532757
H        2.23143660       1.29483845       3.28575863      -0.02575294       0.06862429      -0.05532757
H        2.58062457      -2.76014444       2.93458618      -0.08872671      -0.01536363       0.05052732
H       -2.58062457       2.76014432       3.73110721       0.08872671       0.01536363      -0.05052732
H        1.10004297       3.61495860       2.93458618       0.05766882      -0.06915779       0.05052732
H       -1.10004287      -3.61495854       3.73110721      -0.05766882       0.06915779      -0.05052732
H       -3.68066755      -0.85481416       2.93458618       0.03105790       0.08452142       0.05052732
H        3.68066744       0.85481422       3.73110721      -0.03105790      -0.08452142      -0.05052732
36
Lattice="6.919805631741866 -3.99515154426524 2.2218978063541965 0.0 7.99030308853048 2.2218978063541965 -6.919805631741866 -3.99515154426524 2.2218978063541965" Properties=species:S:1:pos:R:3:forces:R:3 energy=-5631.684237224086 free_energy=-5631.684237224086 stress="0.014995350171437445 0.0 -0.0 0.0 0.014995350171437445 0.0 -0.0 0.0 0.009145768005001739" pbc="T T T"
O       -4.07977467      -4.22631667       2.61429131      -0.02335307      -0.14476545      -0.22012680
O        4.07977488       4.22631687       4.05140207       0.02335307       0.14476545       0.22012680
O        5.69998503      -1.42003009       2.61429131       0.13704725       0.05215843      -0.22012680
O       -5.69998531       1.42003016       4.05140207      -0.13704725      -0.05215843       0.22012680
O       -1.62021035       5.64634675       2.61429131      -0.11369418       0.09260702      -0.22012680
O        1.62021043      -5.64634704       4.05140207       0.11369418      -0.09260702       0.22012680
O        0.96295020       2.76700381       3.43529734       0.02869711       0.01120898      -0.02510554
O       -0.96294999      -2.76700369       3.23039601      -0.02869711      -0.01120898       0.02510554
O       -2.87777075      -0.54956259       3.43529734      -0.02405576       0.01924805      -0.02510554
O        2.87777054       0.54956271       3.23039601       0.02405576      -0.01924805       0.02510554
O        1.91482055      -2.21744122       3.43529734      -0.00464136      -0.03045703      -0.02510554
O       -1.91482055       2.21744098       3.23039601       0.00464136       0.03045703       0.02510554
H       -4.47278017      -3.39304009       2.24600089      -0.07149595      -0.04862676       0.05892017
H        4.47278007       3.39304008       4.41969248       0.07149595       0.04862676      -0.05892017
H        5.17484907      -2.17702111       2.24600089       0.07785995      -0.03760393       0.05892017
H       -5.17484901       2.17702103       4.41969248      -0.07785995       0.03760393      -0.05892017
H       -0.70206890       5.57006119       2.24600089      -0.00636399       0.08623069       0.05892017
H        0.70206894      -5.57006111       4.41969248       0.00636399      -0.08623069      -0.05892017
H       -3.98149731      -4.04967726       3.57974181       0.04620324       0.13250797       0.07680528
H        3.98149745       4.04967746       3.08595160      -0.04620324      -0.13250797      -0.07680528
H        5.49787212      -1.42323910       3.57974181      -0.13785690      -0.02624068       0.07680528
H       -5.49787237       1.42323912       3.08595160       0.13785690       0.02624068      -0.07680528
H       -1.51637482       5.47291636       3.57974181       0.09165366      -0.10626704       0.07680528
H        1.51637492      -5.47291658       3.08595160      -0.09165366       0.10626704      -0.07680528
H        2.24116245      -1.28377077       3.38453805       0.00668924       0.02266350       0.04616879
H       -2.24116266       1.28377041       3.28115537      -0.00668924      -0.02266350      -0.04616879
H       -0.00880310       2.58278896       3.38453805      -0.02297178      -0.00553867       0.04616879
H        0.00880351      -2.58278896       3.28115537       0.02297178       0.00553867      -0.04616879
H       -2.23235936      -1.29901818       3.38453805       0.01628254      -0.01712458       0.04616879
H        2.23235915       1.29901854       3.28115537      -0.01628254       0.01712458      -0.04616879
H        2.57378256      -2.76230096       2.93837291      -0.10573225       0.01646740       0.06059216
H       -2.57378256       2.76230084       3.72732048       0.10573225      -0.01646740      -0.06059216
H        1.10533158       3.61011151       2.93837291       0.03860486      -0.09980071       0.06059216
H       -1.10533148      -3.61011145       3.72732048      -0.03860486       0.09980071      -0.06059216
H       -3.67911415      -0.84781055       2.93837291       0.06712739       0.08333331       0.06059216
H        3.67911404       0.84781061       3.72732048      -0.06712739      -0.08333331      -0.06059216
36
Lattice="6.919805631741866 -3.99515154426524 2.2218978063541965 0.0 7.99030308853048 2.2218978063541965 -6.919805631741866 -3.99515154426524 2.2218978063541965" Properties=species:S:1:pos:R:3:forces:R:3 energy=-5631.703798943719 free_energy=-5631.703798943719 stress="0.014731838935875203 0.0 0.0 0.0 0.014731838935875203 0.0 0.0 0.0 0.009097105651396167" pbc="T T T"
O       -4.08557299      -4.23133111       2.61297185       0.00117268      -0.13681791      -0.20565097
O        4.08557320       4.23133132       4.05272153      -0.00117268       0.13681791       0.20565097
O        5.70722682      -1.42254436       2.61297185       0.11790154       0.06942441      -0.20565097
O       -5.70722710       1.42254443       4.05272153      -0.11790154      -0.06942441       0.20565097
O       -1.62165383       5.65387547       2.61297185      -0.11907422       0.06739350      -0.20565097