36
Lattice="6.491374676997684 -3.747796823403464 2.0843318328023193 0.0 7.495593646806928 2.0843318328023193 -6.491374676997684 -3.747796823403464 2.0843318328023193" Properties=species:S:1:pos:R:3:forces:R:3 energy=-5630.737776584864 free_energy=-5630.737776584864 stress="0.020956947566927484 -0.0 0.0 -0.0 0.020956947566927484 0.0 0.0 0.0 -0.0003791990950773736" pbc="T T T"
O       -3.77148926      -4.04387325       2.39906626      -0.88633948       1.63864195       0.78726125
O        3.77148926       4.04387403       3.85393002       0.88633948      -1.63864195      -0.78726125
O        5.38784168      -1.24426851       2.39906626      -0.97593574      -1.58691341       0.78726125
O       -5.38784246       1.24426851       3.85393002       0.97593574       1.58691341      -0.78726125
O       -1.61635243       5.28814255       2.39906626       1.86227522      -0.05172828       0.78726125
O        1.61635243      -5.28814255       3.85393002      -1.86227522       0.05172828      -0.78726125
O        0.94774084       2.58598074       3.25155813      -0.79276289       0.61294817      -0.54838494
O       -0.94774084      -2.58598074       3.00143815       0.79276289      -0.61294817       0.54838494
O       -2.71339535      -0.47222262       3.25155813      -0.13444710      -0.99302689      -0.54838494
O        2.71339535       0.47222262       3.00143815       0.13444710       0.99302689       0.54838494
O        1.76565450      -2.11375812       3.25155813       0.92721025       0.38007872      -0.54838494
O       -1.76565450       2.11375735       3.00143815      -0.92721025      -0.38007872       0.54838494
H       -4.18693733      -3.13690661       2.17604246       0.08214366      -0.66668114      -1.31805572
H        4.18693733       3.13690661       4.07695381      -0.08214366       0.66668114       1.31805572
H        4.81010983      -2.05754063       2.17604246       0.53629098       0.40447926      -1.31805572
H       -4.81010983       2.05754063       4.07695381      -0.53629098      -0.40447926       1.31805572
H       -0.62317250       5.19444724       2.17604246      -0.61843464       0.26220213      -1.31805572
H        0.62317250      -5.19444724       4.07695381       0.61843464      -0.26220213       1.31805572
H       -3.79096337      -3.74779760       3.36619642       0.76439231      -1.14963895       0.26089549
H        3.79096337       3.74779760       2.88679986      -0.76439231       1.14963895      -0.26089549
H        5.14116980      -1.40917182       3.36619642       0.61342048       1.23680244       0.26089549
H       -5.14116980       1.40917182       2.88679986      -0.61342048      -1.23680244      -0.26089549
H       -1.35020643       5.15696942       3.36619642      -1.37781253      -0.08716374       0.26089549
H        1.35020643      -5.15696942       2.88679986       1.37781253       0.08716374      -0.26089549
H        2.10320533      -1.16931289       3.15776323      -0.35283763      -0.06256522       0.32416520
H       -2.10320611       1.16931289       3.09523304       0.35283763       0.06256522      -0.32416520
H       -0.03894823       2.40608615       3.15776323       0.23060199      -0.27428374       0.32416520
H        0.03894823      -2.40608615       3.09523304      -0.23060199       0.27428374      -0.32416520
H       -2.06425710      -1.23677326       3.15776323       0.12223564       0.33684897       0.32416520
H        2.06425710       1.23677326       3.09523304      -0.12223564      -0.33684897      -0.32416520
H        2.47321432      -2.60471965       2.71796921      -0.73826322      -0.24052284       0.41776673
H       -2.47321432       2.60471965       3.53502707       0.73826322       0.24052284      -0.41776673
H        1.01914645       3.44422592       2.71796921       0.57743043      -0.51909313       0.41776673
H       -1.01914568      -3.44422592       3.53502707      -0.57743043       0.51909313      -0.41776673
H       -3.49236000      -0.83950627       2.71796921       0.16083279       0.75961597       0.41776673
H        3.49236000       0.83950627       3.53502707      -0.16083279      -0.75961597      -0.41776673
36
Lattice="6.491374676997684 -3.747796823403464 2.0843318328023193 0.0 7.495593646806928 2.0843318328023193 -6.491374676997684 -3.747796823403464 2.0843318328023193" Properties=species:S:1:pos:R:3:forces:R:3 energy=-5631.561000404039 free_energy=-5631.561000404039 stress="-0.00793747258339926 -0.0 0.0 -0.0 -0.00793747258339926 -0.0 0.0 -0.0 -0.021462852412902383" pbc="T T T"
O       -3.78973088      -4.01014662       2.41526907      -0.12924704      -0.03104453       0.15268959
O        3.78973107       4.01014681       3.83772638       0.12924704       0.03104453      -0.15268959
O        5.36775437      -1.27692982       2.41526907       0.09150890      -0.09640891       0.15268959
O       -5.36775464       1.27692990       3.83772638      -0.09150890       0.09640891      -0.15268959
O       -1.57802349       5.28707644       2.41526907       0.03773814       0.12745344       0.15268959
O        1.57802356      -5.28707671       3.83772638      -0.03773814      -0.12745344      -0.15268959
O        0.93142427       2.59859544       3.24027090      -0.04936621      -0.21562608       0.05219828
O       -0.93142407      -2.59859532       3.01272454       0.04936621       0.21562608      -0.05219828
O       -2.71616185      -0.49266066       3.24027090       0.21142078       0.06506048       0.05219828
O        2.71616166       0.49266077       3.01272454      -0.21142078      -0.06506048      -0.05219828
O        1.78473759      -2.10593478       3.24027090      -0.16205458       0.15056560       0.05219828
O       -1.78473759       2.10593455       3.01272454       0.16205458      -0.15056560      -0.05219828
H       -4.18524598      -3.15062743       2.14891460      -0.40657369       0.45063725      -1.15283869
H        4.18524588       3.15062742       4.10408085       0.40657369      -0.45063725       1.15283869
H        4.82114645      -2.04921553       2.14891460      -0.18697654      -0.57742169      -1.15283869
H       -4.82114640       2.04921545       4.10408085       0.18697654       0.57742169       1.15283869
H       -0.63590047       5.19984296       2.14891460       0.59355022       0.12678470      -1.15283869
H        0.63590051      -5.19984288       4.10408085      -0.59355022      -0.12678470       1.15283869
H       -3.77523025      -3.77145825       3.37156551       0.56542904      -0.55557940       0.80651855
H        3.77523039       3.77145844       2.88142997      -0.56542904       0.55557940      -0.80651855
H        5.15379386      -1.38371609       3.37156551       0.19843157       0.76746581       0.80651855
H       -5.15379410       1.38371612       2.88142997      -0.19843157      -0.76746581      -0.80651855
H       -1.37856361       5.15517435       3.37156551      -0.76386061      -0.21188615       0.80651855
H        1.37856371      -5.15517456       2.88142997       0.76386061       0.21188615      -0.80651855
H        2.09594320      -1.17060034       3.16443458       0.01809311       0.42743613       0.17466944
H       -2.09594340       1.17060000       3.08856092      -0.01809311      -0.42743613      -0.17466944
H       -0.03420195       2.40044018       3.16443458      -0.37921715      -0.19804899       0.17466944
H        0.03420234      -2.40044018       3.08856092       0.37921715       0.19804899      -0.17466944
H       -2.06174126      -1.22983985       3.16443458       0.36112404      -0.22938714       0.17466944
H        2.06174106       1.22984018       3.08856092      -0.36112404       0.22938714      -0.17466944
H        2.45801892      -2.60966925       2.72656708       0.03280471      -0.51136054      -0.11540165
H       -2.45801892       2.60966914       3.52642839      -0.03280471       0.51136054       0.11540165
H        1.03103046       3.43354140       2.72656708       0.42644883       0.28408993      -0.11540165
H       -1.03103037      -3.43354134       3.52642839      -0.42644883      -0.28408993       0.11540165
H       -3.48904938      -0.82387215       2.72656708      -0.45925353       0.22727061      -0.11540165
H        3.48904929       0.82387221       3.52642839       0.45925353      -0.22727061       0.11540165
36
Lattice="6.491374676997684 -3.747796823403464 2.0843318328023193 0.0 7.495593646806928 2.0843318328023193 -6.491374676997684 -3.747796823403464 2.0843318328023193" Properties=species:S:1:pos:R:3:forces:R:3 energy=-5632.069790151914 free_energy=-5632.069790151914 stress="-0.0031309174678301305 0.0 -0.0 0.0 -0.0031309174678301305 -0.0 -0.0 -0.0 -0.010200731104865909" pbc="T T T"
O       -3.80212435      -3.99460694       2.42731188      -0.03583629      -0.17317434      -0.01194689
O        3.80212454       3.99460713       3.82568358       0.03583629       0.17317434       0.01194689
O        5.36049335      -1.29543272       2.42731188       0.16789149       0.05555203      -0.01194689
O       -5.36049361       1.29543279       3.82568358      -0.16789149      -0.05555203       0.01194689
O       -1.55836900       5.29003966       2.42731188      -0.13205520       0.11762231      -0.01194689
O        1.55836907      -5.29003993       3.82568358       0.13205520      -0.11762231       0.01194689
O        0.92214803       2.59883693       3.23621214       0.18684644      -0.20401241       0.04605334
O       -0.92214784      -2.59883681       3.01678329      -0.18684644       0.20401241      -0.04605334
O       -2.71173287      -0.50081486       3.23621214       0.08325669       0.26381987       0.04605334
O        2.71173268       0.50081498       3.01678329      -0.08325669      -0.26381987      -0.04605334
O        1.78958484      -2.09802206       3.23621214      -0.27010313      -0.05980772       0.04605334
O       -1.78958484       2.09802184       3.01678329       0.27010313       0.05980772      -0.04605334
H       -4.19552732      -3.14498854       2.10425117      -0.25119421       0.19394911      -0.45674259
H        4.19552723       3.14498853       4.14874428       0.25119421      -0.19394911       0.45674259
H        4.82140370      -2.06093888       2.10425117      -0.04236767      -0.31451534      -0.45674259
H       -4.82140364       2.06093880       4.14874428       0.04236767       0.31451534       0.45674259
H       -0.62587638       5.20592742       2.10425117       0.29356213       0.12056597      -0.45674259
H        0.62587642      -5.20592733       4.14874428      -0.29356213      -0.12056597       0.45674259
H       -3.75214495      -3.79812729       3.39619927       0.31197046      -0.11840213       0.32169154
H        3.75214509       3.79812748       2.85679622      -0.31197046       0.11840213      -0.32169154
H        5.16534728      -1.35038912       3.39619927      -0.05344604       0.32937528       0.32169154
H       -5.16534751       1.35038915       2.85679622       0.05344604      -0.32937528      -0.32169154
H       -1.41320232       5.14851641       3.39619927      -0.25852442      -0.21097341       0.32169154
H        1.41320242      -5.14851662       2.85679622       0.25852442       0.21097341      -0.32169154
H        2.09290870      -1.15955348       3.17244636       0.14437130       0.35917334       0.10470303
H       -2.09290889       1.15955315       3.08054914      -0.14437130      -0.35917334      -0.10470303
H       -0.04225155       2.39228880       3.17244636      -0.38323887      -0.05455752       0.10470303
H        0.04225194      -2.39228880       3.08054914       0.38323887       0.05455752      -0.10470303
H       -2.05065715      -1.23273531       3.17244636       0.23886757      -0.30461582       0.10470303
H        2.05065695       1.23273565       3.08054914      -0.23886757       0.30461582      -0.10470303
H        2.45153167      -2.62603900       2.72759359       0.04796470      -0.26960845      -0.08590390
H       -2.45153167       2.62603889       3.52540188      -0.04796470       0.26960845       0.08590390
H        1.04845071       3.43610815       2.72759359       0.20950531       0.17634297      -0.08590390
H       -1.04845062      -3.43610809       3.52540188      -0.20950531      -0.17634297       0.08590390
H       -3.49998238      -0.81006915       2.72759359      -0.25747001       0.09326548      -0.08590390
H        3.49998228       0.81006920       3.52540188       0.25747001      -0.09326548       0.08590390
36
Lattice="6.491374676997684 -3.747796823403464 2.0843318328023193 0.0 7.495593646806928 2.0843318328023193 -6.491374676997684 -3.747796823403464 2.0843318328023193" Properties=species:S:1:pos:R:3:forces:R:3 energy=-5632.182266910497 free_energy=-5632.182266910497 stress="0.0069256628914494646 -0.0 -0.0 -0.0 0.0069256628914494646 0.0 -0.0 0.0 0.0006197563902596299" pbc="T T T"
O       -3.81024168      -3.98832499       2.43319221      -0.01778535      -0.13422393      -0.03771166
O        3.81024188       3.98832518       3.81980325       0.01778535       0.13422393       0.03771166
O        5.35911169      -1.30560352       2.43319221       0.12513405       0.05170926      -0.03771166
O       -5.35911195       1.30560359       3.81980325      -0.12513405      -0.05170926       0.03771166
O       -1.54887000       5.29392850       2.43319221      -0.10734844       0.08251441      -0.03771166
O        1.54887007      -5.29392877       3.81980325       0.10734844      -0.08251441       0.03771166
O        0.92231479       2.59596964       3.23384433      -0.09223704      -0.15724378      -0.05202062
O       -0.92231460      -2.59596953       3.01915111       0.09223704       0.15724378       0.05202062
O       -2.70933311      -0.49923680       3.23384433       0.18229559      -0.00125778      -0.05202062
O        2.70933291       0.49923691       3.01915111      -0.18229559       0.00125778       0.05202062
O        1.78701831      -2.09673284       3.23384433      -0.09005854       0.15850157      -0.05202062
O       -1.78701831       2.09673262       3.01915111       0.09005854      -0.15850157       0.05202062
H       -4.20445060      -3.14213430       2.07593770      -0.11261972      -0.04591502      -0.01042788
H        4.20445051       3.14213429       4.17705775       0.11261972       0.04591502       0.01042788
H        4.82339349      -2.07009379       2.07593770       0.09607338      -0.07457408      -0.01042788
H       -4.82339344       2.07009371       4.17705775      -0.09607338       0.07457408       0.01042788
H       -0.61894289       5.21222808       2.07593770       0.01654633       0.12048909      -0.01042788
H        0.61894293      -5.21222800       4.17705775      -0.01654633      -0.12048909       0.01042788
H       -3.73448470      -3.81221124       3.41119891       0.14579055       0.10359900      -0.06961313
H        3.73448484       3.81221143       2.84179657      -0.14579055      -0.10359900       0.06961313
H        5.16871421      -1.32805292       3.41119891      -0.16261482       0.07445889      -0.06961313
H       -5.16871445       1.32805294       2.84179657       0.16261482      -0.07445889       0.06961313
H       -1.43422951       5.14026416       3.41119891       0.01682427      -0.17805789      -0.06961313
H        1.43422961      -5.14026438       2.84179657      -0.01682427       0.17805789       0.06961313
H        2.09512536      -1.14685804       3.17882651       0.06230991      -0.07872641       0.09449293
H       -2.09512556       1.14685770       3.07416899      -0.06230991       0.07872641      -0.09449293
H       -0.05435446       2.38786076       3.17882651       0.03702414       0.09332513       0.09449293
H        0.05435485      -2.38786076       3.07416899      -0.03702414      -0.09332513      -0.09449293
H       -2.04077090      -1.24100272       3.17882651      -0.09933406      -0.01459872       0.09449293
H        2.04077070       1.24100306       3.07416899       0.09933406       0.01459872      -0.09449293
H        2.44776665      -2.63827036       2.72748965      -0.04308012      -0.06425238      -0.00002160
H       -2.44776665       2.63827024       3.52550582       0.04308012       0.06425238       0.00002160
H        1.06092588       3.43896323       2.72748965       0.07718426      -0.00518232      -0.00002160
H       -1.06092578      -3.43896317       3.52550582      -0.07718426       0.00518232       0.00002160
H       -3.50869253      -0.80069287       2.72748965      -0.03410414       0.06943470      -0.00002160
H        3.50869244       0.80069293       3.52550582       0.03410414      -0.06943470       0.00002160
36
Lattice="6.491374676997684 -3.747796823403464 2.0843318328023193 0.0 7.495593646806928 2.0843318328023193 -6.491374676997684 -3.747796823403464 2.0843318328023193" Properties=species:S:1:pos:R:3:forces:R:3 energy=-5632.195609332291 free_energy=-5632.195609332291 stress="0.00733607934544362 0.0 0.0 0.0 0.00733607934544362 0.0 0.0 0.0 0.002484534506729716" pbc="T T T"
O       -3.81147106      -3.99032274       2.43302492      -0.03730568      -0.06116423      -0.05066179
O        3.81147126       3.99032293       3.81997054       0.03730568       0.06116423       0.05066179
O        5.36145648      -1.30566931       2.43302492       0.07162271      -0.00172572      -0.05066179
O       -5.36145675       1.30566939       3.81997054      -0.07162271       0.00172572       0.05066179
O       -1.54998542       5.29599205       2.43302492      -0.03431677       0.06288970      -0.05066179
O        1.54998549      -5.29599232       3.81997054       0.03431677      -0.06288970       0.05066179
O        0.92015756       2.59251835       3.23240323       0.07706830      -0.00897932      -0.08759491
O       -0.92015737      -2.59251824       3.02059220      -0.07706830       0.00897932       0.08759491
O       -2.70526559      -0.49937937       3.23240323      -0.03075785       0.07123267      -0.08759491
O        2.70526540       0.49937948       3.02059220       0.03075785      -0.07123267       0.08759491
O        1.78510803      -2.09313898       3.23240323      -0.04631045      -0.06225361      -0.08759491
O       -1.78510803       2.09313876       3.02059220       0.04631045       0.06225361       0.08759491
H       -4.20753627      -3.14308331       2.07322705      -0.07572927      -0.11248756       0.03200766
H        4.20753618       3.14308331       4.17976841       0.07572927       0.11248756      -0.03200766
H        4.82575820      -2.07229155       2.07322705       0.13528168      -0.00933953       0.03200766
H       -4.82575815       2.07229147       4.17976841      -0.13528168       0.00933953      -0.03200766
H       -0.61822193       5.21537486       2.07322705      -0.05955266       0.12182735       0.03200766
H        0.61822197      -5.21537478       4.17976841       0.05955266      -0.12182735      -0.03200766
H       -3.72980081      -3.81133754       3.41090154       0.12173531       0.09997580      -0.09774254
H        3.72980094       3.81133773       2.84209395      -0.12173531      -0.09997580       0.09774254
H        5.16561562      -1.32443340       3.41090154      -0.14744917       0.05543787      -0.09774254
H       -5.16561585       1.32443342       2.84209395       0.14744917      -0.05543787       0.09774254
H       -1.43581481       5.13577094       3.41090154       0.02571386      -0.15541367      -0.09774254
H        1.43581491      -5.13577115       2.84209395      -0.02571386       0.15541367       0.09774254
H        2.09655675      -1.14758725       3.18143192       0.09432323       0.04017657       0.07309646
H       -2.09655694       1.14758692       3.07156357      -0.09432323      -0.04017657      -0.07309646
H       -0.05443863       2.38946499       3.18143192      -0.08195546       0.06159798       0.07309646
H        0.05443902      -2.38946499       3.07156357       0.08195546      -0.06159798      -0.07309646
H       -2.04211812      -1.24187773       3.18143192      -0.01236752      -0.10177455       0.07309646
H        2.04211792       1.24187807       3.07156357       0.01236752       0.10177455      -0.07309646
H        2.44636314      -2.64064781       2.72758777      -0.10747494       0.02001912       0.05250038
H       -2.44636314       2.64064770       3.52540770       0.10747494      -0.02001912      -0.05250038
H        1.06368658       3.43893648       2.72758777       0.03640039      -0.10308555       0.05250038
H       -1.06368648      -3.43893642       3.52540770      -0.03640039       0.10308555      -0.05250038
H       -3.51004971      -0.79828866       2.72758777       0.07107455       0.08306643       0.05250038
H        3.51004962       0.79828872       3.52540770      -0.07107455      -0.08306643      -0.05250038
36
Lattice="6.491374676997684 -3.747796823403464 2.0843318328023193 0.0 7.495593646806928 2.0843318328023193 -6.491374676997684 -3.747796823403464 2.0843318328023193" Properties=species:S:1:pos:R:3:forces:R:3 energy=-5632.208541134301 free_energy=-5632.208541134301 stress="0.007701506076293001 -0.0 -0.0 -0.0 0.007701506076293001 0.0 -0.0 0.0 0.003414628170926761" pbc="T T T"
O       -3.81276926      -3.99249741       2.43225260      -0.04328118      -0.01305735      -0.03548894
O        3.81276945       3.99249761       3.82074286       0.04328118       0.01305735       0.03548894
O        5.36398890      -1.30570625       2.43225260       0.03294869      -0.03095377      -0.03548894
O       -5.36398916       1.30570632       3.82074286      -0.03294869       0.03095377       0.03548894
O       -1.55121964       5.29820366       2.43225260       0.01033249       0.04401137      -0.03548894
O        1.55121971      -5.29820392       3.82074286      -0.01033249      -0.04401137       0.03548894
O        0.91990219       2.59010779       3.23035228       0.09857532       0.00589323      -0.06901535
O       -0.91990200      -2.59010768       3.02264316      -0.09857532      -0.00589323       0.06901535
O       -2.70305030      -0.49839525       3.23035228      -0.05439143       0.08242211      -0.06901535
O        2.70305010       0.49839536       3.02264316       0.05439143      -0.08242211       0.06901535
O        1.78314810      -2.09171254       3.23035228      -0.04418415      -0.08831534      -0.06901535
O       -1.78314810       2.09171232       3.02264316       0.04418415       0.08831534       0.06901535
H       -4.21067403      -3.14501264       2.07156249      -0.05555614      -0.14179120       0.04592993
H        4.21067394       3.14501263       4.18143296       0.05555614       0.14179120      -0.04592993
H        4.82899792      -2.07404427       2.07156249       0.15057280       0.02278255       0.04592993
H       -4.82899787       2.07404419       4.18143296      -0.15057280      -0.02278255      -0.04592993
H       -0.61832389       5.21905691       2.07156249      -0.09501666       0.11900865       0.04592993
H        0.61832393      -5.21905682       4.18143296       0.09501666      -0.11900865      -0.04592993
H       -3.72500033      -3.80958899       3.40968715       0.10232168       0.08423628      -0.12336744
H        3.72500047       3.80958918       2.84330833      -0.10232168      -0.08423628       0.12336744
H        5.16170109      -1.32115034       3.40968715      -0.12411178       0.04649506      -0.12336744
H       -5.16170133       1.32115037       2.84330833       0.12411178      -0.04649506       0.12336744
H       -1.43670076       5.13073933       3.40968715       0.02179010      -0.13073134      -0.12336744
H        1.43670086      -5.13073955       2.84330833      -0.02179010       0.13073134       0.12336744
H        2.09878188      -1.14729139       3.18412192       0.08749747       0.04585511       0.05926239
H       -2.09878207       1.14729106       3.06887358      -0.08749747      -0.04585511      -0.05926239
H       -0.05580742       2.39124407       3.18412192      -0.08346058       0.05284748       0.05926239
H        0.05580781      -2.39124407       3.06887358       0.08346058      -0.05284748      -0.05926239
H       -2.04297446      -1.24395268       3.18412192      -0.00403689      -0.09870285       0.05926239
H        2.04297426       1.24395302       3.06887358       0.00403689       0.09870285      -0.05926239
H        2.44406612      -2.64206879       2.72829717      -0.09912605       0.03408331       0.04667272
H       -2.44406612       2.64206867       3.52469830       0.09912605      -0.03408331      -0.04667272
H        1.06606568       3.43765769       2.72829717       0.02004612      -0.10288758       0.04667272
H       -1.06606559      -3.43765764       3.52469830      -0.02004612       0.10288758      -0.04667272
H       -3.51013181      -0.79558890       2.72829717       0.07908019       0.06880401       0.04667272
H        3.51013171       0.79558896       3.52469830      -0.07908019      -0.06880401      -0.04667272
36
Lattice="6.491374676997684 -3.747796823403464 2.0843318328023193 0.0 7.495593646806928 2.0843318328023193 -6.491374676997684 -3.747796823403464 2.0843318328023193" Properties=species:S:1:pos:R:3:forces:R:3 energy=-5632.225589066293 free_energy=-5632.225589066293 stress="0.00798521677938963 0.0 0.0 0.0 0.00798521677938963 0.0 0.0 0.0 0.003676303091258605" pbc="T T T"
O       -3.81463224      -3.99523028       2.43113442      -0.03636671       0.00997871      -0.03374959
O        3.81463244       3.99523048       3.82186104       0.03636671      -0.00997871       0.03374959
O        5.36728713      -1.30595320       2.43113442       0.00954162      -0.03648395      -0.03374959
O       -5.36728739       1.30595328       3.82186104      -0.00954162       0.03648395       0.03374959
O       -1.55265488       5.30118349       2.43113442       0.02682509       0.02650525      -0.03374959
O        1.55265496      -5.30118375       3.82186104      -0.02682509      -0.02650525       0.03374959
O        0.92017199       2.58645003       3.22778149       0.10037510       0.03750365      -0.05465574
O       -0.92017179      -2.58644992       3.02521395      -0.10037510      -0.03750365       0.05465574
O       -2.70001748      -0.49633272       3.22778149      -0.08266662       0.06817537      -0.05465574
O        2.70001729       0.49633283       3.02521395       0.08266662      -0.06817537       0.05465574
O        1.77984549      -2.09011731       3.22778149      -0.01770822      -0.10567928      -0.05465574
O       -1.77984549       2.09011709       3.02521395       0.01770822       0.10567928       0.05465574
H       -4.21504290      -3.14877322       2.07009857      -0.04515294      -0.14061029       0.03994440
H        4.21504281       3.14877321       4.18289688       0.04515294       0.14061029      -0.03994440
H        4.83443912      -2.07594753       2.07009857       0.14434867       0.03120162       0.03994440
H       -4.83443907       2.07594745       4.18289688      -0.14434867      -0.03120162      -0.03994440
H       -0.61939622       5.22472075       2.07009857      -0.09919547       0.10940867       0.03994440
H        0.61939626      -5.22472067       4.18289688       0.09919547      -0.10940867      -0.03994440
H       -3.71832598      -3.80666762       3.40669281       0.08093499       0.06336175      -0.11608197
H        3.71832611       3.80666781       2.84630268      -0.08093499      -0.06336175       0.11608197
H        5.15583393      -1.31683086       3.40669281      -0.09534062       0.03841100      -0.11608197
H       -5.15583417       1.31683089       2.84630268       0.09534062      -0.03841100       0.11608197
H       -1.43750796       5.12349849       3.40669281       0.01440538      -0.10177275      -0.11608197
H        1.43750806      -5.12349870       2.84630268      -0.01440538       0.10177275       0.11608197
H        2.10219096      -1.14696748       3.18787534       0.06497435       0.03512564       0.04326215
H       -2.10219116       1.14696714       3.06512016      -0.06497435      -0.03512564      -0.04326215
H       -0.05779248       2.39403447       3.18787534      -0.06290692       0.03870667       0.04326215
H        0.05779287      -2.39403447       3.06512016       0.06290692      -0.03870667      -0.04326215
H       -2.04439848      -1.24706699       3.18787534      -0.00206742      -0.07383231       0.04326215
H        2.04439829       1.24706733       3.06512016       0.00206742       0.07383231      -0.04326215
H        2.44090116      -2.64372269       2.72913658      -0.09741576       0.05343832       0.04500665
H       -2.44090116       2.64372258       3.52385889       0.09741576      -0.05343832      -0.04500665
H        1.06908049       3.43574371       2.72913658       0.00242892      -0.11108374       0.04500665
H       -1.06908039      -3.43574365       3.52385889      -0.00242892       0.11108374      -0.04500665
H       -3.50998165      -0.79202102       2.72913658       0.09498684       0.05764542       0.04500665
H        3.50998155       0.79202107       3.52385889      -0.09498684      -0.05764542      -0.04500665
36
Lattice="6.491374676997684 -3.747796823403464 2.0843318328023193 0.0 7.495593646806928 2.0843318328023193 -6.491374676997684 -3.747796823403464 2.0843318328023193" Properties=species:S:1:pos:R:3:forces:R:3 energy=-5632.245124935112 free_energy=-5632.245124935112 stress="0.007901664436406481 -0.0 -0.0 -0.0 0.007901664436406481 0.0 -0.0 0.0 0.0037102749230209842" pbc="T T T"
O       -3.81718339      -3.99915989       2.42912217      -0.02058297       0.02780468      -0.01898117
O        3.81718359       3.99916009       3.82387329       0.02058297      -0.02780468       0.01898117
O        5.37196584      -1.30619776       2.42912217      -0.01378780      -0.03172767      -0.01898117
O       -5.37196611       1.30619783       3.82387329       0.01378780       0.03172767       0.01898117