24
Lattice="4.799131386355434 0.0 0.0 0.0 8.312666657802588 0.0 0.0 0.0 7.8116469393298535" Properties=species:S:1:pos:R:3:forces:R:3 energy=-3753.604081963847 free_energy=-3753.604081963847 stress="0.032011565253928884 -0.0 -0.0 -0.0 0.06082610569173328 -0.0 -0.0 -0.0 0.04100124646434671" pbc="T T T"
O        0.00000000       5.52626074       0.49291495       0.00000000      -2.71443985       0.25575946
O        0.00000000       2.78640592       4.39873842       0.00000000       2.71443728       0.25576949
O        2.39956569       1.36992741       0.49291495       0.00000000      -2.71441311       0.25572629
O        2.39956569       6.94273973       4.39873842       0.00000000       2.71439563       0.25571035
O        2.39956569       6.86210664       7.31873199       0.00000000       0.54564825      -0.05649999
O        2.39956569       1.45056050       3.41290852       0.00000000      -0.54564877      -0.05648225
O        0.00000000       2.70577331       7.31873199       0.00000000       0.54563977      -0.05650925
O        0.00000000       5.60689383       3.41290852       0.00000000      -0.54562743      -0.05649639
H        0.00000000       5.51628623       1.53342614       0.00000000      -0.18605557      -1.52777161
H        0.00000000       2.79638091       5.43925009       0.00000000       0.18605737      -1.52778575
H        2.39956569       1.35995242       1.53342614       0.00000000      -0.18605454      -1.52776647
H        2.39956569       6.95271424       5.43925009       0.00000000       0.18605685      -1.52777804
H        0.00000000       4.45808351       0.14295317       0.00000000       2.87186490       1.15588082
H        0.00000000       3.85458362       4.04877664       0.00000000      -2.87185795       1.15587748
H        2.39956569       0.30174971       0.14295317       0.00000000       2.87184793       1.15587516
H        2.39956569       8.01091695       4.04877664       0.00000000      -2.87183558       1.15587028
H        3.24709230       6.44065460       7.66869377      -0.76369734      -0.23422853       0.08633482
H        1.55203909       1.87201254       3.76287030       0.76369991       0.23422930       0.08633199
H        3.24709230       1.87201254       3.76287030      -0.76369991       0.23422930       0.08633199
H        1.55203909       6.44065460       7.66869377       0.76369734      -0.23422853       0.08633482
H        0.84752660       2.28432079       7.66869377      -0.76371586      -0.23421978       0.08632582
H        3.95160478       6.02834587       3.76287030       0.76373308       0.23421181       0.08631759
H        0.84752660       6.02834587       3.76287030      -0.76373308       0.23421181       0.08631759
H        3.95160478       2.28432079       7.66869377       0.76371586      -0.23421978       0.08632582
24
Lattice="4.799131386355434 0.0 0.0 0.0 8.312666657802588 0.0 0.0 0.0 7.8116469393298535" Properties=species:S:1:pos:R:3:forces:R:3 energy=-3754.725278871878 free_energy=-3754.725278871878 stress="0.0274630124282308 -0.0 -0.0 -0.0 0.019850567640612146 -0.0 -0.0 -0.0 0.02158037658764791" pbc="T T T"
O        0.00000000       5.47039286       0.49817891       0.00000000       0.03740595      -0.09197556
O        0.00000000       2.84227374       4.40400241       0.00000000      -0.03739695      -0.09198199
O        2.39956569       1.31406008       0.49817823       0.00000000       0.03739052      -0.09193776
O        2.39956569       6.99860622       4.40400119       0.00000000      -0.03737227      -0.09192208
O        2.39956569       6.87333680       7.31756931       0.00000000       0.23955971      -0.03717867
O        2.39956569       1.43932985       3.41174597       0.00000000      -0.23956357      -0.03718175
O        0.00000000       2.71700329       7.31756912       0.00000000       0.23955714      -0.03717584
O        0.00000000       5.59566362       3.41174568       0.00000000      -0.23957642      -0.03719126
H        0.00000000       5.51245648       1.50198213       0.00000000      -0.40412651      -0.45112602
H        0.00000000       2.80021021       5.40780555       0.00000000       0.40412651      -0.45111985
H        2.39956569       1.35612318       1.50198224       0.00000000      -0.40412137      -0.45114402
H        2.39956569       6.95654353       5.40780570       0.00000000       0.40411931      -0.45116433
H        0.00000000       4.51719107       0.16674316       0.00000000       0.48137762       0.54370013
H        0.00000000       3.79547573       4.07256653       0.00000000      -0.48138327       0.54370244
H        2.39956569       0.36085739       0.16674304       0.00000000       0.48139099       0.54369807
H        2.39956569       7.95180952       4.07256638       0.00000000      -0.48140873       0.54370090
H        3.23137399       6.43583333       7.67047074      -0.64996074      -0.17014584       0.01828054
H        1.56775745       1.87683335       3.76464722       0.64995817       0.17014712       0.01828234
H        3.23137394       1.87683335       3.76464722      -0.64995817       0.17014712       0.01828234
H        1.56775740       6.43583333       7.67047074       0.64996074      -0.17014584       0.01828054
H        0.83180792       2.27950018       7.67047056      -0.64993811      -0.17015818       0.01828954
H        3.96732382       6.03316631       3.76464692       0.64992140       0.17016769       0.01829674
H        0.83180756       6.03316631       3.76464692      -0.64992140       0.17016769       0.01829674
H        3.96732347       2.27950018       7.67047056       0.64993811      -0.17015818       0.01828954
24
Lattice="4.799131386355434 0.0 0.0 0.0 8.312666657802588 0.0 0.0 0.0 7.8116469393298535" Properties=species:S:1:pos:R:3:forces:R:3 energy=-3754.8546894106967 free_energy=-3754.8546894106967 stress="0.0190912512928422 -0.0 -0.0 -0.0 0.006250817044277867 0.0 -0.0 0.0 0.012594368007690877" pbc="T T T"
O        0.00000000       5.46671154       0.49629495       0.00000000       0.83023492      -0.13077736
O        0.00000000       2.84595529       4.40211830       0.00000000      -0.83024366      -0.13076605
O        2.39956569       1.31037842       0.49629516       0.00000000       0.83021975      -0.13080513
O        2.39956569       7.00228831       4.40211849       0.00000000      -0.83023004      -0.13081721
O        2.39956569       6.88030838       7.31653536       0.00000000       0.30481534      -0.11967405
O        2.39956569       1.43235817       3.41071197       0.00000000      -0.30481302      -0.11967277
O        0.00000000       2.72397480       7.31653523       0.00000000       0.30481174      -0.11967251
O        0.00000000       5.58869165       3.41071142       0.00000000      -0.30479914      -0.11966171
H        0.00000000       5.50194701       1.48800134       0.00000000      -0.29822997       0.00146630
H        0.00000000       2.81071968       5.39382488       0.00000000       0.29823074       0.00145756
H        2.39956569       1.34561384       1.48800100       0.00000000      -0.29823048       0.00148790
H        2.39956569       6.96705281       5.39382393       0.00000000       0.29822971       0.00150384
H        0.00000000       4.53422484       0.18242515       0.00000000      -0.41231984       0.14521565
H        0.00000000       3.77844183       4.08824857       0.00000000       0.41232730       0.14521359
H        2.39956569       0.37789147       0.18242498       0.00000000      -0.41230647       0.14522131
H        2.39956569       7.93477501       4.08824838       0.00000000       0.41231676       0.14521771
H        3.21368018       6.43114301       7.67107889      -0.28952370      -0.20321717       0.05188512
H        1.58545120       1.88152369       3.76525540       0.28952473       0.20321639       0.05188435
H        3.21368019       1.88152369       3.76525540      -0.28952473       0.20321639       0.05188435
H        1.58545120       6.43114301       7.67107889       0.28952370      -0.20321717       0.05188512
H        0.81411465       2.27480957       7.67107891      -0.28952807      -0.20321588       0.05188358
H        3.98501670       6.03785715       3.76525544       0.28953578       0.20320971       0.05187843
H        0.81411469       6.03785715       3.76525544      -0.28953578       0.20320971       0.05187843
H        3.98501674       2.27480957       7.67107891       0.28952807      -0.20321588       0.05188358
24
Lattice="4.799131386355434 0.0 0.0 0.0 8.312666657802588 0.0 0.0 0.0 7.8116469393298535" Properties=species:S:1:pos:R:3:forces:R:3 energy=-3754.9456855028557 free_energy=-3754.9456855028557 stress="0.014009248892713235 -0.0 -0.0 -0.0 0.01036599947560181 0.0 -0.0 0.0 0.00872433365962519" pbc="T T T"
O        0.00000000       5.48188614       0.49251116       0.00000000       0.28220120      -0.32135293
O        0.00000000       2.83078056       4.39833474       0.00000000      -0.28219528      -0.32136501
O        2.39956569       1.32555252       0.49251103       0.00000000       0.28223257      -0.32133802
O        2.39956569       6.98711412       4.39833419       0.00000000      -0.28223694      -0.32133956
O        2.39956569       6.89205712       7.31294551       0.00000000       0.18649625      -0.00597344
O        2.39956569       1.42060944       3.40712215       0.00000000      -0.18649471      -0.00597293
O        0.00000000       2.73572340       7.31294542       0.00000000       0.18649291      -0.00596753
O        0.00000000       5.57694317       3.40712173       0.00000000      -0.18648880      -0.00596393
H        0.00000000       5.48929063       1.47928619       0.00000000      -0.10401475       0.25427722
H        0.00000000       2.82337608       5.38510956       0.00000000       0.10401526       0.25428622
H        2.39956569       1.33295751       1.47928620       0.00000000      -0.10401758       0.25427002
H        2.39956569       6.97970911       5.38510927       0.00000000       0.10401681       0.25427413
H        0.00000000       4.53599701       0.19506525       0.00000000      -0.08925662       0.06254440
H        0.00000000       3.77666980       4.10088864       0.00000000       0.08925045       0.06254697
H        2.39956569       0.37966409       0.19506518       0.00000000      -0.08928413       0.06253797
H        2.39956569       7.93300248       4.10088851       0.00000000       0.08928876       0.06253591
H        3.19706365       6.42348877       7.67280319      -0.03784330      -0.12021064       0.00525174
H        1.60206773       1.88917793       3.76697969       0.03784381       0.12020987       0.00525174
H        3.19706365       1.88917793       3.76697969      -0.03784381       0.12020987       0.00525174
H        1.60206773       6.42348877       7.67280319       0.03784330      -0.12021064       0.00525174
H        0.79749823       2.26715524       7.67280325      -0.03785075      -0.12020833       0.00524942
H        4.00163316       6.04551141       3.76697971       0.03785307       0.12020627       0.00524762
H        0.79749823       6.04551141       3.76697971      -0.03785307       0.12020627       0.00524762
H        4.00163316       2.26715524       7.67280325       0.03785075      -0.12020833       0.00524942
24
Lattice="4.799131386355434 0.0 0.0 0.0 8.312666657802588 0.0 0.0 0.0 7.8116469393298535" Properties=species:S:1:pos:R:3:forces:R:3 energy=-3754.960130121752 free_energy=-3754.960130121752 stress="0.012807380574417153 -0.0 -0.0 -0.0 0.011491660711836337 0.0 -0.0 0.0 0.01545626529426757" pbc="T T T"
O        0.00000000       5.49123420       0.48200297       0.00000000       0.10270426       0.30168656
O        0.00000000       2.82143270       4.38782623       0.00000000      -0.10271763       0.30170507
O        2.39956569       1.33490134       0.48200337       0.00000000       0.10267006       0.30165159
O        2.39956569       6.97776523       4.38782652       0.00000000      -0.10266749       0.30165056
O        2.39956569       6.90167418       7.31178420       0.00000000      -0.00820876       0.11994968
O        2.39956569       1.41099240       3.40596085       0.00000000       0.00820876       0.11994916
O        0.00000000       2.74534032       7.31178430       0.00000000      -0.00820465       0.11994428
O        0.00000000       5.56732631       3.40596068       0.00000000       0.00820542       0.11994505
H        0.00000000       5.48142549       1.48143233       0.00000000       0.03665879      -0.22206129
H        0.00000000       2.83124124       5.38725595       0.00000000      -0.03665853      -0.22207544
H        2.39956569       1.32509233       1.48143213       0.00000000       0.03665750      -0.22203918
H        2.39956569       6.98757426       5.38725524       0.00000000      -0.03665802      -0.22203790
H        0.00000000       4.53857589       0.20322543       0.00000000      -0.04920731      -0.06716056
H        0.00000000       3.77409075       4.10904889       0.00000000       0.04921991      -0.06716416
H        2.39956569       0.38224231       0.20322518       0.00000000      -0.04917440      -0.06714976
H        2.39956569       7.93042434       4.10904844       0.00000000       0.04917261      -0.06714950
H        3.18861799       6.41729780       7.67348471       0.03499837      -0.01554926      -0.06620642
H        1.61051340       1.89536889       3.76766121      -0.03499863       0.01554952      -0.06620616
H        3.18861798       1.89536889       3.76766121       0.03499863       0.01554952      -0.06620616
H        1.61051340       6.41729780       7.67348471      -0.03499837      -0.01554926      -0.06620642
H        0.78905246       2.26096426       7.67348475       0.03499811      -0.01555157      -0.06620462
H        4.01007893       6.05170236       3.76766117      -0.03499786       0.01555157      -0.06620488
H        0.78905246       6.05170236       3.76766117       0.03499786       0.01555157      -0.06620488
H        4.01007893       2.26096426       7.67348475      -0.03499811      -0.01555157      -0.06620462
24
Lattice="4.799131386355434 0.0 0.0 0.0 8.312666657802588 0.0 0.0 0.0 7.8116469393298535" Properties=species:S:1:pos:R:3:forces:R:3 energy=-3754.9656340323104 free_energy=-3754.9656340323104 stress="0.013045183396753809 -0.0 -0.0 -0.0 0.0130589557609818 -0.0 -0.0 -0.0 0.012237204695378291" pbc="T T T"
O        0.00000000       5.49214372       0.48591685       0.00000000      -0.00609917      -0.00467427
O        0.00000000       2.82052301       4.39174033       0.00000000       0.00610174      -0.00467658
O        2.39956569       1.33581047       0.48591681       0.00000000      -0.00609660      -0.00466912
O        2.39956569       6.97685613       4.39173996       0.00000000       0.00609583      -0.00466938
O        2.39956569       6.90125669       7.31383332       0.00000000       0.02056625       0.09820483
O        2.39956569       1.41140989       3.40800997       0.00000000      -0.02056600       0.09820457
O        0.00000000       2.74492290       7.31383335       0.00000000       0.02056883       0.09820431
O        0.00000000       5.56774374       3.40800974       0.00000000      -0.02056883       0.09820457
H        0.00000000       5.48251205       1.47919627       0.00000000       0.01749199       0.01303909
H        0.00000000       2.83015469       5.38501972       0.00000000      -0.01749199       0.01304038
H        2.39956569       1.32617886       1.47919634       0.00000000       0.01749096       0.01303421
H        2.39956569       6.98648772       5.38501946       0.00000000      -0.01749121       0.01303549
H        0.00000000       4.53787614       0.20170276       0.00000000       0.06550117      -0.01080429
H        0.00000000       3.77479065       4.10752618       0.00000000      -0.06550400      -0.01080326
H        2.39956569       0.38154295       0.20170264       0.00000000       0.06549962      -0.01080403
H        2.39956569       7.93112368       4.10752591       0.00000000      -0.06549860      -0.01080455
H        3.19002574       6.41726187       7.67238259       0.02170937      -0.02596583      -0.04788294
H        1.60910565       1.89540483       3.76655910      -0.02170937       0.02596557      -0.04788268
H        3.19002573       1.89540483       3.76655910       0.02170937       0.02596557      -0.04788268
H        1.60910565       6.41726187       7.67238259      -0.02170937      -0.02596583      -0.04788294
H        0.79046018       2.26092830       7.67238265       0.02170782      -0.02596660      -0.04788268
H        4.00867121       6.05173832       3.76655907      -0.02170782       0.02596660      -0.04788268
H        0.79046018       6.05173832       3.76655907       0.02170782       0.02596660      -0.04788268
H        4.00867120       2.26092830       7.67238265      -0.02170782      -0.02596660      -0.04788268
24
Lattice="4.799131386355434 0.0 0.0 0.0 8.312666657802588 0.0 0.0 0.0 7.8116469393298535" Properties=species:S:1:pos:R:3:forces:R:3 energy=-3754.9675327066197 free_energy=-3754.9675327066197 stress="0.013054364972905803 -0.0 -0.0 -0.0 0.012872569765096311 -0.0 -0.0 -0.0 0.011831379029460135" pbc="T T T"
O        0.00000000       5.49262778       0.48658329       0.00000000       0.00424746      -0.03915199
O        0.00000000       2.82003898       4.39240677       0.00000000      -0.00424695      -0.03915379
O        2.39956569       1.33629450       0.48658326       0.00000000       0.00425286      -0.03914787
O        2.39956569       6.97637209       4.39240640       0.00000000      -0.00425209      -0.03914659
O        2.39956569       6.90171603       7.31649411       0.00000000       0.03772862       0.07017646
O        2.39956569       1.41095056       3.41067075       0.00000000      -0.03772837       0.07017620
O        0.00000000       2.74538231       7.31649412       0.00000000       0.03772914       0.07017723
O        0.00000000       5.56728434       3.41067052       0.00000000      -0.03772991       0.07017698
H        0.00000000       5.48308756       1.47914699       0.00000000       0.01110639       0.03873984
H        0.00000000       2.82957918       5.38497042       0.00000000      -0.01110639       0.03874138
H        2.39956569       1.32675434       1.47914701       0.00000000       0.01110562       0.03873701
H        2.39956569       6.98591223       5.38497017       0.00000000      -0.01110588       0.03873624
H        0.00000000       4.53890263       0.20107151       0.00000000       0.05689080      -0.00340414
H        0.00000000       3.77376413       4.10689494       0.00000000      -0.05689157      -0.00340363
H        2.39956569       0.38256948       0.20107143       0.00000000       0.05688617      -0.00340491
H        2.39956569       7.93009716       4.10689468       0.00000000      -0.05688669      -0.00340491
H        3.19082137       6.41660292       7.67105924       0.01821601      -0.03320091      -0.03318034
H        1.60831002       1.89606377       3.76523575      -0.01821601       0.03320066      -0.03318009
H        3.19082136       1.89606377       3.76523575       0.01821601       0.03320066      -0.03318009
H        1.60831002       6.41660292       7.67105924      -0.01821601      -0.03320091      -0.03318034
H        0.79125577       2.26026933       7.67105931       0.01821447      -0.03320066      -0.03318060
H        4.00787563       6.05239729       3.76523572      -0.01821498       0.03320117      -0.03318060
H        0.79125576       6.05239729       3.76523572       0.01821498       0.03320117      -0.03318060
H        4.00787562       2.26026933       7.67105931      -0.01821447      -0.03320066      -0.03318060
24
Lattice="4.799131386355434 0.0 0.0 0.0 8.312666657802588 0.0 0.0 0.0 7.8116469393298535" Properties=species:S:1:pos:R:3:forces:R:3 energy=-3754.9693221272223 free_energy=-3754.9693221272223 stress="0.013148935207271348 -0.0 -0.0 -0.0 0.012787181106882765 -0.0 -0.0 -0.0 0.011718445642790601" pbc="T T T"
O        0.00000000       5.49365928       0.48681511       0.00000000       0.00686562      -0.04865299
O        0.00000000       2.81900745       4.39263861       0.00000000      -0.00686356      -0.04865684
O        2.39956569       1.33732599       0.48681505       0.00000000       0.00687256      -0.04864681
O        2.39956569       6.97534061       4.39263821       0.00000000      -0.00687230      -0.04864604
O        2.39956569       6.90289546       7.31922004       0.00000000       0.03365368       0.05553531
O        2.39956569       1.40977114       3.41339667       0.00000000      -0.03365343       0.05553531
O        0.00000000       2.74656178       7.31922004       0.00000000       0.03365394       0.05553660
O        0.00000000       5.56610485       3.41339645       0.00000000      -0.03365420       0.05553634
H        0.00000000       5.48337558       1.47916656       0.00000000       0.01114830       0.04558592
H        0.00000000       2.82929116       5.38498998       0.00000000      -0.01114805       0.04558874
H        2.39956569       1.32704233       1.47916658       0.00000000       0.01114779       0.04558206
H        2.39956569       6.98562423       5.38498975       0.00000000      -0.01114779       0.04558155
H        0.00000000       4.54020676       0.20078261       0.00000000       0.04897077      -0.00200855
H        0.00000000       3.77246001       4.10660604       0.00000000      -0.04897283      -0.00200777
H        2.39956569       0.38387364       0.20078257       0.00000000       0.04896409      -0.00201035
H        2.39956569       7.92879300       4.10660581       0.00000000      -0.04896435      -0.00201009
H        3.19130780       6.41545948       7.66971502       0.01098092      -0.02950084      -0.02522998
H        1.60782359       1.89720720       3.76389154      -0.01098092       0.02950084      -0.02522998
H        3.19130780       1.89720720       3.76389154       0.01098092       0.02950084      -0.02522998
H        1.60782359       6.41545948       7.66971502      -0.01098092      -0.02950084      -0.02522998
H        0.79174215       2.25912587       7.66971510       0.01098015      -0.02950032      -0.02523049
H        4.00738924       6.05354075       3.76389150      -0.01098041       0.02950058      -0.02523049
H        0.79174215       6.05354075       3.76389150       0.01098041       0.02950058      -0.02523049
H        4.00738924       2.25912587       7.66971510      -0.01098015      -0.02950032      -0.02523049
24
Lattice="4.799131386355434 0.0 0.0 0.0 8.312666657802588 0.0 0.0 0.0 7.8116469393298535" Properties=species:S:1:pos:R:3:forces:R:3 energy=-3754.971443118538 free_energy=-3754.971443118538 stress="0.0132278967621785 -0.0 -0.0 -0.0 0.01269628350297802 -0.0 -0.0 -0.0 0.011837806132766531" pbc="T T T"
O        0.00000000       5.49543440       0.48683900       0.00000000       0.00753539      -0.04078258
O        0.00000000       2.81723236       4.39266246       0.00000000      -0.00753590      -0.04078284
O        2.39956569       1.33910115       0.48683897       0.00000000       0.00753925      -0.04078027
O        2.39956569       6.97356546       4.39266214       0.00000000      -0.00753873      -0.04077898
O        2.39956569       6.90478476       7.32325481       0.00000000       0.02596017       0.03420827
O        2.39956569       1.40788186       3.41743144       0.00000000      -0.02595991       0.03420827
O        0.00000000       2.74845114       7.32325482       0.00000000       0.02595940       0.03420956
O        0.00000000       5.56421549       3.41743123       0.00000000      -0.02595991       0.03420904
H        0.00000000       5.48378013       1.47934455       0.00000000       0.01368830       0.03719846
H        0.00000000       2.82888663       5.38516799       0.00000000      -0.01368830       0.03719898
H        2.39956569       1.32744683       1.47934453       0.00000000       0.01368830       0.03719795
H        2.39956569       6.98521972       5.38516773       0.00000000      -0.01368830       0.03719666
H        0.00000000       4.54224991       0.20046994       0.00000000       0.03767515      -0.00231296
H        0.00000000       3.77041683       4.10629339       0.00000000      -0.03767463      -0.00231322
H        2.39956569       0.38591676       0.20046992       0.00000000       0.03767103      -0.00231425
H        2.39956569       7.92674988       4.10629315       0.00000000      -0.03767155      -0.00231399
H        3.19173299       6.41363898       7.66775302       0.00536332      -0.02300546      -0.01415572
H        1.60739839       1.89902769       3.76192955      -0.00536332       0.02300546      -0.01415572
H        3.19173299       1.89902769       3.76192955       0.00536332       0.02300546      -0.01415572
H        1.60739840       6.41363898       7.66775302      -0.00536332      -0.02300546      -0.01415572
H        0.79216728       2.25730536       7.66775310       0.00536332      -0.02300469      -0.01415624
H        4.00696410       6.05536126       3.76192950      -0.00536358       0.02300495      -0.01415624
H        0.79216729       6.05536126       3.76192950       0.00536358       0.02300495      -0.01415624
H        4.00696411       2.25730536       7.66775310      -0.00536332      -0.02300469      -0.01415624
24
Lattice="4.799131386355434 0.0 0.0 0.0 8.312666657802588 0.0 0.0 0.0 7.8116469393298535" Properties=species:S:1:pos:R:3:forces:R:3 energy=-3754.9732506347113 free_energy=-3754.9732506347113 stress="0.013375720138225612 -0.0 -0.0 -0.0 0.012588859061999682 -0.0 -0.0 -0.0 0.012154570510010341" pbc="T T T"
O        0.00000000       5.49831974       0.48671436       0.00000000       0.00949277      -0.01932595
O        0.00000000       2.81434696       4.39253787       0.00000000      -0.00948840      -0.01933212
O        2.39956569       1.34198649       0.48671428       0.00000000       0.00949714      -0.01931953
O        2.39956569       6.97068013       4.39253750       0.00000000      -0.00949714      -0.01932004
O        2.39956569       6.90779284       7.32922234       0.00000000       0.00328021       0.00961155
O        2.39956569       1.40487380       3.42339895       0.00000000      -0.00328021       0.00961155
O        0.00000000       2.75145929       7.32922236       0.00000000       0.00327918       0.00961310
O        0.00000000       5.56120734       3.42339879       0.00000000      -0.00327970       0.00961258
H        0.00000000       5.48459323       1.47965666       0.00000000       0.01794424       0.01645943
H        0.00000000       2.82807353       5.38548005       0.00000000      -0.01794450       0.01646432
H        2.39956569       1.32825989       1.47965668       0.00000000       0.01794476       0.01645557
H        2.39956569       6.98440665       5.38547988       0.00000000      -0.01794424       0.01645609
H        0.00000000       4.54553985       0.20001749       0.00000000       0.01891561      -0.00390499
H        0.00000000       3.76712693       4.10584093       0.00000000      -0.01891972      -0.00390371
H        2.39956569       0.38920672       0.20001751       0.00000000       0.01891021      -0.00390705
H        2.39956569       7.92345992       4.10584073       0.00000000      -0.01891046      -0.00390653
H        3.19217586       6.41073833       7.66490173      -0.00470872      -0.00756779      -0.00142053
H        1.60695553       1.90192834       3.75907828       0.00470872       0.00756779      -0.00142028
H        3.19217586       1.90192834       3.75907828      -0.00470872       0.00756779      -0.00142028
H        1.60695553       6.41073833       7.66490173       0.00470872      -0.00756779      -0.00142053
H        0.79261008       2.25440469       7.66490181      -0.00470769      -0.00756701      -0.00142079
H        4.00652129       6.05826194       3.75907819       0.00470769       0.00756727      -0.00142079
H        0.79261010       6.05826194       3.75907819      -0.00470769       0.00756727      -0.00142079
H        4.00652130       2.25440469       7.66490181       0.00470769      -0.00756701      -0.00142079
24
Lattice="4.799131386355434 0.0 0.0 0.0 8.312666657802588 0.0 0.0 0.0 7.8116469393298535" Properties=species:S:1:pos:R:3:forces:R:3 energy=-3754.9735556743244 free_energy=-3754.9735556743244 stress="0.013299513056164058 -0.0 -0.0 -0.0 0.01250989750709253 0.0 -0.0 0.0 0.012407982011805391" pbc="T T T"
O        0.00000000       5.50006560       0.48653364       0.00000000       0.00944340      -0.00154780
O        0.00000000       2.81260120       4.39235700       0.00000000      -0.00944958      -0.00153881
O        2.39956569       1.34373244       0.48653371       0.00000000       0.00943852      -0.00155423
O        2.39956569       6.96893418       4.39235691       0.00000000      -0.00943903      -0.00155269
O        2.39956569       6.90921490       7.33231445       0.00000000      -0.00281921      -0.00657431
O        2.39956569       1.40345174       3.42649105       0.00000000       0.00281921      -0.00657431
O        0.00000000       2.75288137       7.33231450       0.00000000      -0.00281999      -0.00657457
O        0.00000000       5.55978525       3.42649093       0.00000000       0.00282050      -0.00657431
H        0.00000000       5.48541566       1.47987202       0.00000000       0.01918223      -0.00132412
H        0.00000000       2.82725109       5.38569554       0.00000000      -0.01918249      -0.00133080
H        2.39956569       1.32908232       1.47987196       0.00000000       0.01918274      -0.00131872
H        2.39956569       6.98358423       5.38569518       0.00000000      -0.01918249      -0.00132000
H        0.00000000       4.54747211       0.19969899       0.00000000       0.01018337      -0.00362423