36
Lattice="6.0239956543349376 -3.4779554256071186 1.9342599260963327 0.0 6.955910851214237 1.9342599260963327 -6.0239956543349376 -3.4779554256071186 1.9342599260963327" Properties=species:S:1:pos:R:3:forces:R:3 energy=-5627.400128649921 free_energy=-5627.400128649921 stress="-0.13809090532599752 0.0 0.0 0.0 -0.13809090532599752 -0.0 0.0 -0.0 -0.15297332211076545" pbc="T T T"
O       -3.49994200      -3.75271435       2.22633347       0.45776666      -1.98596353      -1.68513495
O        3.49994200       3.75271507       3.57644703      -0.45776666       1.98596353       1.68513495
O        4.99991704      -1.15468117       2.22633347       1.49101152       1.38941926      -1.68513495
O       -4.99991776       1.15468117       3.57644703      -1.49101152      -1.38941926       1.68513495
O       -1.49997504       4.90739625       2.22633347      -1.94877818       0.59654401      -1.68513495
O        1.49997504      -4.90739625       3.57644703       1.94877818      -0.59654401       1.68513495
O        0.87950350       2.39979011       3.01744592       2.16132820      -1.37041315       1.29549712
O       -0.87950350      -2.39979011       2.78533458      -2.16132820       1.37041315      -1.29549712
O       -2.51803086      -0.43822259       3.01744592       0.10614851       2.55697186       1.29549712
O        2.51803086       0.43822259       2.78533458      -0.10614851      -2.55697186      -1.29549712
O        1.63852737      -1.96156752       3.01744592      -2.26747670      -1.18655871       1.29549712
O       -1.63852737       1.96156680       2.78533458       2.26747670       1.18655871      -1.29549712
H       -3.88547781      -2.91104931       2.01936739      -1.27767732       2.21641897      -2.44712714
H        3.88547781       2.91104931       3.78341311       1.27767732      -2.21641897       2.44712714
H        4.46378188      -1.90939769       2.01936739      -1.28063640      -2.21471047      -2.44712714
H       -4.46378188       1.90939769       3.78341311       1.28063640       2.21471047       2.44712714
H       -0.57830407       4.82044700       2.01936739       2.55831398      -0.00170850      -2.44712714
H        0.57830407      -4.82044700       3.78341311      -2.55831398       0.00170850       2.44712714
H       -3.51801398      -3.47795615       3.12383025       0.89449913      -0.44795199       3.77167284
H        3.51801398       3.47795615       2.67895025      -0.89449913       0.44795199      -3.77167284
H        4.77100554      -1.30771144       3.12383025      -0.05931175       0.99863498       3.77167284
H       -4.77100554       1.30771144       2.67895025       0.05931175      -0.99863498      -3.77167284
H       -1.25299156       4.78566759       3.12383025      -0.83518738      -0.55068299       3.77167284
H        1.25299156      -4.78566759       2.67895025       0.83518738       0.55068299      -3.77167284
H        1.95177453      -1.08512235       2.93040426       0.66352331       3.37716509       0.12873771
H       -1.95177526       1.08512235       2.87237624      -0.66352331      -3.37716509      -0.12873771
H       -0.03614396       2.23284793       2.93040426      -3.25647236      -1.11395461       0.12873771
H        0.03614396      -2.23284793       2.87237624       3.25647236       1.11395461      -0.12873771
H       -1.91563057      -1.14772558       2.93040426       2.59294905      -2.26321047       0.12873771
H        1.91563057       1.14772558       2.87237624      -2.59294905       2.26321047      -0.12873771
H        2.29514287      -2.41717981       2.52227541       1.57829636      -2.18177207      -1.38514866
H       -2.29514287       2.41717981       3.28050509      -1.57829636       2.18177207       1.38514866
H        0.94576790       3.19624163       2.52227541       1.10032185       2.45773062      -1.38514866
H       -0.94576718      -3.19624163       3.28050509      -1.10032185      -2.45773062       1.38514866
H       -3.24091005      -0.77906181       2.52227541      -2.67861821      -0.27595856      -1.38514866
H        3.24091005       0.77906181       3.28050509       2.67861821       0.27595856       1.38514866
