24
Lattice="4.501999442219337 0.0 0.0 0.0 7.797998771857516 0.0 0.0 0.0 7.327999034088702" Properties=species:S:1:pos:R:3:forces:R:3 energy=-3754.549034140003 free_energy=-3754.549034140003 stress="-0.04332051260034053 -0.0 -0.0 -0.0 0.017351342612039238 -0.0 -0.0 -0.0 -0.020500623232173356" pbc="T T T"
O        0.00000000       5.18410953       0.46239676       0.00000000      -1.47989998      -1.62548947
O        0.00000000       2.61388924       4.12639628       0.00000000       1.47990024      -1.62547122
O        2.25099972       1.28511015       0.46239676       0.00000000      -1.47990487      -1.62549744
O        2.25099972       6.51288907       4.12639628       0.00000000       1.47990307      -1.62547636
O        2.25099972       6.43724828       6.86560227       0.00000000       2.88407815      -1.95935699
O        2.25099972       1.36075094       3.20160276       0.00000000      -2.88407301      -1.95935210
O        0.00000000       2.53824890       6.86560227       0.00000000       2.88408098      -1.95936804
O        0.00000000       5.25975033       3.20160276       0.00000000      -2.88407609      -1.95936110
H        0.00000000       5.17475258       1.43848606       0.00000000      -0.09089544       0.92313351
H        0.00000000       2.62324664       5.10248603       0.00000000       0.09089518       0.92311320
H        2.25099972       1.27575274       1.43848606       0.00000000      -0.09089621       0.92313248
H        2.25099972       6.52224603       5.10248603       0.00000000       0.09089570       0.92311294
H        0.00000000       4.18206710       0.13410241       0.00000000       1.52039974       0.56816803
H        0.00000000       3.61593212       3.79810193       0.00000000      -1.52039923       0.56816700
H        2.25099972       0.28306727       0.13410241       0.00000000       1.52039846       0.56816726
H        2.25099972       7.51493151       3.79810193       0.00000000      -1.52039640       0.56816572
H        3.04605282       6.04188989       7.19389663       1.80766319      -1.41232676       1.04677914
H        1.45594662       1.75610933       3.52989711      -1.80765881       1.41232394       1.04677683
H        3.04605282       1.75610933       3.52989711       1.80765881       1.41232394       1.04677683
H        1.45594662       6.04188989       7.19389663      -1.80766319      -1.41232676       1.04677914
H        0.79505310       2.14289006       7.19389663       1.80765676      -1.41232419       1.04677606
H        3.70694634       5.65510871       3.52989711      -1.80765342       1.41232188       1.04677452
H        0.79505310       5.65510871       3.52989711       1.80765342       1.41232188       1.04677452
H        3.70694634       2.14289006       7.19389663      -1.80765676      -1.41232419       1.04677606
