24
Lattice="4.177855647482834 0.0 0.0 0.0 7.236543146262318 0.0 0.0 0.0 6.800383372376405" Properties=species:S:1:pos:R:3:forces:R:3 energy=-3750.485565398376 free_energy=-3750.485565398376 stress="-0.2174022782845414 -0.0 -0.0 -0.0 -0.0947768198289634 0.0 -0.0 0.0 -0.16784380284653577" pbc="T T T"
O        0.00000000       4.81085384       0.42910421       0.00000000       0.79167866      -4.90177295
O        0.00000000       2.42568931       3.82929590       0.00000000      -0.79166940      -4.90173490
O        2.08892782       1.19258226       0.42910421       0.00000000       0.79168637      -4.90178118
O        2.08892782       6.04396130       3.82929590       0.00000000      -0.79169306      -4.90175496
O        2.08892782       5.97376664       6.37127916       0.00000000       6.90003099      -5.24818719
O        2.08892782       1.26277692       2.97108747       0.00000000      -6.90002713      -5.24818642
O        0.00000000       2.35549507       6.37127916       0.00000000       6.90003022      -5.24819105
O        0.00000000       4.88104850       2.97108747       0.00000000      -6.90002585      -5.24818591
H        0.00000000       4.80217058       1.33491512       0.00000000       0.02826157       5.17356273
H        0.00000000       2.43437298       4.73510723       0.00000000      -0.02826157       5.17353624
H        2.08892782       1.18389859       1.33491512       0.00000000       0.02826234       5.17354910
H        2.08892782       6.05264456       4.73510723       0.00000000      -0.02826311       5.17352493
H        0.00000000       3.88095842       0.12444704       0.00000000      -0.92001142      -0.43811984
H        0.00000000       3.35558514       3.52463873       0.00000000       0.92001759      -0.43812215
H        2.08892782       0.26268643       0.12444704       0.00000000      -0.92000730      -0.43811855
H        2.08892782       6.97385671       3.52463873       0.00000000       0.92000447      -0.43811726
H        2.82673713       5.60687404       6.67593633       6.18056665      -3.43577364       2.70726364
H        1.35111852       1.62966952       3.27574465      -6.18056099       3.43577158       2.70726313
H        2.82673713       1.62966952       3.27574465       6.18056099       3.43577158       2.70726313
H        1.35111852       5.60687404       6.67593633      -6.18056665      -3.43577364       2.70726364
H        0.73780931       1.98860205       6.67593633       6.18056587      -3.43577184       2.70726210
H        3.44004634       5.24794109       3.27574465      -6.18056048       3.43576721       2.70726056
H        0.73780931       5.24794109       3.27574465       6.18056048       3.43576721       2.70726056
H        3.44004634       1.98860205       6.67593633      -6.18056587      -3.43577184       2.70726210
