36
Lattice="6.491374676997684 -3.747796823403464 2.0843318328023193 0.0 7.495593646806928 2.0843318328023193 -6.491374676997684 -3.747796823403464 2.0843318328023193" Properties=species:S:1:pos:R:3:forces:R:3 energy=-5630.737776584864 free_energy=-5630.737776584864 stress="0.020956947566927484 -0.0 0.0 -0.0 0.020956947566927484 0.0 0.0 0.0 -0.0003791990950773736" pbc="T T T"
O       -3.77148926      -4.04387325       2.39906626      -0.88633948       1.63864195       0.78726125
O        3.77148926       4.04387403       3.85393002       0.88633948      -1.63864195      -0.78726125
O        5.38784168      -1.24426851       2.39906626      -0.97593574      -1.58691341       0.78726125
O       -5.38784246       1.24426851       3.85393002       0.97593574       1.58691341      -0.78726125
O       -1.61635243       5.28814255       2.39906626       1.86227522      -0.05172828       0.78726125
O        1.61635243      -5.28814255       3.85393002      -1.86227522       0.05172828      -0.78726125
O        0.94774084       2.58598074       3.25155813      -0.79276289       0.61294817      -0.54838494
O       -0.94774084      -2.58598074       3.00143815       0.79276289      -0.61294817       0.54838494
O       -2.71339535      -0.47222262       3.25155813      -0.13444710      -0.99302689      -0.54838494
O        2.71339535       0.47222262       3.00143815       0.13444710       0.99302689       0.54838494
O        1.76565450      -2.11375812       3.25155813       0.92721025       0.38007872      -0.54838494
O       -1.76565450       2.11375735       3.00143815      -0.92721025      -0.38007872       0.54838494
H       -4.18693733      -3.13690661       2.17604246       0.08214366      -0.66668114      -1.31805572
H        4.18693733       3.13690661       4.07695381      -0.08214366       0.66668114       1.31805572
H        4.81010983      -2.05754063       2.17604246       0.53629098       0.40447926      -1.31805572
H       -4.81010983       2.05754063       4.07695381      -0.53629098      -0.40447926       1.31805572
H       -0.62317250       5.19444724       2.17604246      -0.61843464       0.26220213      -1.31805572
H        0.62317250      -5.19444724       4.07695381       0.61843464      -0.26220213       1.31805572
H       -3.79096337      -3.74779760       3.36619642       0.76439231      -1.14963895       0.26089549
H        3.79096337       3.74779760       2.88679986      -0.76439231       1.14963895      -0.26089549
H        5.14116980      -1.40917182       3.36619642       0.61342048       1.23680244       0.26089549
H       -5.14116980       1.40917182       2.88679986      -0.61342048      -1.23680244      -0.26089549
H       -1.35020643       5.15696942       3.36619642      -1.37781253      -0.08716374       0.26089549
H        1.35020643      -5.15696942       2.88679986       1.37781253       0.08716374      -0.26089549
H        2.10320533      -1.16931289       3.15776323      -0.35283763      -0.06256522       0.32416520
H       -2.10320611       1.16931289       3.09523304       0.35283763       0.06256522      -0.32416520
H       -0.03894823       2.40608615       3.15776323       0.23060199      -0.27428374       0.32416520
H        0.03894823      -2.40608615       3.09523304      -0.23060199       0.27428374      -0.32416520
H       -2.06425710      -1.23677326       3.15776323       0.12223564       0.33684897       0.32416520
H        2.06425710       1.23677326       3.09523304      -0.12223564      -0.33684897      -0.32416520
H        2.47321432      -2.60471965       2.71796921      -0.73826322      -0.24052284       0.41776673
H       -2.47321432       2.60471965       3.53502707       0.73826322       0.24052284      -0.41776673
H        1.01914645       3.44422592       2.71796921       0.57743043      -0.51909313       0.41776673
H       -1.01914568      -3.44422592       3.53502707      -0.57743043       0.51909313      -0.41776673
H       -3.49236000      -0.83950627       2.71796921       0.16083279       0.75961597       0.41776673
H        3.49236000       0.83950627       3.53502707      -0.16083279      -0.75961597      -0.41776673
