24
Lattice="4.790127436155298 0.0 0.0 0.0 8.297070744585877 0.0 0.0 0.0 7.7969910205061375" Properties=species:S:1:pos:R:3:forces:R:3 energy=-3753.6779950213286 free_energy=-3753.6779950213286 stress="0.03035796338895467 -0.0 -0.0 -0.0 0.059886830451384244 -0.0 -0.0 -0.0 0.03967267239515311" pbc="T T T"
O        0.00000000       5.51589258       0.49199016       0.00000000      -2.68461145       0.20976731
O        0.00000000       2.78117817       4.39048567       0.00000000       2.68460760       0.20977862
O        2.39506372       1.36735721       0.49199016       0.00000000      -2.68460245       0.20974700
O        2.39506372       6.92971402       4.39048567       0.00000000       2.68459628       0.20975702
O        2.39506372       6.84923221       7.30500086       0.00000000       0.59815172      -0.10181363
O        2.39506372       1.44783901       3.40650535       0.00000000      -0.59814710      -0.10180746
O        0.00000000       2.70069684       7.30500086       0.00000000       0.59814890      -0.10181569
O        0.00000000       5.59637438       3.40650535       0.00000000      -0.59813913      -0.10180617
H        0.00000000       5.50593678       1.53054918       0.00000000      -0.18346672      -1.46853082
H        0.00000000       2.79113445       5.42904517       0.00000000       0.18346672      -1.46854522
H        2.39506372       1.35740093       1.53054918       0.00000000      -0.18346724      -1.46853879
H        2.39506372       6.93966982       5.42904517       0.00000000       0.18346698      -1.46855165
H        0.00000000       4.44971942       0.14268496       0.00000000       2.83999273       1.14135846
H        0.00000000       3.84735180       4.04118047       0.00000000      -2.83999016       1.14135640
H        2.39506372       0.30118357       0.14268496       0.00000000       2.83999324       1.14135923
H        2.39506372       7.99588717       4.04118047       0.00000000      -2.83999350       1.14135846
H        3.24100022       6.42857089       7.65430606      -0.70090278      -0.26285519       0.10961795
H        1.54912721       1.86850034       3.75581055       0.70090483       0.26285365       0.10961590
H        3.24100022       1.86850034       3.75581055      -0.70090483       0.26285365       0.10961590
H        1.54912721       6.42857089       7.65430606       0.70090278      -0.26285519       0.10961795
H        0.84593651       2.28003503       7.65430606      -0.70090663      -0.26285313       0.10961590
H        3.94419093       6.01703571       3.75581055       0.70090895       0.26285133       0.10961384
H        0.84593651       6.01703571       3.75581055      -0.70090895       0.26285133       0.10961384
H        3.94419093       2.28003503       7.65430606       0.70090663      -0.26285313       0.10961590
