24
Lattice="4.177855647482834 0.0 0.0 0.0 7.236543146262318 0.0 0.0 0.0 6.800383372376405" Properties=species:S:1:pos:R:3:forces:R:3 energy=-3750.485565398376 free_energy=-3750.485565398376 stress="-0.2174022782845414 -0.0 -0.0 -0.0 -0.0947768198289634 0.0 -0.0 0.0 -0.16784380284653577" pbc="T T T"
O        0.00000000       4.81085384       0.42910421       0.00000000       0.79167866      -4.90177295
O        0.00000000       2.42568931       3.82929590       0.00000000      -0.79166940      -4.90173490
O        2.08892782       1.19258226       0.42910421       0.00000000       0.79168637      -4.90178118
O        2.08892782       6.04396130       3.82929590       0.00000000      -0.79169306      -4.90175496
O        2.08892782       5.97376664       6.37127916       0.00000000       6.90003099      -5.24818719
O        2.08892782       1.26277692       2.97108747       0.00000000      -6.90002713      -5.24818642
O        0.00000000       2.35549507       6.37127916       0.00000000       6.90003022      -5.24819105
O        0.00000000       4.88104850       2.97108747       0.00000000      -6.90002585      -5.24818591
H        0.00000000       4.80217058       1.33491512       0.00000000       0.02826157       5.17356273
H        0.00000000       2.43437298       4.73510723       0.00000000      -0.02826157       5.17353624
H        2.08892782       1.18389859       1.33491512       0.00000000       0.02826234       5.17354910
H        2.08892782       6.05264456       4.73510723       0.00000000      -0.02826311       5.17352493
H        0.00000000       3.88095842       0.12444704       0.00000000      -0.92001142      -0.43811984
H        0.00000000       3.35558514       3.52463873       0.00000000       0.92001759      -0.43812215
H        2.08892782       0.26268643       0.12444704       0.00000000      -0.92000730      -0.43811855
H        2.08892782       6.97385671       3.52463873       0.00000000       0.92000447      -0.43811726
H        2.82673713       5.60687404       6.67593633       6.18056665      -3.43577364       2.70726364
H        1.35111852       1.62966952       3.27574465      -6.18056099       3.43577158       2.70726313
H        2.82673713       1.62966952       3.27574465       6.18056099       3.43577158       2.70726313
H        1.35111852       5.60687404       6.67593633      -6.18056665      -3.43577364       2.70726364
H        0.73780931       1.98860205       6.67593633       6.18056587      -3.43577184       2.70726210
H        3.44004634       5.24794109       3.27574465      -6.18056048       3.43576721       2.70726056
H        0.73780931       5.24794109       3.27574465       6.18056048       3.43576721       2.70726056
H        3.44004634       1.98860205       6.67593633      -6.18056587      -3.43577184       2.70726210
24
Lattice="4.177855647482834 0.0 0.0 0.0 7.236543146262318 0.0 0.0 0.0 6.800383372376405" Properties=species:S:1:pos:R:3:forces:R:3 energy=-3753.361342950131 free_energy=-3753.361342950131 stress="0.046590071868065776 -0.0 -0.0 -0.0 -0.028411469244731834 -0.0 -0.0 -0.0 0.03173887244221465" pbc="T T T"
O        0.00000000       4.82714790       0.32821731       0.00000000       1.85509850       2.11924695
O        0.00000000       2.40939543       3.72840961       0.00000000      -1.85509644       2.11922792
O        2.08892782       1.20887649       0.32821713       0.00000000       1.85509567       2.11924798
O        2.08892782       6.02766652       3.72840920       0.00000000      -1.85508667       2.11923435
O        2.08892782       6.11578093       6.26326261       0.00000000      -2.66955302       2.03957695
O        2.08892782       1.12076229       2.86307073       0.00000000       2.66955173       2.03957798
O        0.00000000       2.49750934       6.26326253       0.00000000      -2.66955353       2.03957978
O        0.00000000       4.73903389       2.86307075       0.00000000       2.66955044       2.03957541
H        0.00000000       4.80275191       1.44139606       0.00000000       0.31261066      -0.62632150
H        0.00000000       2.43379124       4.84158741       0.00000000      -0.31260835      -0.62631019
H        2.08892782       1.18448035       1.44139579       0.00000000       0.31261195      -0.62632099
H        2.08892782       6.05206278       4.84158718       0.00000000      -0.31261195      -0.62631122
H        0.00000000       3.86202270       0.11542977       0.00000000      -1.25086714      -1.03344412
H        0.00000000       3.37452057       3.51562138       0.00000000       1.25086251      -1.03344103
H        2.08892782       0.24375121       0.11542979       0.00000000      -1.25086688      -1.03344489
H        2.08892782       6.99279187       3.51562147       0.00000000       1.25085917      -1.03344283
H        2.95394373       5.53615953       6.73165652      -0.99694474       0.91334840      -1.24952888
H        1.22391204       1.70038358       3.33146482       0.99694371      -0.91334789      -1.24952863
H        2.95394361       1.70038358       3.33146482      -0.99694371      -0.91334789      -1.24952863
H        1.22391192       5.53615953       6.73165652       0.99694474       0.91334840      -1.24952888
H        0.86501588       1.91788799       6.73165648      -0.99694499       0.91334866      -1.24952940
H        3.31283987       5.31865506       3.33146476       0.99694319      -0.91334763      -1.24952863
H        0.86501577       5.31865506       3.33146476      -0.99694319      -0.91334763      -1.24952863
H        3.31283976       1.91788799       6.73165648       0.99694499       0.91334866      -1.24952940
24
Lattice="4.177855647482834 0.0 0.0 0.0 7.236543146262318 0.0 0.0 0.0 6.800383372376405" Properties=species:S:1:pos:R:3:forces:R:3 energy=-3754.5577438236946 free_energy=-3754.5577438236946 stress="0.01977711503139619 -0.0 -0.0 -0.0 0.007378314595742793 0.0 -0.0 0.0 0.009932629081227669" pbc="T T T"
O        0.00000000       4.85773633       0.35958600       0.00000000      -0.56691051       1.06977406
O        0.00000000       2.37880705       3.75977802       0.00000000       0.56690691       1.06976223
O        2.08892782       1.23946488       0.35958583       0.00000000      -0.56691128       1.06977483
O        2.08892782       5.99707828       3.75977770       0.00000000       0.56690871       1.06976789
O        2.08892782       6.07671341       6.29312526       0.00000000      -1.25881648       1.39112159
O        2.08892782       1.15982981       2.89293340       0.00000000       1.25881622       1.39112288
O        0.00000000       2.45844181       6.29312522       0.00000000      -1.25881545       1.39112288
O        0.00000000       4.77810138       2.89293337       0.00000000       1.25881494       1.39112185
H        0.00000000       4.80784175       1.43441903       0.00000000       0.35336779      -0.62010560
H        0.00000000       2.42870143       4.83461055       0.00000000      -0.35336573      -0.62009660
H        2.08892782       1.18957021       1.43441875       0.00000000       0.35336856      -0.62010380
H        2.08892782       6.04697292       4.83461029       0.00000000      -0.35336779      -0.62009686
H        0.00000000       3.84115954       0.09839126       0.00000000       0.50582521      -0.44287946
H        0.00000000       3.39538365       3.49858292       0.00000000      -0.50582495      -0.44287766
H        2.08892782       0.22288807       0.09839128       0.00000000       0.50582444      -0.44288075
H        2.08892782       7.01365489       3.49858299       0.00000000      -0.50582264      -0.44288049
H        2.94157302       5.54886394       6.71304862      -0.70297354       0.53238933      -0.69895568
H        1.23628274       1.68767917       3.31285693       0.70297303      -0.53238882      -0.69895619
H        2.94157291       1.68767917       3.31285693      -0.70297303      -0.53238882      -0.69895619
H        1.23628263       5.54886394       6.71304862       0.70297354       0.53238933      -0.69895568
H        0.85264517       1.93059241       6.71304858      -0.70297303       0.53238882      -0.69895568
H        3.32521056       5.30595065       3.31285687       0.70297226      -0.53238830      -0.69895594
H        0.85264509       5.30595065       3.31285687      -0.70297226      -0.53238830      -0.69895594
H        3.32521048       1.93059241       6.71304858       0.70297303       0.53238882      -0.69895568
24
Lattice="4.177855647482834 0.0 0.0 0.0 7.236543146262318 0.0 0.0 0.0 6.800383372376405" Properties=species:S:1:pos:R:3:forces:R:3 energy=-3755.016300268499 free_energy=-3755.016300268499 stress="-0.036362714192359084 -0.0 -0.0 -0.0 -0.01346294511166956 0.0 -0.0 0.0 -0.0355069912949932" pbc="T T T"
O        0.00000000       4.84521659       0.40162228       0.00000000      -0.65389864      -0.55895371
O        0.00000000       2.39132668       3.80181384       0.00000000       0.65389607      -0.55894034
O        2.08892782       1.22694510       0.40162214       0.00000000      -0.65389890      -0.55895397
O        2.08892782       6.00959800       3.80181373       0.00000000       0.65389684      -0.55894471
O        2.08892782       6.02689225       6.34559018       0.00000000       0.93404424      -0.40777670
O        2.08892782       1.20965096       2.94539837       0.00000000      -0.93404604      -0.40777645
O        0.00000000       2.40862068       6.34559020       0.00000000       0.93404578      -0.40777799
O        0.00000000       4.82792248       2.94539830       0.00000000      -0.93404475      -0.40777568
H        0.00000000       4.82076018       1.41260203       0.00000000       0.04784772       0.28469671
H        0.00000000       2.41578307       4.81279388       0.00000000      -0.04784797       0.28468720
H        2.08892782       1.20248868       1.41260182       0.00000000       0.04784797       0.28469902
H        2.08892782       6.03405448       4.81279360       0.00000000      -0.04784849       0.28469285
H        0.00000000       3.85366169       0.07992894       0.00000000       0.53992601       0.10257519
H        0.00000000       3.38288150       3.48012067       0.00000000      -0.53992421       0.10257365
H        2.08892782       0.23539019       0.07992891       0.00000000       0.53992524       0.10257442
H        2.08892782       7.00115280       3.48012064       0.00000000      -0.53992267       0.10257288
H        2.91593081       5.56908941       6.68593767       0.31717797      -0.43847002       0.28972836
H        1.26192492       1.66745372       3.28574596      -0.31717977       0.43847105       0.28972862
H        2.91593073       1.66745372       3.28574596       0.31717977       0.43847105       0.28972862
H        1.26192483       5.56908941       6.68593767      -0.31717797      -0.43847002       0.28972836
H        0.82700298       1.95081787       6.68593763       0.31717900      -0.43847079       0.28972887
H        3.35085272       5.28572522       3.28574591      -0.31717900       0.43847079       0.28972836
H        0.82700293       5.28572522       3.28574591       0.31717900       0.43847079       0.28972836
H        3.35085267       1.95081787       6.68593763      -0.31717900      -0.43847079       0.28972887
24
Lattice="4.177855647482834 0.0 0.0 0.0 7.236543146262318 0.0 0.0 0.0 6.800383372376405" Properties=species:S:1:pos:R:3:forces:R:3 energy=-3755.1081758325845 free_energy=-3755.1081758325845 stress="-0.014688685527960828 -0.0 -0.0 -0.0 -0.01662507993841647 -0.0 -0.0 -0.0 -0.02054653111293333" pbc="T T T"
O        0.00000000       4.84021632       0.38947956       0.00000000      -0.15408441       0.11442695
O        0.00000000       2.39632693       3.78967137       0.00000000       0.15408441       0.11442283
O        2.08892782       1.22194483       0.38947941       0.00000000      -0.15408493       0.11442746
O        2.08892782       6.01459826       3.78967117       0.00000000       0.15408441       0.11442540
O        2.08892782       6.04488836       6.33375730       0.00000000       0.00709727       0.16418448
O        2.08892782       1.19165482       2.93356550       0.00000000      -0.00709753       0.16418525
O        0.00000000       2.42661680       6.33375730       0.00000000       0.00709753       0.16418499
O        0.00000000       4.80992637       2.93356543       0.00000000      -0.00709804       0.16418525
H        0.00000000       4.81960178       1.41913799       0.00000000       0.07308412      -0.09220079
H        0.00000000       2.41694146       4.81932966       0.00000000      -0.07308386      -0.09219719
H        2.08892782       1.20133028       1.41913780       0.00000000       0.07308464      -0.09219950
H        2.08892782       6.03521288       4.81932947       0.00000000      -0.07308438      -0.09219693
H        0.00000000       3.85780209       0.08335231       0.00000000       0.16656120      -0.09587747
H        0.00000000       3.37874113       3.48354400       0.00000000      -0.16656198      -0.09587695
H        2.08892782       0.23953057       0.08335227       0.00000000       0.16656069      -0.09587798
H        2.08892782       6.99701244       3.48354398       0.00000000      -0.16655992      -0.09587824
H        2.92301672       5.56077952       6.69294579      -0.15409135      -0.04869412      -0.04526710
H        1.25483898       1.67576362       3.29275409       0.15409058       0.04869438      -0.04526710
H        2.92301666       1.67576362       3.29275409      -0.15409058       0.04869438      -0.04526710
H        1.25483892       5.56077952       6.69294579       0.15409135      -0.04869412      -0.04526710
H        0.83408890       1.94250797       6.69294576      -0.15409110      -0.04869412      -0.04526710
H        3.34376679       5.29403511       3.29275404       0.15409033       0.04869464      -0.04526710
H        0.83408885       5.29403511       3.29275404      -0.15409033       0.04869464      -0.04526710
H        3.34376674       1.94250797       6.69294576       0.15409110      -0.04869412      -0.04526710
24
Lattice="4.177855647482834 0.0 0.0 0.0 7.236543146262318 0.0 0.0 0.0 6.800383372376405" Properties=species:S:1:pos:R:3:forces:R:3 energy=-3755.1182912563654 free_energy=-3755.1182912563654 stress="-0.01717781082276654 -0.0 -0.0 -0.0 -0.02052816796062934 0.0 -0.0 0.0 -0.0232743773876909" pbc="T T T"
O        0.00000000       4.83725570       0.39199344       0.00000000      -0.00241684       0.01894183
O        0.00000000       2.39928754       3.79218518       0.00000000       0.00241581       0.01894209
O        2.08892782       1.21898420       0.39199330       0.00000000      -0.00241709       0.01894260
O        2.08892782       6.01755888       3.79218503       0.00000000       0.00241684       0.01894286
O        2.08892782       6.04504092       6.33746106       0.00000000       0.04190615       0.07956664
O        2.08892782       1.19150225       2.93726927       0.00000000      -0.04190641       0.07956767
O        0.00000000       2.42676937       6.33746107       0.00000000       0.04190641       0.07956690
O        0.00000000       4.80977380       2.93726921       0.00000000      -0.04190641       0.07956767
H        0.00000000       4.82127758       1.41747884       0.00000000       0.03098642      -0.01058652
H        0.00000000       2.41526567       4.81767056       0.00000000      -0.03098642      -0.01058626
H        2.08892782       1.20300608       1.41747867       0.00000000       0.03098642      -0.01058575
H        2.08892782       6.03353707       4.81767039       0.00000000      -0.03098668      -0.01058523
H        0.00000000       3.86119267       0.08107246       0.00000000       0.04920423      -0.07547088
H        0.00000000       3.37535053       3.48126415       0.00000000      -0.04920397      -0.07547088
H        2.08892782       0.24292114       0.08107240       0.00000000       0.04920372      -0.07547113
H        2.08892782       6.99362189       3.48126410       0.00000000      -0.04920320      -0.07547139
H        2.91997649       5.55961966       6.69180646      -0.09047686      -0.06932414      -0.00622618
H        1.25787920       1.67692349       3.29161476       0.09047661       0.06932414      -0.00622644
H        2.91997645       1.67692349       3.29161476      -0.09047661       0.06932414      -0.00622644
H        1.25787916       5.55961966       6.69180646       0.09047686      -0.06932414      -0.00622618
H        0.83104868       1.94134811       6.69180643      -0.09047686      -0.06932414      -0.00622618
H        3.34680700       5.29519499       3.29161470       0.09047661       0.06932440      -0.00622644
H        0.83104864       5.29519499       3.29161470      -0.09047661       0.06932440      -0.00622644
H        3.34680697       1.94134811       6.69180643       0.09047686      -0.06932414      -0.00622618
24
Lattice="4.177855647482834 0.0 0.0 0.0 7.236543146262318 0.0 0.0 0.0 6.800383372376405" Properties=species:S:1:pos:R:3:forces:R:3 energy=-3755.1234264526715 free_energy=-3755.1234264526715 stress="-0.019336399376100454 -0.0 -0.0 -0.0 -0.02272256466095603 -0.0 -0.0 -0.0 -0.023973095332857686" pbc="T T T"
O        0.00000000       4.83621743       0.39327724       0.00000000       0.07988366      -0.02534028
O        0.00000000       2.40032578       3.79346899       0.00000000      -0.07988315      -0.02534028
O        2.08892782       1.21794591       0.39327714       0.00000000       0.07988315      -0.02534002
O        2.08892782       6.01859716       3.79346887       0.00000000      -0.07988238      -0.02534002
O        2.08892782       6.04681119       6.34134514       0.00000000       0.03475514       0.01416241
O        2.08892782       1.18973197       2.94115339       0.00000000      -0.03475514       0.01416266
O        0.00000000       2.42853965       6.34134517       0.00000000       0.03475514       0.01416241
O        0.00000000       4.80800352       2.94115334       0.00000000      -0.03475540       0.01416292
H        0.00000000       4.82293226       1.41682415       0.00000000      -0.00371807       0.01630671
H        0.00000000       2.41361099       4.81701589       0.00000000       0.00371782       0.01630645
H        2.08892782       1.20466077       1.41682402       0.00000000      -0.00371807       0.01630722
H        2.08892782       6.03188238       4.81701576       0.00000000       0.00371807       0.01630696
H        0.00000000       3.86403288       0.07766894       0.00000000      -0.01730738      -0.04206402
H        0.00000000       3.37251033       3.47786064       0.00000000       0.01730661      -0.04206402
H        2.08892782       0.24576134       0.07766887       0.00000000      -0.01730738      -0.04206402
H        2.08892782       6.99078172       3.47786056       0.00000000       0.01730712      -0.04206402
H        2.91608781       5.55667145       6.69125160      -0.02021453      -0.06270972       0.01846746
H        1.26176786       1.67987170       3.29105989       0.02021427       0.06270972       0.01846746
H        2.91608779       1.67987170       3.29105989      -0.02021427       0.06270972       0.01846746
H        1.26176783       5.55667145       6.69125160       0.02021453      -0.06270972       0.01846746
H        0.82716000       1.93839989       6.69125157      -0.02021453      -0.06270972       0.01846746
H        3.35069566       5.29814321       3.29105983       0.02021427       0.06270998       0.01846746
H        0.82715999       5.29814321       3.29105983      -0.02021427       0.06270998       0.01846746
H        3.35069565       1.93839989       6.69125157       0.02021453      -0.06270972       0.01846746
24
Lattice="4.177855647482834 0.0 0.0 0.0 7.236543146262318 0.0 0.0 0.0 6.800383372376405" Properties=species:S:1:pos:R:3:forces:R:3 energy=-3755.125352202307 free_energy=-3755.125352202307 stress="-0.02019212227346634 -0.0 -0.0 -0.0 -0.022550869186913732 0.0 -0.0 0.0 -0.02349289890010837" pbc="T T T"
O        0.00000000       4.83725638       0.39328279       0.00000000       0.06385155      -0.03327522
O        0.00000000       2.39928683       3.79347452       0.00000000      -0.06385206      -0.03327367
O        2.08892782       1.21898484       0.39328271       0.00000000       0.06385155      -0.03327470
O        2.08892782       6.01755825       3.79347443       0.00000000      -0.06385129      -0.03327419
O        2.08892782       6.04850037       6.34341622       0.00000000      -0.00067389       0.00138068
O        2.08892782       1.18804277       2.94322450       0.00000000       0.00067414       0.00138094
O        0.00000000       2.43022883       6.34341625       0.00000000      -0.00067389       0.00138068
O        0.00000000       4.80631432       2.94322445       0.00000000       0.00067414       0.00138120
H        0.00000000       4.82360708       1.41673585       0.00000000      -0.01418940       0.00942001
H        0.00000000       2.41293617       4.81692762       0.00000000       0.01418915       0.00941898
H        2.08892782       1.20533559       1.41673576       0.00000000      -0.01418966       0.00942026
H        2.08892782       6.03120755       4.81692751       0.00000000       0.01418966       0.00941949
H        0.00000000       3.86524088       0.07519391       0.00000000      -0.01204202      -0.01510549
H        0.00000000       3.37130230       3.47538560       0.00000000       0.01204228      -0.01510575
H        2.08892782       0.24696934       0.07519383       0.00000000      -0.01204202      -0.01510549
H        2.08892782       6.98957372       3.47538552       0.00000000       0.01204228      -0.01510523
H        2.91389702       5.55381525       6.69149493       0.00896749      -0.03588669       0.01878962
H        1.26395864       1.68272790       3.29130322      -0.00896749       0.03588669       0.01878962
H        2.91389700       1.68272790       3.29130322       0.00896749       0.03588669       0.01878962
H        1.26395863       5.55381525       6.69149493      -0.00896749      -0.03588669       0.01878962
H        0.82496920       1.93554369       6.69149490       0.00896749      -0.03588694       0.01878962
H        3.35288644       5.30099942       3.29130316      -0.00896724       0.03588694       0.01878962
H        0.82496921       5.30099942       3.29130316       0.00896724       0.03588694       0.01878962
H        3.35288644       1.93554369       6.69149490      -0.00896749      -0.03588694       0.01878962
24
Lattice="4.177855647482834 0.0 0.0 0.0 7.236543146262318 0.0 0.0 0.0 6.800383372376405" Properties=species:S:1:pos:R:3:forces:R:3 energy=-3755.126112488373 free_energy=-3755.126112488373 stress="-0.02052908611824454 -0.0 -0.0 -0.0 -0.021747481273614214 -0.0 -0.0 -0.0 -0.022487516311464967" pbc="T T T"
O        0.00000000       4.83882600       0.39253780       0.00000000       0.02165075      -0.01409453
O        0.00000000       2.39771720       3.79272956       0.00000000      -0.02165023      -0.01409530
O        2.08892782       1.22055445       0.39253773       0.00000000       0.02165049      -0.01409453
O        2.08892782       6.01598864       3.79272947       0.00000000      -0.02165023      -0.01409504
O        2.08892782       6.04910097       6.34456158       0.00000000      -0.02474455       0.00126010
O        2.08892782       1.18744217       2.94436988       0.00000000       0.02474430       0.00126010
O        0.00000000       2.43082944       6.34456162       0.00000000      -0.02474455       0.00126010
O        0.00000000       4.80571372       2.94436983       0.00000000       0.02474430       0.00126010
H        0.00000000       4.82361312       1.41670374       0.00000000      -0.01100201      -0.01021576
H        0.00000000       2.41293012       4.81689549       0.00000000       0.01100175      -0.01021551
H        2.08892782       1.20534162       1.41670366       0.00000000      -0.01100226      -0.01021576
H        2.08892782       6.03120151       4.81689540       0.00000000       0.01100226      -0.01021576
H        0.00000000       3.86591998       0.07372623       0.00000000       0.00767757      -0.00182445
H        0.00000000       3.37062321       3.47391792       0.00000000      -0.00767809      -0.00182445
H        2.08892782       0.24764842       0.07372615       0.00000000       0.00767757      -0.00182420
H        2.08892782       6.98889465       3.47391783       0.00000000      -0.00767783      -0.00182394
H        2.91304277       5.55167803       6.69204463       0.01651445      -0.01312214       0.01243720
H        1.26481288       1.68486512       3.29185292      -0.01651445       0.01312214       0.01243745
H        2.91304276       1.68486512       3.29185292       0.01651445       0.01312214       0.01243745
H        1.26481287       5.55167803       6.69204463      -0.01651445      -0.01312214       0.01243720
H        0.82411496       1.93340647       6.69204460       0.01651445      -0.01312214       0.01243745
H        3.35374069       5.30313664       3.29185286      -0.01651445       0.01312240       0.01243745
H        0.82411496       5.30313664       3.29185286       0.01651445       0.01312240       0.01243745
H        3.35374069       1.93340647       6.69204460      -0.01651445      -0.01312214       0.01243745
24
Lattice="4.177855647482834 0.0 0.0 0.0 7.236543146262318 0.0 0.0 0.0 6.800383372376405" Properties=species:S:1:pos:R:3:forces:R:3 energy=-3755.126387187293 free_energy=-3755.126387187293 stress="-0.02061172030361249 -0.0 -0.0 -0.0 -0.021259021422328103 0.0 -0.0 0.0 -0.022063327493242826" pbc="T T T"
O        0.00000000       4.83976916       0.39199495       0.00000000      -0.00352395      -0.00508179
O        0.00000000       2.39677405       3.79218669       0.00000000       0.00352344      -0.00508127
O        2.08892782       1.22149759       0.39199489       0.00000000      -0.00352395      -0.00508153
O        2.08892782       6.01504551       3.79218661       0.00000000       0.00352395      -0.00508127
O        2.08892782       6.04864036       6.34498554       0.00000000      -0.02866343       0.00331184
O        2.08892782       1.18790278       2.94479384       0.00000000       0.02866343       0.00331184
O        0.00000000       2.43036883       6.34498559       0.00000000      -0.02866343       0.00331184
O        0.00000000       4.80617433       2.94479381       0.00000000       0.02866343       0.00331210
H        0.00000000       4.82335450       1.41637055       0.00000000      -0.00496840      -0.01256524
H        0.00000000       2.41318873       4.81656230       0.00000000       0.00496840      -0.01256575
H        2.08892782       1.20508299       1.41637048       0.00000000      -0.00496866      -0.01256524
H        2.08892782       6.03146014       4.81656222       0.00000000       0.00496866      -0.01256550
H        0.00000000       3.86640830       0.07320732       0.00000000       0.01473114      -0.00060781
H        0.00000000       3.37013487       3.47339901       0.00000000      -0.01473088      -0.00060807
H        2.08892782       0.24813674       0.07320724       0.00000000       0.01473114      -0.00060781
H        2.08892782       6.98840633       3.47339894       0.00000000      -0.01473062      -0.00060755
H        2.91316083       5.55067519       6.69253011       0.01142033      -0.00356638       0.00747137
H        1.26469483       1.68586796       3.29233841      -0.01142033       0.00356638       0.00747137
H        2.91316082       1.68586796       3.29233841       0.01142033       0.00356638       0.00747137
H        1.26469482       5.55067519       6.69253011      -0.01142033      -0.00356638       0.00747137
H        0.82423301       1.93240363       6.69253008       0.01142033      -0.00356638       0.00747137
H        3.35362263       5.30413949       3.29233835      -0.01142033       0.00356638       0.00747137
H        0.82423301       5.30413949       3.29233835       0.01142033       0.00356638       0.00747137
H        3.35362264       1.93240363       6.69253008      -0.01142033      -0.00356638       0.00747137
24
Lattice="4.177855647482834 0.0 0.0 0.0 7.236543146262318 0.0 0.0 0.0 6.800383372376405" Properties=species:S:1:pos:R:3:forces:R:3 energy=-3755.1266129057217 free_energy=-3755.1266129057217 stress="-0.020809124190880376 -0.0 -0.0 -0.0 -0.02103223649137384 -0.0 -0.0 -0.0 -0.021767680741148602" pbc="T T T"
O        0.00000000       4.84052952       0.39136050       0.00000000      -0.01958564       0.00481670
O        0.00000000       2.39601367       3.79155225       0.00000000       0.01958589       0.00481568
O        2.08892782       1.22225795       0.39136045       0.00000000      -0.01958564       0.00481670
O        2.08892782       6.01428515       3.79155217       0.00000000       0.01958589       0.00481619
O        2.08892782       6.04737521       6.34542753       0.00000000      -0.02089021       0.00096751
O        2.08892782       1.18916793       2.94523584       0.00000000       0.02089021       0.00096725
O        0.00000000       2.42910368       6.34542758       0.00000000      -0.02089047       0.00096751
O        0.00000000       4.80743948       2.94523581       0.00000000       0.02089021       0.00096725
H        0.00000000       4.82298963       1.41577485       0.00000000       0.00195610      -0.00855792
H        0.00000000       2.41355359       4.81596658       0.00000000      -0.00195635      -0.00855715
H        2.08892782       1.20471811       1.41577479       0.00000000       0.00195584      -0.00855766
H        2.08892782       6.03182502       4.81596651       0.00000000      -0.00195584      -0.00855740
H        0.00000000       3.86717596       0.07271782       0.00000000       0.01043662      -0.00366639