36
Lattice="6.906822942435679 -3.9876559852870503 2.2177291619694937 0.0 7.975311970574101 2.2177291619694937 -6.906822942435679 -3.9876559852870503 2.2177291619694937" Properties=species:S:1:pos:R:3:forces:R:3 energy=-5627.821571352214 free_energy=-5627.821571352214 stress="0.08191343164001907 -0.0 0.0 -0.0 0.08191343164001907 0.0 0.0 0.0 0.060259602443155216" pbc="T T T"
O       -4.01286473      -4.30268132       2.55260660      -1.59781926       3.59570114       2.12690292
O        4.01286473       4.30268215       4.10058171       1.59781926      -3.59570114      -2.12690292
O        5.73266379      -1.32390175       2.55260660      -2.31505882      -3.18160261       2.12690292
O       -5.73266462       1.32390175       4.10058171       2.31505882       3.18160261      -2.12690292
O       -1.71979905       5.62658390       2.55260660       3.91287834      -0.41409853       2.12690292
O        1.71979905      -5.62658390       4.10058171      -3.91287834       0.41409853      -2.12690292
O        1.00839630       2.75148362       3.45965799      -2.39293677       1.69854762      -1.56493176
O       -1.00839630      -2.75148362       3.19353032       2.39293677      -1.69854762       1.56493176
O       -2.88705277      -0.50244489       3.45965799      -0.27451694      -2.92161806      -1.56493176
O        2.88705277       0.50244489       3.19353032       0.27451694       2.92161806       1.56493176
O        1.87865647      -2.24903874       3.45965799       2.66745397       1.22307017      -1.56493176
O       -1.87865647       2.24903791       3.19353032      -2.66745397      -1.22307017       1.56493176
H       -4.45490150      -3.33766877       2.31530928       0.84188202      -2.26224631      -0.61551130
H        4.45490150       3.33766877       4.33787904      -0.84188202       2.26224631       0.61551130
H        5.11795707      -2.18922332       2.31530928       1.53822186       1.86021448      -0.61551130
H       -5.11795707       2.18922332       4.33787904      -1.53822186      -1.86021448       0.61551130
H       -0.66305557       5.52689209       2.31530928      -2.38010388       0.40203183      -0.61551130
H        0.66305557      -5.52689209       4.33787904       2.38010388      -0.40203183       0.61551130
H       -4.03358519      -3.98765681       3.58163313       0.65206853      -1.48156991      -1.72645772
H        4.03358519       3.98765681       3.07155518      -0.65206853       1.48156991       1.72645772
H        5.47020490      -1.49935888       3.58163313       0.95704276       1.30549280      -1.72645772
H       -5.47020490       1.49935888       3.07155518      -0.95704276      -1.30549280       1.72645772
H       -1.43661970       5.48701570       3.58163313      -1.60911129       0.17607711      -1.72645772
H        1.43661970      -5.48701570       3.07155518       1.60911129      -0.17607711       1.72645772
H        2.23781057      -1.24414897       3.35986022      -0.89275387      -1.99925151       0.40995006
H       -2.23781139       1.24414897       3.29332810       0.89275387       1.99925151      -0.40995006
H       -0.04144092       2.56007577       3.35986022       2.17777940       0.22647819       0.40995006
H        0.04144092      -2.56007577       3.29332810      -2.17777940      -0.22647819      -0.40995006
H       -2.19636965      -1.31592681       3.35986022      -1.28502553       1.77277306       0.40995006
H        2.19636965       1.31592681       3.29332810       1.28502553      -1.77277306      -0.40995006
H        2.63150015      -2.77142182       2.89191936      -2.00105462       0.88215218       1.40897122
H       -2.63150015       2.77142182       3.76126896       2.00105462      -0.88215218      -1.40897122
H        1.08437187       3.66465653       2.89191936       0.23656103      -2.17404024       1.40897122
H       -1.08437104      -3.66465653       3.76126896      -0.23656103       2.17404024      -1.40897122
H       -3.71587119      -0.89323471       2.89191936       1.76449359       1.29188781       1.40897122
H        3.71587119       0.89323471       3.76126896      -1.76449359      -1.29188781      -1.40897122
