36
Lattice="6.906822942435679 -3.9876559852870503 2.2177291619694937 0.0 7.975311970574101 2.2177291619694937 -6.906822942435679 -3.9876559852870503 2.2177291619694937" Properties=species:S:1:pos:R:3:forces:R:3 energy=-5629.777852977419 free_energy=-5629.777852977419 stress="0.07167872870339079 0.0 0.0 0.0 0.07167872870339079 0.0 0.0 0.0 0.06656734525957544" pbc="T T T"
O       -4.06455703      -4.30925482       2.52674721      -0.60080356       2.01712556       1.24100259
O        4.06455703       4.30925482       4.12644110       0.60080356      -2.01712556      -1.24100259
O        5.76420266      -1.36538241       2.52674721      -1.44648027      -1.52887384       1.24100259
O       -5.76420266       1.36538241       4.12644110       1.44648027       1.52887384      -1.24100259
O       -1.69964563       5.67463723       2.52674721       2.04728383      -0.48825172       1.24100259
O        1.69964563      -5.67463723       4.12644110      -2.04728383       0.48825172      -1.24100259
O        1.01807650       2.73422002       3.47366837      -1.59681704       1.26392140      -0.98094270
O       -1.01807650      -2.73422002       3.17951995       1.59681704      -1.26392140       0.98094270
O       -2.87694212      -0.48542962       3.47366837      -0.29617977      -2.01484474      -0.98094270
O        2.87694212       0.48542962       3.17951995       0.29617977       2.01484474       0.98094270
O        1.85886562      -2.24879040       3.47366837       1.89299656       0.75092333      -0.98094270
O       -1.85886562       2.24878957       3.17951995      -1.89299656      -0.75092333       0.98094270
H       -4.50895052      -3.41606150       2.14988664       0.85539857      -1.66465174       0.88380797
H        4.50895052       3.41606150       4.50330167      -0.85539857       1.66465174      -0.88380797
H        5.21287169      -2.19683487       2.14988664       1.01393150       1.57312278       0.88380797
H       -5.21287169       2.19683487       4.50330167      -1.01393150      -1.57312278      -0.88380797
H       -0.70392117       5.61289636       2.14988664      -1.86933007       0.09152896       0.88380797
H        0.70392117      -5.61289636       4.50330167       1.86933007      -0.09152896      -0.88380797
H       -3.91246681      -4.07773713       3.55020519      -0.36673933      -0.34423086      -2.07888140
H        3.91246681       4.07773796       3.10298313       0.36673933       0.34423086       2.07888140
H        5.48765806      -1.34942672       3.55020519       0.48148252      -0.14549024      -2.07888140
H       -5.48765806       1.34942672       3.10298313      -0.48148252       0.14549024       2.07888140
H       -1.57519125       5.42716468       3.55020519      -0.11474293       0.48972110      -2.07888140
H        1.57519125      -5.42716468       3.10298313       0.11474293      -0.48972110       2.07888140
H        2.21598914      -1.24767701       3.43626459      -0.59192657      -2.00071652      -0.00394382
H       -2.21598914       1.24767619       3.21692455       0.59192657       2.00071652       0.00394382
H       -0.02747524       2.54294131       3.43626459       2.02863485       0.48773467      -0.00394382
H        0.02747524      -2.54294131       3.21692455      -2.02863485      -0.48773467       0.00394382
H       -2.18851390      -1.29526429       3.43626459      -1.43670802       1.51298185      -0.00394382
H        2.18851390       1.29526512       3.21692455       1.43670802      -1.51298185       0.00394382
H        2.56858961      -2.82810487       2.94358848      -1.40651761       1.31544451       1.07425138
H       -2.56858961       2.82810487       3.70959984       1.40651761      -1.31544451      -1.07425138
H        1.16491603       3.63851651       2.94358848      -0.43594957      -1.87580230       1.07425138
H       -1.16491603      -3.63851651       3.70959984       0.43594957       1.87580230      -1.07425138
H       -3.73350564      -0.81041081       2.94358848       1.84246718       0.56035754       1.07425138
H        3.73350564       0.81041081       3.70959984      -1.84246718      -0.56035754      -1.07425138
