36
Lattice="6.0239956543349376 -3.4779554256071186 1.9342599260963327 0.0 6.955910851214237 1.9342599260963327 -6.0239956543349376 -3.4779554256071186 1.9342599260963327" Properties=species:S:1:pos:R:3:forces:R:3 energy=-5628.195205693909 free_energy=-5628.195205693909 stress="-0.1626277494345877 -0.0 0.0 -0.0 -0.1626277494345877 -0.0 0.0 -0.0 -0.15717756583076375" pbc="T T T"
O       -3.54502701      -3.75844763       2.20377941       1.07772083      -3.66846182      -2.23121438
O        3.54502701       3.75844763       3.59900109      -1.07772083       3.66846182       2.23121438
O        5.02742463      -1.19085979       2.20377941       2.63812076       2.76756450      -2.23121438
O       -5.02742463       1.19085979       3.59900109      -2.63812076      -2.76756450       2.23121438
O       -1.48239762       4.94930741       2.20377941      -3.71584159       0.90089732      -2.23121438
O        1.48239762      -4.94930741       3.59900109       3.71584159      -0.90089732       2.23121438
O        0.88794638       2.38473314       3.02966550       2.92126787      -2.26620478       1.80108142
O       -0.88794638      -2.38473314       2.77311500      -2.92126787       2.26620478      -1.80108142
O       -2.50921255      -0.42338221       3.02966550       0.50195698       3.66299462       1.80108142
O        2.50921255       0.42338221       2.77311500      -0.50195698      -3.66299462      -1.80108142
O        1.62126617      -1.96135093       3.02966550      -3.42322486      -1.39678984       1.80108142
O       -1.62126617       1.96135021       2.77311500       3.42322486       1.39678984      -1.80108142
H       -3.93261831      -2.97942191       1.87508901      -1.51576610       2.96600892      -1.48636862
H        3.93261831       2.97942191       3.92769149       1.51576610      -2.96600892       1.48636862
H        4.54656456      -1.91603633       1.87508901      -1.81075597      -2.79569622      -1.48636862
H       -4.54656456       1.91603633       3.92769149       1.81075597       2.79569622       1.48636862
H       -0.61394625       4.89545824       1.87508901       3.32652207      -0.17031244      -1.48636862
H        0.61394625      -4.89545824       3.92769149      -3.32652207       0.17031244       1.48636862
H       -3.41237690      -3.55652244       3.09641941       0.68444026       0.64459562       3.70485990
H        3.41237690       3.55652316       2.70636109      -0.68444026      -0.64459562      -3.70485990
H        4.78622785      -1.17694355       3.09641941      -0.90045638       0.27044483       3.70485990
H       -4.78622785       1.17694355       2.70636109       0.90045638      -0.27044483      -3.70485990
H       -1.37385095       4.73346671       3.09641941       0.21601612      -0.91504070       3.70485990
H        1.37385095      -4.73346671       2.70636109      -0.21601612       0.91504070      -3.70485990
H        1.93274232      -1.08819945       2.99704265       1.10636523       3.56886654      -0.01765936
H       -1.93274232       1.08819873       2.80573857      -1.10636523      -3.56886654       0.01765936
H       -0.02396337       2.21790359       2.99704265      -3.64391164      -0.82629291      -0.01765936
H        0.02396337      -2.21790359       2.80573857       3.64391164       0.82629291       0.01765936
H       -1.90877895      -1.12970414       2.99704265       2.53754641      -2.74257363      -0.01765936
H        1.90877895       1.12970486       2.80573857      -2.53754641       2.74257363       0.01765936
H        2.24027354      -2.46661766       2.56734020       2.49357746      -2.28493964      -1.91845382
H       -2.24027354       2.46661766       3.23544030      -2.49357746       2.28493964       1.91845382
H        1.01601694       3.17344282       2.56734020       0.73202701       3.30197137      -1.91845382
H       -1.01601694      -3.17344282       3.23544030      -0.73202701      -3.30197137       1.91845382
H       -3.25629048      -0.70682443       2.56734020      -3.22560447      -1.01703174      -1.91845382
H        3.25629048       0.70682443       3.23544030       3.22560447       1.01703174       1.91845382
