24
Lattice="4.177855647482834 0.0 0.0 0.0 7.236543146262318 0.0 0.0 0.0 6.800383372376405" Properties=species:S:1:pos:R:3:forces:R:3 energy=-3753.255246716838 free_energy=-3753.255246716838 stress="-0.10422741616221136 -0.0 -0.0 -0.0 -0.10910099678369005 0.0 -0.0 0.0 -0.12370429365343732" pbc="T T T"
O        0.00000000       4.79821123       0.41127479       0.00000000       2.83383802      -2.53284643
O        0.00000000       2.43833192       3.81146648       0.00000000      -2.83384368      -2.53284515
O        2.08892782       1.17993965       0.41127438       0.00000000       2.83384188      -2.53284952
O        2.08892782       6.05660391       3.81146648       0.00000000      -2.83384419      -2.53284592
O        2.08892782       6.01712860       6.34505518       0.00000000       2.74406976      -1.93151965
O        2.08892782       1.21941496       2.94486349       0.00000000      -2.74407387      -1.93152454
O        0.00000000       2.39885703       6.34505476       0.00000000       2.74407387      -1.93152762
O        0.00000000       4.83768653       2.94486308       0.00000000      -2.74407773      -1.93152711
H        0.00000000       4.79927742       1.34388456       0.00000000       0.12151111       3.54424385
H        0.00000000       2.43726573       4.74407625       0.00000000      -0.12151008       3.54424694
H        2.08892782       1.18100584       1.34388456       0.00000000       0.12151034       3.54424745
H        2.08892782       6.05553730       4.74407625       0.00000000      -0.12151008       3.54425157
H        0.00000000       3.89944084       0.13166220       0.00000000      -2.81420019      -1.09848660
H        0.00000000       3.33710272       3.53185388       0.00000000       2.81420534      -1.09848737
H        2.08892782       0.28116885       0.13166220       0.00000000      -2.81420276      -1.09848737
H        2.08892782       6.95537430       3.53185388       0.00000000       2.81420611      -1.09848763
H        2.84958958       5.58389751       6.68987115       2.48266878      -1.46705989       1.00930506
H        1.32826606       1.65264606       3.28967947      -2.48267058       1.46706169       1.00930634
H        2.84958958       1.65264606       3.28967947       2.48267058       1.46706169       1.00930634
H        1.32826606       5.58389751       6.68987115      -2.48266878      -1.46705989       1.00930506
H        0.76066176       1.96562552       6.68987115       2.48266904      -1.46706067       1.00930506
H        3.41719389       5.27091763       3.28967947      -2.48267058       1.46706195       1.00930609
H        0.76066176       5.27091763       3.28967947       2.48267058       1.46706195       1.00930609
H        3.41719389       1.96562552       6.68987115      -2.48266904      -1.46706067       1.00930506
