24
Lattice="4.501999442219337 0.0 0.0 0.0 7.797998771857516 0.0 0.0 0.0 7.327999034088702" Properties=species:S:1:pos:R:3:forces:R:3 energy=-3755.3995784606927 free_energy=-3755.3995784606927 stress="0.01837325203775623 -0.0 -0.0 -0.0 0.013737474238614196 -0.0 -0.0 -0.0 0.007757513690820167" pbc="T T T"
O        0.00000000       5.17048603       0.44318403       0.00000000      -0.15670385      -0.10391062
O        0.00000000       2.62751274       4.10718355       0.00000000       0.15669794      -0.10391216
O        2.25099972       1.27148665       0.44318358       0.00000000      -0.15670565      -0.10391191
O        2.25099972       6.52651258       4.10718355       0.00000000       0.15670411      -0.10391139
O        2.25099972       6.48397453       6.83734367       0.00000000      -0.10368333       0.32554280
O        2.25099972       1.31402469       3.17334416       0.00000000       0.10368745       0.32554357
O        0.00000000       2.58497515       6.83734322       0.00000000      -0.10368179       0.32554228
O        0.00000000       5.21302407       3.17334371       0.00000000       0.10367691       0.32554357
H        0.00000000       5.17163494       1.44815141       0.00000000      -0.04090548      -0.02841249
H        0.00000000       2.62636383       5.11215092       0.00000000       0.04090548      -0.02840786
H        2.25099972       1.27263556       1.44815141       0.00000000      -0.04090702      -0.02842097
H        2.25099972       6.52536321       5.11215092       0.00000000       0.04090779      -0.02842200
H        0.00000000       4.20198350       0.14187736       0.00000000       0.33761541       0.08545190
H        0.00000000       3.59601572       3.80587688       0.00000000      -0.33761361       0.08545087
H        2.25099972       0.30298366       0.14187736       0.00000000       0.33762853       0.08545833
H        2.25099972       7.49501511       3.80587688       0.00000000      -0.33762390       0.08545756
H        3.07067831       6.01713070       7.20891260      -0.37546179      -0.01063897      -0.13933554
H        1.43132113       1.78086852       3.54491308       0.37546488       0.01063743      -0.13933759
H        3.07067831       1.78086852       3.54491308      -0.37546488       0.01063743      -0.13933759
H        1.43132113       6.01713070       7.20891260       0.37546179      -0.01063897      -0.13933554
H        0.81967859       2.11813086       7.20891260      -0.37545485      -0.01064051      -0.13933477
H        3.68232085       5.67986791       3.54491308       0.37545100       0.01064231      -0.13933297
H        0.81967859       5.67986791       3.54491308      -0.37545100       0.01064231      -0.13933297
H        3.68232085       2.11813086       7.20891260       0.37545485      -0.01064051      -0.13933477
