24
Lattice="4.696999655965992 0.0 0.0 0.0 4.696999655965992 0.0 0.0 0.0 6.773998812835185" Properties=species:S:1:pos:R:3:forces:R:3 energy=-3753.8486166567836 free_energy=-3753.8486166567836 stress="-0.010018017739441217 -0.0 -0.0 -0.0 -0.010034544576514808 0.0 -0.0 0.0 -0.010222766887630696" pbc="T T T"
O        0.00000000       1.17424991       4.11766092       0.00000000       0.00001080       0.00240758
O        0.00000000       3.52274974       2.65633884       0.00000000      -0.00001080      -0.00240758
O        2.34849983       3.52274974       0.73066057       0.00000000       0.00000823       0.00239035
O        2.34849983       1.17424991       6.04333871       0.00000000      -0.00000823      -0.00239035
O        0.00000000       3.52274974       5.81117870       0.00000000       0.00000360       0.00259193
O        0.00000000       1.17424991       0.96282058       0.00000000      -0.00000360      -0.00259193
O        2.34849983       1.17424991       2.42417930       0.00000000       0.00000077       0.00255773
O        2.34849983       3.52274974       4.34981999       0.00000000      -0.00000077      -0.00255773
H        0.00000000       1.96649332       4.71650066       0.00000000       0.00222015       0.01810519
H        0.00000000       2.73050634       2.05749862       0.00000000      -0.00222015      -0.01810519
H        2.34849983       2.73050634       1.32950078       0.00000000      -0.00222195       0.01810931
H        2.34849983       1.96649332       5.44449850       0.00000000       0.00222195      -0.01810931
H        3.90475109       3.52274974       6.41001140      -0.00220086       0.00000129       0.01817384
H        0.79224857       1.17424991       0.36398835       0.00220086      -0.00000129      -0.01817384
H        3.14074840       1.17424991       3.02301199       0.00220318       0.00000077       0.01818053
H        1.55625126       3.52274974       3.75098776      -0.00220318      -0.00000077      -0.01818053
H        3.14074840       3.52274974       3.75098776       0.00220318      -0.00000077      -0.01818053
H        1.55625126       1.17424991       3.02301199      -0.00220318       0.00000077       0.01818053
H        3.90475109       1.17424991       0.36398835      -0.00220086      -0.00000129      -0.01817384
H        0.79224857       3.52274974       6.41001140       0.00220086       0.00000129       0.01817384
H        2.34849983       4.31499314       1.32950078       0.00000000       0.00221783       0.01810597
H        2.34849983       0.38200651       5.44449850       0.00000000      -0.00221783      -0.01810597
H        0.00000000       0.38200651       4.71650066       0.00000000      -0.00222503       0.01810905
H        0.00000000       4.31499314       2.05749909       0.00000000       0.00222503      -0.01810905
