24
Lattice="4.696999655965992 0.0 0.0 0.0 4.696999655965992 0.0 0.0 0.0 6.773998812835185" Properties=species:S:1:pos:R:3:forces:R:3 energy=-3753.646602064104 free_energy=-3753.646602064104 stress="-0.049019516917883525 -0.0 -0.0 -0.0 -0.04904338901587871 0.0 -0.0 0.0 -0.050720862978848105" pbc="T T T"
O        0.00000000       1.17424991       4.12448519       0.00000000      -0.00000386      -1.15356991
O        0.00000000       3.52274974       2.64951457       0.00000000       0.00000386       1.15356991
O        2.34849983       3.52274974       0.73748531       0.00000000      -0.00000129      -1.15356760
O        2.34849983       1.17424991       6.03651397       0.00000000       0.00000129       1.15356760
O        0.00000000       3.52274974       5.81798512      -0.00000000      -0.00000026      -1.15338248
O        0.00000000       1.17424991       0.95601463      -0.00000000       0.00000026       1.15338248
O        2.34849983       1.17424991       2.43098525      -0.00000000      -0.00000026      -1.15333646
O        2.34849983       3.52274974       4.34301403      -0.00000000       0.00000026       1.15333646
H        0.00000000       1.94573211       4.71009724       0.00000000       0.88232727       0.58750427
H        0.00000000       2.75126755       2.06390204       0.00000000      -0.88232727      -0.58750427
H        2.34849983       2.75126755       1.32309783       0.00000000      -0.88232547       0.58750144
H        2.34849983       1.94573211       5.45090192       0.00000000       0.88232547      -0.58750144
H        3.92551746       3.52274974       6.40359718      -0.88242163       0.00000026       0.58750659
H        0.77148219       1.17424991       0.37040210       0.88242163      -0.00000026      -0.58750659
H        3.11998202       1.17424991       3.01659730       0.88242215       0.00000026       0.58751018
H        1.57701763       3.52274974       3.75740198      -0.88242215      -0.00000026      -0.58751018
H        3.11998202       3.52274974       3.75740198       0.88242215      -0.00000026      -0.58751018
H        1.57701763       1.17424991       3.01659730      -0.88242215       0.00000026       0.58751018
H        3.92551746       1.17424991       0.37040210      -0.88242163      -0.00000026      -0.58750659
H        0.77148219       3.52274974       6.40359718       0.88242163       0.00000026       0.58750659
H        2.34849983       4.29423194       1.32309783       0.00000000       0.88232676       0.58750144
H        2.34849983       0.40276772       5.45090192       0.00000000      -0.88232676      -0.58750144
H        0.00000000       0.40276772       4.71009724       0.00000000      -0.88232521       0.58750401
H        0.00000000       4.29423194       2.06390204       0.00000000       0.88232521      -0.58750401
