24
Lattice="5.007001718986455 0.0 0.0 0.0 5.007001718986455 0.0 0.0 0.0 7.221082858117108" Properties=species:S:1:pos:R:3:forces:R:3 energy=-3753.2804708533395 free_energy=-3753.2804708533395 stress="0.06175711751354552 -0.0 -0.0 -0.0 0.06175344488308472 0.0 -0.0 0.0 0.062960822147072" pbc="T T T"
O        0.00000000       1.25175043       4.39670128      -0.00000000       0.00000103       1.68449757
O        0.00000000       3.75525129       2.82438258      -0.00000000      -0.00000103      -1.68449757
O        2.50350086       3.75525129       0.78615935       0.00000000       0.00000051       1.68447906
O        2.50350086       1.25175043       6.43492400       0.00000000      -0.00000051      -1.68447906
O        0.00000000       3.75525129       6.20197225      -0.00000000       0.00000026       1.68599704
O        0.00000000       1.25175043       1.01911161      -0.00000000      -0.00000026      -1.68599704
O        2.50350086       1.25175043       2.59143032       0.00000000       0.00000051       1.68599678
O        2.50350086       3.75525129       4.62965304       0.00000000      -0.00000051      -1.68599678
H        0.00000000       2.07415046       5.02096374       0.00000000      -1.30240773      -0.85175017
H        0.00000000       2.93285126       2.20011962       0.00000000       1.30240773       0.85175017
H        2.50350086       2.93285126       1.41042231       0.00000000       1.30241082      -0.85175223
H        2.50350086       2.07415046       5.81066155       0.00000000      -1.30241082       0.85175223
H        4.18460169       3.75525129       6.82623471       1.30237817      -0.00000026      -0.85172883
H        0.82240003       1.25175043       0.39484865      -1.30237817       0.00000026       0.85172883
H        3.32590089       1.25175043       3.21569278      -1.30237662      -0.00000026      -0.85172780
H        1.68110083       3.75525129       4.00539058       1.30237662       0.00000026       0.85172780
H        3.32590089       3.75525129       4.00539058      -1.30237662       0.00000026       0.85172780
H        1.68110083       1.25175043       3.21569278       1.30237662      -0.00000026      -0.85172780
H        4.18460169       1.25175043       0.39484865       1.30237817       0.00000026       0.85172883
H        0.82240003       3.75525129       6.82623471      -1.30237817      -0.00000026      -0.85172883
H        2.50350086       4.57765132       1.41042231       0.00000000      -1.30241108      -0.85175223
H        2.50350086       0.42935040       5.81066155       0.00000000       1.30241108       0.85175223
H        0.00000000       0.42935040       5.02096374       0.00000000       1.30240773      -0.85174991
H        0.00000000       4.57765132       2.20011962       0.00000000      -1.30240773       0.85174991
24
Lattice="5.007001718986455 0.0 0.0 0.0 5.007001718986455 0.0 0.0 0.0 7.221082858117108" Properties=species:S:1:pos:R:3:forces:R:3 energy=-3753.798923499682 free_energy=-3753.798923499682 stress="0.005578725669951869 -0.0 -0.0 -0.0 0.005590661718949462 -0.0 -0.0 -0.0 -0.006429857779241761" pbc="T T T"
O        0.00000000       1.25175045       4.43137078       0.00000000      -0.00000154      -0.73319737
O        0.00000000       3.75525127       2.78971229       0.00000000       0.00000154       0.73319737
O        2.50350086       3.75525130       0.82082876       0.00000000      -0.00000077      -0.73318966
O        2.50350086       1.25175042       6.40025389       0.00000000       0.00000077       0.73318966
O        0.00000000       3.75525130       6.23667236       0.00000000      -0.00000000      -0.73207843
O        0.00000000       1.25175042       0.98441071       0.00000000       0.00000000       0.73207843
O        2.50350086       1.25175044       2.62613071       0.00000000      -0.00000000      -0.73207689
O        2.50350086       3.75525128       4.59495194       0.00000000       0.00000000       0.73207689
H        0.00000000       2.04734460       5.00343293       0.00000000       0.08322275       0.33573439
H        0.00000000       2.95965697       2.21764993       0.00000000      -0.08322275      -0.33573439
H        2.50350086       2.95965703       1.39289145       0.00000000      -0.08321761       0.33572771
H        2.50350086       2.04734454       5.82819141       0.00000000       0.08321761      -0.33572771
H        4.21140679       3.75525129       6.80870408      -0.08380434       0.00000000       0.33629155
H        0.79559478       1.25175043       0.41237878       0.08380434      -0.00000000      -0.33629155
H        3.29909582       1.25175043       3.19816267       0.08380279       0.00000000       0.33629052
H        1.70790605       3.75525129       4.02292019      -0.08380279      -0.00000000      -0.33629052
H        3.29909582       3.75525129       4.02292019       0.08380279      -0.00000000      -0.33629052
H        1.70790605       1.25175043       3.19816267      -0.08380279       0.00000000       0.33629052
H        4.21140679       1.25175043       0.41237878      -0.08380434      -0.00000000      -0.33629155
H        0.79559478       3.75525129       6.80870408       0.08380434       0.00000000       0.33629155
H        2.50350086       4.55084555       1.39289145       0.00000000       0.08321838       0.33572822
H        2.50350086       0.45615632       5.82819141       0.00000000      -0.08321838      -0.33572822
H        0.00000000       0.45615626       5.00343293       0.00000000      -0.08322121       0.33573311
H        0.00000000       4.55084561       2.21764993       0.00000000       0.08322121      -0.33573311
24
Lattice="5.007001718986455 0.0 0.0 0.0 5.007001718986455 0.0 0.0 0.0 7.221082858117108" Properties=species:S:1:pos:R:3:forces:R:3 energy=-3753.8499958657753 free_energy=-3753.8499958657753 stress="0.01693082642427789 -0.0 -0.0 -0.0 0.016936335369969087 0.0 -0.0 0.0 0.00989498461900449" pbc="T T T"
O        0.00000000       1.25175043       4.42011433      -0.00000000       0.00000103      -0.08958675
O        0.00000000       3.75525129       2.80096874      -0.00000000      -0.00000103       0.08958675
O        2.50350086       3.75525129       0.80957243       0.00000000       0.00000051      -0.08958623
O        2.50350086       1.25175043       6.41151022       0.00000000      -0.00000051       0.08958623
O        0.00000000       3.75525130       6.22543474       0.00000000      -0.00000000      -0.08869303
O        0.00000000       1.25175042       0.99564833       0.00000000       0.00000000       0.08869303
O        2.50350086       1.25175044       2.61489313       0.00000000      -0.00000000      -0.08869355
O        2.50350086       3.75525128       4.60618952       0.00000000       0.00000000       0.08869355
H        0.00000000       2.04816914       5.00855451       0.00000000      -0.19105610       0.02595194
H        0.00000000       2.95883243       2.21252835       0.00000000       0.19105610      -0.02595194
H        2.50350086       2.95883257       1.39801293       0.00000000       0.19105302       0.02595246
H        2.50350086       2.04816900       5.82306993       0.00000000      -0.19105302      -0.02595246
H        4.21057276       3.75525129       6.81383475       0.19070001       0.00000000       0.02653584
H        0.79642881       1.25175043       0.40724811      -0.19070001      -0.00000000      -0.02653584
H        3.29992983       1.25175043       3.20329333      -0.19070001       0.00000000       0.02653610
H        1.70707204       3.75525129       4.01778953       0.19070001      -0.00000000      -0.02653610
H        3.29992983       3.75525129       4.01778953      -0.19070001      -0.00000000      -0.02653610
H        1.70707204       1.25175043       3.20329333       0.19070001       0.00000000       0.02653610
H        4.21057276       1.25175043       0.40724811       0.19070001      -0.00000000      -0.02653584
H        0.79642881       3.75525129       6.81383475      -0.19070001       0.00000000       0.02653584
H        2.50350086       4.55167002       1.39801294       0.00000000      -0.19105353       0.02595194
H        2.50350086       0.45533185       5.82306992       0.00000000       0.19105353      -0.02595194
H        0.00000000       0.45533174       5.00855450       0.00000000       0.19105508       0.02595272
H        0.00000000       4.55167013       2.21252836       0.00000000      -0.19105508      -0.02595272
24
Lattice="5.007001718986455 0.0 0.0 0.0 5.007001718986455 0.0 0.0 0.0 7.221082858117108" Properties=species:S:1:pos:R:3:forces:R:3 energy=-3753.8635774756335 free_energy=-3753.8635774756335 stress="0.01453718952145292 -0.0 -0.0 -0.0 0.01453810767906812 -0.0 -0.0 -0.0 0.010589111776095277" pbc="T T T"
O        0.00000000       1.25175045       4.41617870       0.00000000      -0.00000077      -0.02658392
O        0.00000000       3.75525127       2.80490437       0.00000000       0.00000077       0.02658392
O        2.50350086       3.75525130       0.80563683       0.00000000      -0.00000051      -0.02658444
O        2.50350086       1.25175042       6.41544582       0.00000000       0.00000051       0.02658444
O        0.00000000       3.75525130       6.22152365       0.00000000      -0.00000000      -0.02578816
O        0.00000000       1.25175042       0.99955941       0.00000000       0.00000000       0.02578816
O        2.50350086       1.25175044       2.61098204       0.00000000      -0.00000000      -0.02578894
O        2.50350086       3.75525128       4.61010061       0.00000000       0.00000000       0.02578894
H        0.00000000       2.04367725       5.00998788       0.00000000      -0.12707703      -0.00780021
H        0.00000000       2.96332432       2.21109497       0.00000000       0.12707703       0.00780021
H        2.50350086       2.96332442       1.39944629       0.00000000       0.12707575      -0.00780021
H        2.50350086       2.04367715       5.82163657       0.00000000      -0.12707575       0.00780021
H        4.21505461       3.75525129       6.81528317       0.12691402       0.00000000      -0.00718083
H        0.79194696       1.25175043       0.40579968      -0.12691402      -0.00000000       0.00718083
H        3.29544797       1.25175043       3.20474175      -0.12691402       0.00000000      -0.00718058
H        1.71155390       3.75525129       4.01634111       0.12691402      -0.00000000       0.00718058
H        3.29544797       3.75525129       4.01634111      -0.12691402      -0.00000000       0.00718058
H        1.71155390       1.25175043       3.20474175       0.12691402       0.00000000      -0.00718058
H        4.21505461       1.25175043       0.40579968       0.12691402      -0.00000000       0.00718083
H        0.79194696       3.75525129       6.81528317      -0.12691402       0.00000000      -0.00718083
H        2.50350086       4.54717816       1.39944629       0.00000000      -0.12707523      -0.00779996
H        2.50350086       0.45982371       5.82163657       0.00000000       0.12707523       0.00779996
H        0.00000000       0.45982361       5.00998788       0.00000000       0.12707780      -0.00780073
H        0.00000000       4.54717826       2.21109497       0.00000000      -0.12707780       0.00780073
24
Lattice="5.007001718986455 0.0 0.0 0.0 5.007001718986455 0.0 0.0 0.0 7.221082858117108" Properties=species:S:1:pos:R:3:forces:R:3 energy=-3753.870326443059 free_energy=-3753.870326443059 stress="0.01118866869882052 -0.0 -0.0 -0.0 0.011184077910744522 0.0 -0.0 0.0 0.010134623756571547" pbc="T T T"
O        0.00000000       1.25175041       4.41254783       0.00000000       0.00000257      -0.00657920
O        0.00000000       3.75525131       2.80853524       0.00000000      -0.00000257       0.00657920
O        2.50350086       3.75525128       0.80200597       0.00000000       0.00000129      -0.00657842
O        2.50350086       1.25175044       6.41907668       0.00000000      -0.00000129       0.00657842
O        0.00000000       3.75525129       6.21792887       0.00000000      -0.00000000      -0.00600841
O        0.00000000       1.25175042       1.00315419       0.00000000       0.00000000       0.00600841
O        2.50350086       1.25175044       2.60738725       0.00000000      -0.00000000      -0.00600841
O        2.50350086       3.75525128       4.61369540       0.00000000       0.00000000       0.00600841
H        0.00000000       2.03856459       5.01086007       0.00000000      -0.03029839      -0.01595549
H        0.00000000       2.96843698       2.21022279       0.00000000       0.03029839       0.01595549
H        2.50350086       2.96843704       1.40031845       0.00000000       0.03029608      -0.01595421
H        2.50350086       2.03856453       5.82076441       0.00000000      -0.03029608       0.01595421
H        4.22015821       3.75525129       6.81618147       0.03027680      -0.00000000      -0.01527570
H        0.78684336       1.25175043       0.40490138      -0.03027680       0.00000000       0.01527570
H        3.29034436       1.25175043       3.20564006      -0.03027705      -0.00000000      -0.01527595
H        1.71665751       3.75525129       4.01544280       0.03027705       0.00000000       0.01527595
H        3.29034436       3.75525129       4.01544280      -0.03027705       0.00000000       0.01527595
H        1.71665751       1.25175043       3.20564006       0.03027705      -0.00000000      -0.01527595
H        4.22015821       1.25175043       0.40490138       0.03027680       0.00000000       0.01527570
H        0.78684336       3.75525129       6.81618147      -0.03027680      -0.00000000      -0.01527570
H        2.50350086       4.54206555       1.40031846       0.00000000      -0.03029737      -0.01595498
H        2.50350086       0.46493632       5.82076440       0.00000000       0.03029737       0.01595498
H        0.00000000       0.46493631       5.01086005       0.00000000       0.03029582      -0.01595344
H        0.00000000       4.54206556       2.21022281       0.00000000      -0.03029582       0.01595344
24
Lattice="5.007001718986455 0.0 0.0 0.0 5.007001718986455 0.0 0.0 0.0 7.221082858117108" Properties=species:S:1:pos:R:3:forces:R:3 energy=-3753.870758015608 free_energy=-3753.870758015608 stress="0.0100473987831276 -0.0 -0.0 -0.0 0.010042807995051603 -0.0 -0.0 -0.0 0.009720534672116594" pbc="T T T"
O        0.00000000       1.25175048       4.41143387       0.00000000      -0.00000386      -0.01117993
O        0.00000000       3.75525124       2.80964920       0.00000000       0.00000386       0.01117993
O        2.50350086       3.75525131       0.80089203       0.00000000      -0.00000180      -0.01118018
O        2.50350086       1.25175041       6.42019062       0.00000000       0.00000180       0.01118018
O        0.00000000       3.75525129       6.21683551      -0.00000000       0.00000000      -0.01052892
O        0.00000000       1.25175043       1.00424756      -0.00000000      -0.00000000       0.01052892
O        2.50350086       1.25175044       2.60629388       0.00000000      -0.00000000      -0.01052918
O        2.50350086       3.75525128       4.61478877       0.00000000       0.00000000       0.01052918
H        0.00000000       2.03709554       5.01076594       0.00000000       0.00159871      -0.01318976
H        0.00000000       2.96990603       2.21031691       0.00000000      -0.00159871       0.01318976
H        2.50350086       2.96990604       1.40022434       0.00000000      -0.00159640      -0.01319156
H        2.50350086       2.03709553       5.82085851       0.00000000       0.00159640       0.01319156
H        4.22162506       3.75525129       6.81610901      -0.00153161       0.00000000      -0.01256652
H        0.78537651       1.25175043       0.40497385       0.00153161      -0.00000000       0.01256652
H        3.28887751       1.25175043       3.20556760       0.00153186       0.00000000      -0.01256652
H        1.71812436       3.75525129       4.01551526      -0.00153186      -0.00000000       0.01256652
H        3.28887751       3.75525129       4.01551526       0.00153186      -0.00000000       0.01256652
H        1.71812436       1.25175043       3.20556760      -0.00153186       0.00000000      -0.01256652
H        4.22162506       1.25175043       0.40497385      -0.00153161      -0.00000000       0.01256652
H        0.78537651       3.75525129       6.81610901       0.00153161       0.00000000      -0.01256652
H        2.50350086       4.54059653       1.40022433       0.00000000       0.00159820      -0.01319027
H        2.50350086       0.46640534       5.82085852       0.00000000      -0.00159820       0.01319027
H        0.00000000       0.46640530       5.01076597       0.00000000      -0.00159486      -0.01319259
H        0.00000000       4.54059657       2.21031689       0.00000000       0.00159486       0.01319259
24
Lattice="5.007001718986455 0.0 0.0 0.0 5.007001718986455 0.0 0.0 0.0 7.221082858117108" Properties=species:S:1:pos:R:3:forces:R:3 energy=-3753.870843187239 free_energy=-3753.870843187239 stress="0.009976700646757243 -0.0 -0.0 -0.0 0.009973946173911643 0.0 -0.0 0.0 0.009718698356886196" pbc="T T T"
O        0.00000000       1.25175039       4.41103850       0.00000000       0.00000437      -0.01167512
O        0.00000000       3.75525133       2.81004457       0.00000000      -0.00000437       0.01167512
O        2.50350086       3.75525127       0.80049666      -0.00000000       0.00000206      -0.01167461
O        2.50350086       1.25175045       6.42058599      -0.00000000      -0.00000206       0.01167461
O        0.00000000       3.75525129       6.21645733       0.00000000      -0.00000000      -0.01109122
O        0.00000000       1.25175043       1.00462574       0.00000000       0.00000000       0.01109122
O        2.50350086       1.25175043       2.60591570      -0.00000000      -0.00000000      -0.01109122
O        2.50350086       3.75525128       4.61516695      -0.00000000       0.00000000       0.01109122
H        0.00000000       2.03694400       5.01046295       0.00000000       0.00515609      -0.01254467
H        0.00000000       2.97005757       2.21061991       0.00000000      -0.00515609       0.01254467
H        2.50350086       2.97005762       1.39992131       0.00000000      -0.00515918      -0.01254236
H        2.50350086       2.03694395       5.82116155       0.00000000       0.00515918       0.01254236
H        4.22177783       3.75525129       6.81582262      -0.00514735      -0.00000000      -0.01189367
H        0.78522374       1.25175043       0.40526024       0.00514735       0.00000000       0.01189367
H        3.28872475       1.25175043       3.20528121       0.00514735      -0.00000000      -0.01189367
H        1.71827712       3.75525129       4.01580165      -0.00514735       0.00000000       0.01189367
H        3.28872475       3.75525129       4.01580165       0.00514735       0.00000000       0.01189367
H        1.71827712       1.25175043       3.20528121      -0.00514735      -0.00000000      -0.01189367
H        4.22177783       1.25175043       0.40526024      -0.00514735       0.00000000       0.01189367
H        0.78522374       3.75525129       6.81582262       0.00514735      -0.00000000      -0.01189367
H        2.50350086       4.54044498       1.39992133       0.00000000       0.00515712      -0.01254390
H        2.50350086       0.46655689       5.82116153       0.00000000      -0.00515712       0.01254390
H        0.00000000       0.46655691       5.01046291       0.00000000      -0.00516020      -0.01254133
H        0.00000000       4.54044496       2.21061994       0.00000000       0.00516020       0.01254133
24
Lattice="5.007001718986455 0.0 0.0 0.0 5.007001718986455 0.0 0.0 0.0 7.221082858117108" Properties=species:S:1:pos:R:3:forces:R:3 energy=-3753.870947406839 free_energy=-3753.870947406839 stress="0.009899575407080488 -0.0 -0.0 -0.0 0.009898657249465289 0.0 -0.0 0.0 0.009681053894663018" pbc="T T T"
O        0.00000000       1.25175041       4.41060359      -0.00000000       0.00000257      -0.01197260
O        0.00000000       3.75525131       2.81047948      -0.00000000      -0.00000257       0.01197260
O        2.50350086       3.75525128       0.80006175      -0.00000000       0.00000129      -0.01197208
O        2.50350086       1.25175044       6.42102089      -0.00000000      -0.00000129       0.01197208
O        0.00000000       3.75525129       6.21604250       0.00000000      -0.00000000      -0.01144964
O        0.00000000       1.25175043       1.00504057       0.00000000       0.00000000       0.01144964
O        2.50350086       1.25175043       2.60550087       0.00000000      -0.00000000      -0.01144938
O        2.50350086       3.75525128       4.61558178       0.00000000       0.00000000       0.01144938
H        0.00000000       2.03686052       5.01007206       0.00000000       0.00717621      -0.01209216
H        0.00000000       2.97014105       2.21101080       0.00000000      -0.00717621       0.01209216
H        2.50350086       2.97014107       1.39953043       0.00000000      -0.00717775      -0.01209113
H        2.50350086       2.03686049       5.82155243       0.00000000       0.00717775       0.01209113
H        4.22186211       3.75525129       6.81545257      -0.00718186      -0.00000000      -0.01145272
H        0.78513946       1.25175043       0.40563029       0.00718186       0.00000000       0.01145272
H        3.28864046       1.25175043       3.20491115       0.00718186      -0.00000000      -0.01145298
H        1.71836141       3.75525129       4.01617170      -0.00718186       0.00000000       0.01145298
H        3.28864046       3.75525129       4.01617170       0.00718186       0.00000000       0.01145298
H        1.71836141       1.25175043       3.20491115      -0.00718186      -0.00000000      -0.01145298
H        4.22186211       1.25175043       0.40563029      -0.00718186       0.00000000       0.01145272
H        0.78513946       3.75525129       6.81545257       0.00718186      -0.00000000      -0.01145272
H        2.50350086       4.54036152       1.39953044       0.00000000       0.00717646      -0.01209190
H        2.50350086       0.46664035       5.82155242       0.00000000      -0.00717646       0.01209190
H        0.00000000       0.46664037       5.01007204       0.00000000      -0.00717852      -0.01209036
H        0.00000000       4.54036150       2.21101082       0.00000000       0.00717852       0.01209036
24
Lattice="5.007001718986455 0.0 0.0 0.0 5.007001718986455 0.0 0.0 0.0 7.221082858117108" Properties=species:S:1:pos:R:3:forces:R:3 energy=-3753.87111121937 free_energy=-3753.87111121937 stress="0.00984448595016852 -0.0 -0.0 -0.0 0.00984356779255332 0.0 -0.0 0.0 0.009656263639052634" pbc="T T T"
O        0.00000000       1.25175036       4.40995123      -0.00000000       0.00000797      -0.01211272
O        0.00000000       3.75525136       2.81113184      -0.00000000      -0.00000797       0.01211272
O        2.50350086       3.75525125       0.79940940       0.00000000       0.00000360      -0.01211195
O        2.50350086       1.25175046       6.42167325       0.00000000      -0.00000360       0.01211195
O        0.00000000       3.75525129       6.21542051      -0.00000000      -0.00000026      -0.01158051
O        0.00000000       1.25175042       1.00566256      -0.00000000       0.00000026       0.01158051
O        2.50350086       1.25175043       2.60487887       0.00000000      -0.00000000      -0.01158025
O        2.50350086       3.75525129       4.61620377       0.00000000       0.00000000       0.01158025
H        0.00000000       2.03679393       5.00944747       0.00000000       0.00889730      -0.01156765
H        0.00000000       2.97020764       2.21163538       0.00000000      -0.00889730       0.01156765
H        2.50350086       2.97020769       1.39890582       0.00000000      -0.00890244      -0.01156379
H        2.50350086       2.03679388       5.82217703       0.00000000       0.00890244       0.01156379
H        4.22192996       3.75525129       6.81486039      -0.00892610      -0.00000000      -0.01095419
H        0.78507161       1.25175043       0.40622247       0.00892610       0.00000000       0.01095419
H        3.28857261       1.25175043       3.20431897       0.00892610      -0.00000000      -0.01095419
H        1.71842926       3.75525129       4.01676388      -0.00892610       0.00000000       0.01095419
H        3.28857261       3.75525129       4.01676388       0.00892610       0.00000000       0.01095419
H        1.71842926       1.25175043       3.20431897      -0.00892610      -0.00000000      -0.01095419
H        4.22192996       1.25175043       0.40622247      -0.00892610       0.00000000       0.01095419
H        0.78507161       3.75525129       6.81486039       0.00892610      -0.00000000      -0.01095419
H        2.50350086       4.54029493       1.39890585       0.00000000       0.00889885      -0.01156636
H        2.50350086       0.46670694       5.82217701       0.00000000      -0.00889885       0.01156636
H        0.00000000       0.46670701       5.00944742       0.00000000      -0.00890476      -0.01156199
H        0.00000000       4.54029486       2.21163544       0.00000000       0.00890476       0.01156199
24
Lattice="5.007001718986455 0.0 0.0 0.0 5.007001718986455 0.0 0.0 0.0 7.221082858117108" Properties=species:S:1:pos:R:3:forces:R:3 energy=-3753.8713592511344 free_energy=-3753.8713592511344 stress="0.009771951498567764 -0.0 -0.0 -0.0 0.009771951498567764 0.0 -0.0 0.0 0.009607601285447062" pbc="T T T"
O        0.00000000       1.25175041       4.40897268       0.00000000       0.00000231      -0.01198134
O        0.00000000       3.75525131       2.81211039       0.00000000      -0.00000231       0.01198134
O        2.50350086       3.75525128       0.79843087      -0.00000000       0.00000129      -0.01198057
O        2.50350086       1.25175044       6.42265178      -0.00000000      -0.00000129       0.01198057
O        0.00000000       3.75525129       6.21448970       0.00000000      -0.00000000      -0.01160776
O        0.00000000       1.25175043       1.00659337       0.00000000       0.00000000       0.01160776
O        2.50350086       1.25175043       2.60394807       0.00000000      -0.00000000      -0.01160750
O        2.50350086       3.75525129       4.61713458       0.00000000       0.00000000       0.01160750
H        0.00000000       2.03674232       5.00847891       0.00000000       0.01041143      -0.01091408
H        0.00000000       2.97025925       2.21260395       0.00000000      -0.01041143       0.01091408
H        2.50350086       2.97025925       1.39793729       0.00000000      -0.01041245      -0.01091305
H        2.50350086       2.03674232       5.82314557       0.00000000       0.01041245       0.01091305
H        4.22198323       3.75525129       6.81394112      -0.01048110      -0.00000000      -0.01032092
H        0.78501834       1.25175043       0.40714174       0.01048110       0.00000000       0.01032092
H        3.28851934       1.25175043       3.20339970       0.01048084      -0.00000000      -0.01032118
H        1.71848253       3.75525129       4.01768316      -0.01048084       0.00000000       0.01032118
H        3.28851934       3.75525129       4.01768316       0.01048084       0.00000000       0.01032118
H        1.71848253       1.25175043       3.20339970      -0.01048084      -0.00000000      -0.01032118
H        4.22198323       1.25175043       0.40714174      -0.01048110       0.00000000       0.01032092
H        0.78501834       3.75525129       6.81394112       0.01048110      -0.00000000      -0.01032092
H        2.50350086       4.54024334       1.39793730       0.00000000       0.01041143      -0.01091408
H        2.50350086       0.46675853       5.82314556       0.00000000      -0.01041143       0.01091408
H        0.00000000       0.46675857       5.00847889       0.00000000      -0.01041374      -0.01091253
H        0.00000000       4.54024330       2.21260397       0.00000000       0.01041374       0.01091253
24
Lattice="5.007001718986455 0.0 0.0 0.0 5.007001718986455 0.0 0.0 0.0 7.221082858117108" Properties=species:S:1:pos:R:3:forces:R:3 energy=-3753.871720346198 free_energy=-3753.871720346198 stress="0.009721452829731794 -0.0 -0.0 -0.0 0.009721452829731794 0.0 -0.0 0.0 0.009568120507993485" pbc="T T T"
O        0.00000000       1.25175029       4.40752366       0.00000000       0.00001388      -0.01178902
O        0.00000000       3.75525142       2.81355941       0.00000000      -0.00001388       0.01178902
O        2.50350086       3.75525123       0.79698186       0.00000000       0.00000643      -0.01178799
O        2.50350086       1.25175049       6.42410079       0.00000000      -0.00000643       0.01178799
O        0.00000000       3.75525129       6.21310869       0.00000000      -0.00000026      -0.01138099
O        0.00000000       1.25175043       1.00797438       0.00000000       0.00000026       0.01138099
O        2.50350086       1.25175043       2.60256706       0.00000000      -0.00000000      -0.01138047
O        2.50350086       3.75525129       4.61851559       0.00000000       0.00000000       0.01138047
H        0.00000000       2.03671125       5.00701150       0.00000000       0.01168592      -0.00999414
H        0.00000000       2.97029031       2.21407136       0.00000000      -0.01168592       0.00999414
H        2.50350086       2.97029038       1.39646983       0.00000000      -0.01169441      -0.00998719
H        2.50350086       2.03671119       5.82461303       0.00000000       0.01169441       0.00998719
H        4.22201596       3.75525129       6.81254791      -0.01172886      -0.00000000      -0.00951385
H        0.78498561       1.25175043       0.40853495       0.01172886       0.00000000       0.00951385