24
Lattice="4.997607765183763 0.0 0.0 0.0 4.997607765183763 0.0 0.0 0.0 7.207534926124727" Properties=species:S:1:pos:R:3:forces:R:3 energy=-3752.5681915197224 free_energy=-3752.5681915197224 stress="0.08486989916096131 -0.0 -0.0 -0.0 0.08486439021527012 0.0 -0.0 0.0 0.08614797456131895" pbc="T T T"
O        0.00000000       1.24940194       4.38119133       0.00000000      -0.00000257       2.33188335
O        0.00000000       3.74820582       2.82634460       0.00000000       0.00000257      -2.33188335
O        2.49880388       3.74820582       0.77742287       0.00000000      -0.00000051       2.33192500
O        2.49880388       1.24940194       6.43011256       0.00000000       0.00000051      -2.33192500
O        0.00000000       3.74820582       6.18309430       0.00000000       0.00000206       2.33212195
O        0.00000000       1.24940194       1.02444112       0.00000000      -0.00000206      -2.33212195
O        2.49880388       1.24940194       2.57932684       0.00000000      -0.00000206       2.33209830
O        2.49880388       3.74820582       4.62820859       0.00000000       0.00000206      -2.33209830
H        0.00000000       2.09234894       5.01835683       0.00000000      -1.82076681      -1.16968225
H        0.00000000       2.90525882       2.18917859       0.00000000       1.82076681       1.16968225
H        2.49880388       2.90525882       1.41458887       0.00000000       1.82076244      -1.16968302
H        2.49880388       2.09234894       5.79294656       0.00000000      -1.82076244       1.16968302
H        4.15465527       3.74820582       6.82025231       1.82076784       0.00000000      -1.16963622
H        0.84295250       1.24940194       0.38728362      -1.82076784      -0.00000000       1.16963622
H        3.34175638       1.24940194       3.21648485      -1.82077427      -0.00000026      -1.16964239
H        1.65585138       3.74820582       3.99105108       1.82077427       0.00000026       1.16964239
H        3.34175638       3.74820582       3.99105108      -1.82077427       0.00000026       1.16964239
H        1.65585138       1.24940194       3.21648485       1.82077427      -0.00000026      -1.16964239
H        4.15465527       1.24940194       0.38728362       1.82076784      -0.00000000       1.16963622
H        0.84295250       3.74820582       6.82025231      -1.82076784       0.00000000      -1.16963622
H        2.49880388       4.59115283       1.41458887       0.00000000      -1.82076347      -1.16968353
H        2.49880388       0.40645494       5.79294656       0.00000000       1.82076347       1.16968353
H        0.00000000       0.40645494       5.01835683       0.00000000       1.82076347      -1.16968045
H        0.00000000       4.59115283       2.18917909       0.00000000      -1.82076347       1.16968045
