24
Lattice="4.358815731537452 0.0 0.0 0.0 4.358815731537452 0.0 0.0 0.0 6.286270971576118" Properties=species:S:1:pos:R:3:forces:R:3 energy=-3750.372926187832 free_energy=-3750.372926187832 stress="-0.2497076539753341 -0.0 -0.0 -0.0 -0.24970214502964289 0.0 -0.0 0.0 -0.25851094918986645" pbc="T T T"
O        0.00000000       1.08970393       3.82118937       0.00000000       0.00000771      -4.24933393
O        0.00000000       3.26911180       2.46508247       0.00000000      -0.00000771       4.24933393
O        2.17940787       3.26911180       0.67805302       0.00000000       0.00000283      -4.24934010
O        2.17940787       1.08970393       5.60821839       0.00000000      -0.00000283       4.24934010
O        0.00000000       3.26911180       5.39277390       0.00000000      -0.00000051      -4.24932622
O        0.00000000       1.08970393       0.89349751       0.00000000       0.00000051       4.24932622
O        2.17940787       1.08970393       2.24963841      -0.00000000       0.00000000      -4.24933161
O        2.17940787       3.26911180       4.03663299      -0.00000000      -0.00000000       4.24933161
H        0.00000000       1.82490582       4.37691266       0.00000000       3.24278998       2.20074295
H        0.00000000       2.53390991       1.90935874       0.00000000      -3.24278998      -2.20074295
H        2.17940787       2.53390991       1.23377674       0.00000000      -3.24280155       2.20074706
H        2.17940787       1.82490582       5.05249467       0.00000000       3.24280155      -2.20074706
H        3.62360905       3.26911180       5.94849065      -3.24295067      -0.00000000       2.20078229
H        0.73520668       1.08970393       0.33778119       3.24295067       0.00000000      -2.20078229
H        2.91461455       1.08970393       2.80535516       3.24295093      -0.00000000       2.20078383
H        1.44420119       3.26911180       3.48091668      -3.24295093       0.00000000      -2.20078383
H        2.91461455       3.26911180       3.48091668       3.24295093       0.00000000      -2.20078383
H        1.44420119       1.08970393       2.80535516      -3.24295093      -0.00000000       2.20078383
H        3.62360905       1.08970393       0.33778119      -3.24295067       0.00000000      -2.20078229
H        0.73520668       3.26911180       5.94849065       3.24295067      -0.00000000       2.20078229
H        2.17940787       4.00431368       1.23377674       0.00000000       3.24279898       2.20074501
H        2.17940787       0.35450205       5.05249467       0.00000000      -3.24279898      -2.20074501
H        0.00000000       0.35450205       4.37691266       0.00000000      -3.24279666       2.20074835
H        0.00000000       4.00431368       1.90935918       0.00000000       3.24279666      -2.20074835
