24
Lattice="4.997607765183763 0.0 0.0 0.0 4.997607765183763 0.0 0.0 0.0 7.207534926124727" Properties=species:S:1:pos:R:3:forces:R:3 energy=-3753.3395115289695 free_energy=-3753.3395115289695 stress="0.059097214902312706 -0.0 -0.0 -0.0 0.059092624114236714 -0.0 -0.0 -0.0 0.060273374807383207" pbc="T T T"
O        0.00000000       1.24940194       4.38845235       0.00000000      -0.00000129       1.61613837
O        0.00000000       3.74820582       2.81908357       0.00000000       0.00000129      -1.61613837
O        2.49880388       3.74820582       0.78468439      -0.00000000      -0.00000103       1.61614403
O        2.49880388       1.24940194       6.42285104      -0.00000000       0.00000103      -1.61614403
O        0.00000000       3.74820582       6.19033633       0.00000000      -0.00000154       1.61688553
O        0.00000000       1.24940194       1.01719959       0.00000000       0.00000154      -1.61688553
O        2.49880388       1.24940194       2.58656837       0.00000000       0.00000051       1.61687396
O        2.49880388       3.74820582       4.62096705       0.00000000      -0.00000051      -1.61687396
H        0.00000000       2.07025902       5.01154359       0.00000000      -1.24959136      -0.81788180
H        0.00000000       2.92734875       2.19599183       0.00000000       1.24959136       0.81788180
H        2.49880388       2.92734875       1.40777613       0.00000000       1.24958442      -0.81788026
H        2.49880388       2.07025902       5.79975979       0.00000000      -1.24958442       0.81788026
H        4.17675069       3.74820582       6.81342758       1.24954919      -0.00000026      -0.81790391
H        0.82085708       1.24940194       0.39410785      -1.24954919       0.00000026       0.81790391
H        3.31966096       1.24940194       3.20965961      -1.24955408      -0.00000000      -0.81790828
H        1.67794681       3.74820582       3.99787581       1.24955408       0.00000000       0.81790828
H        3.31966096       3.74820582       3.99787581      -1.24955408       0.00000000       0.81790828
H        1.67794681       1.24940194       3.20965961       1.24955408      -0.00000000      -0.81790828
H        4.17675069       1.24940194       0.39410785       1.24954919       0.00000026       0.81790391
H        0.82085708       3.74820582       6.81342758      -1.24954919      -0.00000026      -0.81790391
H        2.49880388       4.56906290       1.40777613       0.00000000      -1.24958442      -0.81788000
H        2.49880388       0.42854487       5.79975979       0.00000000       1.24958442       0.81788000
H        0.00000000       0.42854487       5.01154359       0.00000000       1.24959136      -0.81788231
H        0.00000000       4.56906290       2.19599183       0.00000000      -1.24959136       0.81788231
