24
Lattice="4.696999655965992 0.0 0.0 0.0 4.696999655965992 0.0 0.0 0.0 6.773998812835185" Properties=species:S:1:pos:R:3:forces:R:3 energy=-3753.646602064104 free_energy=-3753.646602064104 stress="-0.049019516917883525 -0.0 -0.0 -0.0 -0.04904338901587871 0.0 -0.0 0.0 -0.050720862978848105" pbc="T T T"
O        0.00000000       1.17424991       4.12448519       0.00000000      -0.00000386      -1.15356991
O        0.00000000       3.52274974       2.64951457       0.00000000       0.00000386       1.15356991
O        2.34849983       3.52274974       0.73748531      -0.00000000      -0.00000129      -1.15356760
O        2.34849983       1.17424991       6.03651397      -0.00000000       0.00000129       1.15356760
O        0.00000000       3.52274974       5.81798512       0.00000000      -0.00000026      -1.15338248
O        0.00000000       1.17424991       0.95601463       0.00000000       0.00000026       1.15338248
O        2.34849983       1.17424991       2.43098525       0.00000000      -0.00000026      -1.15333646
O        2.34849983       3.52274974       4.34301403       0.00000000       0.00000026       1.15333646
H        0.00000000       1.94573211       4.71009724       0.00000000       0.88232727       0.58750427
H        0.00000000       2.75126755       2.06390204       0.00000000      -0.88232727      -0.58750427
H        2.34849983       2.75126755       1.32309783       0.00000000      -0.88232547       0.58750144
H        2.34849983       1.94573211       5.45090192       0.00000000       0.88232547      -0.58750144
H        3.92551746       3.52274974       6.40359718      -0.88242163       0.00000026       0.58750659
H        0.77148219       1.17424991       0.37040210       0.88242163      -0.00000026      -0.58750659
H        3.11998202       1.17424991       3.01659730       0.88242215       0.00000026       0.58751018
H        1.57701763       3.52274974       3.75740198      -0.88242215      -0.00000026      -0.58751018
H        3.11998202       3.52274974       3.75740198       0.88242215      -0.00000026      -0.58751018
H        1.57701763       1.17424991       3.01659730      -0.88242215       0.00000026       0.58751018
H        3.92551746       1.17424991       0.37040210      -0.88242163      -0.00000026      -0.58750659
H        0.77148219       3.52274974       6.40359718       0.88242163       0.00000026       0.58750659
H        2.34849983       4.29423194       1.32309783       0.00000000       0.88232676       0.58750144
H        2.34849983       0.40276772       5.45090192       0.00000000      -0.88232676      -0.58750144
H        0.00000000       0.40276772       4.71009724       0.00000000      -0.88232521       0.58750401
H        0.00000000       4.29423194       2.06390204       0.00000000       0.88232521      -0.58750401
24
Lattice="4.696999655965992 0.0 0.0 0.0 4.696999655965992 0.0 0.0 0.0 6.773998812835185" Properties=species:S:1:pos:R:3:forces:R:3 energy=-3753.7866831389356 free_energy=-3753.7866831389356 stress="0.0007179992550859712 -0.0 -0.0 -0.0 0.0007115721517795751 0.0 -0.0 0.0 0.012461235153486959" pbc="T T T"
O        0.00000000       1.17424983       4.10074241      -0.00000000       0.00000540       0.75451593
O        0.00000000       3.52274982       2.67325660      -0.00000000      -0.00000540      -0.75451593
O        2.34849983       3.52274972       0.71374285       0.00000000       0.00000206       0.75450076
O        2.34849983       1.17424994       6.06025577       0.00000000      -0.00000206      -0.75450076
O        0.00000000       3.52274973       5.79424597       0.00000000      -0.00000026       0.75466197
O        0.00000000       1.17424992       0.97975304       0.00000000       0.00000026      -0.75466197
O        2.34849983       1.17424991       2.40724731       0.00000000      -0.00000000       0.75463060
O        2.34849983       3.52274975       4.36675131       0.00000000       0.00000000      -0.75463060
H        0.00000000       1.96389185       4.72218877       0.00000000      -0.20539669      -0.34161271
H        0.00000000       2.73310766       2.05181005       0.00000000       0.20539669       0.34161271
H        2.34849983       2.73310770       1.33518931       0.00000000       0.20539463      -0.34160885
H        2.34849983       1.96389181       5.43880951       0.00000000      -0.20539463       0.34160885
H        3.90735563       3.52274975       6.41568852       0.20541494      -0.00000000      -0.34148107
H        0.78964388       1.17424991       0.35831030      -0.20541494       0.00000000       0.34148107
H        3.13814386       1.17424992       3.02868919      -0.20540209      -0.00000000      -0.34146615
H        1.55885594       3.52274974       3.74530963       0.20540209       0.00000000       0.34146615
H        3.13814386       3.52274974       3.74530963      -0.20540209       0.00000000       0.34146615
H        1.55885594       1.17424992       3.02868919       0.20540209      -0.00000000      -0.34146615
H        3.90735563       1.17424991       0.35831030       0.20541494       0.00000000       0.34148107
H        0.78964388       3.52274975       6.41568852      -0.20541494      -0.00000000      -0.34148107
H        2.34849983       4.31239181       1.33518930       0.00000000      -0.20539643      -0.34161014
H        2.34849983       0.38460798       5.43880951       0.00000000       0.20539643       0.34161014
H        0.00000000       0.38460802       4.72218876       0.00000000       0.20539206      -0.34160911
H        0.00000000       4.31239178       2.05181005       0.00000000      -0.20539206       0.34160911
24
Lattice="4.696999655965992 0.0 0.0 0.0 4.696999655965992 0.0 0.0 0.0 6.773998812835185" Properties=species:S:1:pos:R:3:forces:R:3 energy=-3753.8419644258274 free_energy=-3753.8419644258274 stress="-0.011845151393688127 -0.0 -0.0 -0.0 -0.011863514545992115 -0.0 -0.0 -0.0 -0.007308534616987635" pbc="T T T"
O        0.00000000       1.17424991       4.11096280      -0.00000000      -0.00000103       0.14895018
O        0.00000000       3.52274975       2.66303621      -0.00000000       0.00000103      -0.14895018
O        2.34849983       3.52274975       0.72396302      -0.00000000      -0.00000051       0.14895738
O        2.34849983       1.17424991       6.05003559      -0.00000000       0.00000051      -0.14895738
O        0.00000000       3.52274973       5.80446849       0.00000000       0.00000000       0.14904119
O        0.00000000       1.17424992       0.96953052       0.00000000      -0.00000000      -0.14904119
O        2.34849983       1.17424991       2.41746941       0.00000000       0.00000000       0.14903888
O        2.34849983       3.52274975       4.35652921       0.00000000      -0.00000000      -0.14903888
H        0.00000000       1.96132635       4.71758628       0.00000000       0.05076592      -0.05304751
H        0.00000000       2.73567316       2.05641253       0.00000000      -0.05076592       0.05304751
H        2.34849983       2.73567317       1.33058687       0.00000000      -0.05076386      -0.05304957
H        2.34849983       1.96132635       5.44341194       0.00000000       0.05076386       0.05304957
H        3.90992135       3.52274975       6.41108789      -0.05079266      -0.00000000      -0.05295187
H        0.78707816       1.17424991       0.36291092       0.05079266       0.00000000       0.05295187
H        3.13557832       1.17424992       3.02408877       0.05079009      -0.00000000      -0.05295033
H        1.56142148       3.52274974       3.74991004      -0.05079009       0.00000000       0.05295033
H        3.13557832       3.52274974       3.74991004       0.05079009       0.00000000       0.05295033
H        1.56142148       1.17424992       3.02408877      -0.05079009      -0.00000000      -0.05295033
H        3.90992135       1.17424991       0.36291092      -0.05079266       0.00000000       0.05295187
H        0.78707816       3.52274975       6.41108789       0.05079266      -0.00000000      -0.05295187
H        2.34849983       4.30982632       1.33058685       0.00000000       0.05076438      -0.05304931
H        2.34849983       0.38717348       5.44341196       0.00000000      -0.05076438       0.05304931
H        0.00000000       0.38717345       4.71758633       0.00000000      -0.05076489      -0.05304829
H        0.00000000       4.30982635       2.05641249       0.00000000       0.05076489       0.05304829
24
Lattice="4.696999655965992 0.0 0.0 0.0 4.696999655965992 0.0 0.0 0.0 6.773998812835185" Properties=species:S:1:pos:R:3:forces:R:3 energy=-3753.8461711697164 free_energy=-3753.8461711697164 stress="-0.012522751713705321 -0.0 -0.0 -0.0 -0.012537442235548514 0.0 -0.0 0.0 -0.010290710551155454" pbc="T T T"
O        0.00000000       1.17424988       4.11411490       0.00000000       0.00000154       0.03728974
O        0.00000000       3.52274978       2.65988411       0.00000000      -0.00000154      -0.03728974
O        2.34849983       3.52274973       0.72711530       0.00000000       0.00000077       0.03728460
O        2.34849983       1.17424992       6.04688331       0.00000000      -0.00000077      -0.03728460
O        0.00000000       3.52274973       5.80762282       0.00000000       0.00000000       0.03756047
O        0.00000000       1.17424992       0.96637619       0.00000000      -0.00000000      -0.03756047
O        2.34849983       1.17424991       2.42062370       0.00000000       0.00000000       0.03755713
O        2.34849983       3.52274975       4.35337492       0.00000000      -0.00000000      -0.03755713
H        0.00000000       1.96283153       4.71652473       0.00000000       0.06299537       0.00317634
H        0.00000000       2.73416799       2.05747408       0.00000000      -0.06299537      -0.00317634
H        2.34849983       2.73416805       1.32952527       0.00000000      -0.06299897       0.00317968
H        2.34849983       1.96283147       5.44447355       0.00000000       0.06299897      -0.00317968
H        3.90841551       3.52274975       6.41002862      -0.06300797      -0.00000000       0.00324705
H        0.78858401       1.17424991       0.36397019       0.06300797       0.00000000      -0.00324705
H        3.13708410       1.17424992       3.02302954       0.06300668      -0.00000000       0.00324807
H        1.55991570       3.52274974       3.75096927      -0.06300668       0.00000000      -0.00324807
H        3.13708410       3.52274974       3.75096927       0.06300668       0.00000000      -0.00324807
H        1.55991570       1.17424992       3.02302954      -0.06300668      -0.00000000       0.00324807
H        3.90841551       1.17424991       0.36397019      -0.06300797       0.00000000      -0.00324705
H        0.78858401       3.52274975       6.41002862       0.06300797      -0.00000000       0.00324705
H        2.34849983       4.31133146       1.32952525       0.00000000       0.06299846       0.00317917
H        2.34849983       0.38566834       5.44447356       0.00000000      -0.06299846      -0.00317917
H        0.00000000       0.38566830       4.71652475       0.00000000      -0.06299691       0.00317737
H        0.00000000       4.31133149       2.05747407       0.00000000       0.06299691      -0.00317737
24
Lattice="4.696999655965992 0.0 0.0 0.0 4.696999655965992 0.0 0.0 0.0 6.773998812835185" Properties=species:S:1:pos:R:3:forces:R:3 energy=-3753.848273113063 free_energy=-3753.848273113063 stress="-0.01123641289481089 -0.0 -0.0 -0.0 -0.011246512628578084 -0.0 -0.0 -0.0 -0.01108491688830298" pbc="T T T"
O        0.00000000       1.17424993       4.11694292       0.00000000      -0.00000334      -0.01320673
O        0.00000000       3.52274972       2.65705609       0.00000000       0.00000334       0.01320673
O        2.34849983       3.52274976       0.72994319       0.00000000      -0.00000129      -0.01320081
O        2.34849983       1.17424990       6.04405543       0.00000000       0.00000129       0.01320081
O        0.00000000       3.52274974       5.81046119       0.00000000       0.00000026      -0.01317202
O        0.00000000       1.17424992       0.96353782       0.00000000      -0.00000026       0.01317202
O        2.34849983       1.17424991       2.42346191       0.00000000       0.00000000      -0.01316842
O        2.34849983       3.52274974       4.35053670       0.00000000      -0.00000000       0.01316842
H        0.00000000       1.96550736       4.71607637       0.00000000       0.02722978       0.02569972
H        0.00000000       2.73149216       2.05792244       0.00000000      -0.02722978      -0.02569972
H        2.34849983       2.73149211       1.32907701       0.00000000      -0.02722464       0.02569535
H        2.34849983       1.96550741       5.44492181       0.00000000       0.02722464      -0.02569535
H        3.90573902       3.52274974       6.40958360      -0.02733725       0.00000000       0.02586838
H        0.79126050       1.17424991       0.36441521       0.02733725      -0.00000000      -0.02586838
H        3.13976054       1.17424991       3.02258458       0.02733417       0.00000000       0.02586607
H        1.55723926       3.52274974       3.75141423      -0.02733417      -0.00000000      -0.02586607
H        3.13976054       3.52274974       3.75141423       0.02733417      -0.00000000      -0.02586607
H        1.55723926       1.17424991       3.02258458      -0.02733417       0.00000000       0.02586607
H        3.90573902       1.17424991       0.36441521      -0.02733725      -0.00000000      -0.02586838
H        0.79126050       3.52274974       6.40958360       0.02733725       0.00000000       0.02586838
H        2.34849983       4.31400737       1.32907698       0.00000000       0.02722593       0.02569638
H        2.34849983       0.38299242       5.44492183       0.00000000      -0.02722593      -0.02569638
H        0.00000000       0.38299243       4.71607642       0.00000000      -0.02722670       0.02569740
H        0.00000000       4.31400737       2.05792239       0.00000000       0.02722670      -0.02569740
24
Lattice="4.696999655965992 0.0 0.0 0.0 4.696999655965992 0.0 0.0 0.0 6.773998812835185" Properties=species:S:1:pos:R:3:forces:R:3 energy=-3753.8485861800345 free_energy=-3753.8485861800345 stress="-0.010150232436029938 -0.0 -0.0 -0.0 -0.010165841115488329 0.0 -0.0 0.0 -0.010354063426604217" pbc="T T T"
O        0.00000000       1.17424985       4.11756757       0.00000000       0.00000463       0.00029825
O        0.00000000       3.52274980       2.65643144       0.00000000      -0.00000463      -0.00029825
O        2.34849983       3.52274972       0.73056799      -0.00000000       0.00000180       0.00029311
O        2.34849983       1.17424993       6.04343063      -0.00000000      -0.00000180      -0.00029311
O        0.00000000       3.52274974       5.81108778      -0.00000000      -0.00000000       0.00053299
O        0.00000000       1.17424992       0.96291123      -0.00000000       0.00000000      -0.00053299
O        2.34849983       1.17424991       2.42408855       0.00000000      -0.00000000       0.00053042
O        2.34849983       3.52274974       4.34991006       0.00000000       0.00000000      -0.00053042
H        0.00000000       1.96646600       4.71639793       0.00000000       0.00284853       0.01833119
H        0.00000000       2.73053352       2.05760088       0.00000000      -0.00284853      -0.01833119
H        2.34849983       2.73053360       1.32939845       0.00000000      -0.00285418       0.01833582
H        2.34849983       1.96646592       5.44460036       0.00000000       0.00285418      -0.01833582
H        3.90477752       3.52274974       6.40991003      -0.00281947      -0.00000000       0.01839701
H        0.79222200       1.17424991       0.36408878       0.00281947       0.00000000      -0.01839701
H        3.14072196       1.17424991       3.02291097       0.00282050      -0.00000000       0.01839753
H        1.55627784       3.52274974       3.75108784      -0.00282050       0.00000000      -0.01839753
H        3.14072196       3.52274974       3.75108784       0.00282050       0.00000000      -0.01839753
H        1.55627784       1.17424991       3.02291097      -0.00282050      -0.00000000       0.01839753
H        3.90477752       1.17424991       0.36408878      -0.00281947       0.00000000      -0.01839701
H        0.79222200       3.52274974       6.40991003       0.00281947      -0.00000000       0.01839701
H        2.34849983       4.31496592       1.32939845       0.00000000       0.00285238       0.01833454
H        2.34849983       0.38203388       5.44460036       0.00000000      -0.00285238      -0.01833454
H        0.00000000       0.38203386       4.71639792       0.00000000      -0.00285264       0.01833402
H        0.00000000       4.31496594       2.05760089       0.00000000       0.00285264      -0.01833402
24
Lattice="4.696999655965992 0.0 0.0 0.0 4.696999655965992 0.0 0.0 0.0 6.773998812835185" Properties=species:S:1:pos:R:3:forces:R:3 energy=-3753.848715978335 free_energy=-3753.848715978335 stress="-0.009640654959594243 -0.0 -0.0 -0.0 -0.009653509166207035 -0.0 -0.0 -0.0 -0.009860094629626911" pbc="T T T"
O        0.00000000       1.17424997       4.11795076       0.00000000      -0.00000591       0.01210244
O        0.00000000       3.52274969       2.65604825       0.00000000       0.00000591      -0.01210244
O        2.34849983       3.52274977       0.73095106      -0.00000000      -0.00000257       0.01210553
O        2.34849983       1.17424989       6.04304755      -0.00000000       0.00000257      -0.01210553
O        0.00000000       3.52274974       5.81147830       0.00000000       0.00000026       0.01214898
O        0.00000000       1.17424992       0.96252071       0.00000000      -0.00000026      -0.01214898
O        2.34849983       1.17424991       2.42447900       0.00000000       0.00000000       0.01215001
O        2.34849983       3.52274974       4.34951961       0.00000000      -0.00000000      -0.01215001
H        0.00000000       1.96677902       4.71690623       0.00000000      -0.00801567       0.01193506
H        0.00000000       2.73022050       2.05709258       0.00000000       0.00801567      -0.01193506
H        2.34849983       2.73022045       1.32990686       0.00000000       0.00802133       0.01193069
H        2.34849983       1.96677907       5.44409195       0.00000000      -0.00802133      -0.01193069
H        3.90446469       3.52274974       6.41042142       0.00797556       0.00000000       0.01207364
H        0.79253483       1.17424991       0.36357740      -0.00797556      -0.00000000      -0.01207364
H        3.14103480       1.17424991       3.02342237      -0.00797608       0.00000000       0.01207236
H        1.55596500       3.52274974       3.75057645       0.00797608      -0.00000000      -0.01207236
H        3.14103480       3.52274974       3.75057645      -0.00797608      -0.00000000      -0.01207236
H        1.55596500       1.17424991       3.02342237       0.00797608       0.00000000       0.01207236
H        3.90446469       1.17424991       0.36357740       0.00797556      -0.00000000      -0.01207364
H        0.79253483       3.52274974       6.41042142      -0.00797556       0.00000000       0.01207364
H        2.34849983       4.31527902       1.32990683       0.00000000      -0.00801901       0.01193249
H        2.34849983       0.38172078       5.44409198       0.00000000       0.00801901      -0.01193249
H        0.00000000       0.38172074       4.71690629       0.00000000       0.00802133       0.01193095
H        0.00000000       4.31527906       2.05709252       0.00000000      -0.00802133      -0.01193095
24
Lattice="4.696999655965992 0.0 0.0 0.0 4.696999655965992 0.0 0.0 0.0 6.773998812835185" Properties=species:S:1:pos:R:3:forces:R:3 energy=-3753.8488539400514 free_energy=-3753.8488539400514 stress="-0.009346844522730418 -0.0 -0.0 -0.0 -0.00936061688695841 0.0 -0.0 0.0 -0.009547921040459099" pbc="T T T"
O        0.00000000       1.17424988       4.11846185       0.00000000       0.00000206       0.01924985
O        0.00000000       3.52274977       2.65553716       0.00000000      -0.00000206      -0.01924985
O        2.34849983       3.52274973       0.73146218       0.00000000       0.00000077       0.01925062
O        2.34849983       1.17424992       6.04253643       0.00000000      -0.00000077      -0.01925062
O        0.00000000       3.52274974       5.81199485       0.00000000      -0.00000000       0.01932210
O        0.00000000       1.17424991       0.96200416       0.00000000       0.00000000      -0.01932210
O        2.34849983       1.17424992       2.42499555       0.00000000      -0.00000000       0.01932184
O        2.34849983       3.52274974       4.34900307       0.00000000       0.00000000      -0.01932184
H        0.00000000       1.96693171       4.71754187       0.00000000      -0.01409402       0.00764080
H        0.00000000       2.73006780       2.05645694       0.00000000       0.01409402      -0.00764080
H        2.34849983       2.73006783       1.33054245       0.00000000       0.01409299       0.00764132
H        2.34849983       1.96693169       5.44345636       0.00000000      -0.01409299      -0.00764132
H        3.90431075       3.52274974       6.41106264       0.01409376      -0.00000000       0.00775445
H        0.79268877       1.17424991       0.36293617      -0.01409376       0.00000000      -0.00775445
H        3.14118872       1.17424991       3.02406357      -0.01409324      -0.00000000       0.00775419
H        1.55581108       3.52274974       3.74993524       0.01409324       0.00000000      -0.00775419
H        3.14118872       3.52274974       3.74993524      -0.01409324       0.00000000      -0.00775419
H        1.55581108       1.17424991       3.02406357       0.01409324      -0.00000000       0.00775419
H        3.90431075       1.17424991       0.36293617       0.01409376       0.00000000      -0.00775445
H        0.79268877       3.52274974       6.41106264      -0.01409376      -0.00000000       0.00775445
H        2.34849983       4.31543168       1.33054245       0.00000000      -0.01409376       0.00764055
H        2.34849983       0.38156812       5.44345636       0.00000000       0.01409376      -0.00764055
H        0.00000000       0.38156812       4.71754188       0.00000000       0.01409196       0.00764209
H        0.00000000       4.31543167       2.05645694       0.00000000      -0.01409196      -0.00764209
24
Lattice="4.696999655965992 0.0 0.0 0.0 4.696999655965992 0.0 0.0 0.0 6.773998812835185" Properties=species:S:1:pos:R:3:forces:R:3 energy=-3753.8490621071373 free_energy=-3753.8490621071373 stress="-0.009098941966626566 -0.0 -0.0 -0.0 -0.00911087801562416 -0.0 -0.0 -0.0 -0.00926145586451687" pbc="T T T"
O        0.00000000       1.17424999       4.11929098       0.00000000      -0.00000797       0.02529760
O        0.00000000       3.52274967       2.65470803       0.00000000       0.00000797      -0.02529760
O        2.34849983       3.52274978       0.73229129       0.00000000      -0.00000334       0.02530120
O        2.34849983       1.17424988       6.04170733       0.00000000       0.00000334      -0.02530120
O        0.00000000       3.52274974       5.81283385       0.00000000       0.00000026       0.02528346
O        0.00000000       1.17424991       0.96116515       0.00000000      -0.00000026      -0.02528346
O        2.34849983       1.17424992       2.42583450       0.00000000       0.00000000       0.02528449
O        2.34849983       3.52274974       4.34816412       0.00000000      -0.00000000      -0.02528449
H        0.00000000       1.96704062       4.71851696       0.00000000      -0.01910175       0.00350981
H        0.00000000       2.72995890       2.05548185       0.00000000       0.01910175      -0.00350981
H        2.34849983       2.72995884       1.33151761       0.00000000       0.01910870       0.00350416
H        2.34849983       1.96704068       5.44248120       0.00000000      -0.01910870      -0.00350416
H        3.90420111       3.52274974       6.41204572       0.01909790       0.00000000       0.00363631
H        0.79279840       1.17424992       0.36195309      -0.01909790      -0.00000000      -0.00363631
H        3.14129835       1.17424991       3.02504663      -0.01909815       0.00000000       0.00363528
H        1.55570145       3.52274975       3.74895219       0.01909815      -0.00000000      -0.00363528
H        3.14129835       3.52274975       3.74895219      -0.01909815      -0.00000000      -0.00363528
H        1.55570145       1.17424991       3.02504663       0.01909815       0.00000000       0.00363528
H        3.90420111       1.17424992       0.36195309       0.01909790      -0.00000000      -0.00363631
H        0.79279840       3.52274974       6.41204572      -0.01909790       0.00000000       0.00363631
H        2.34849983       4.31554062       1.33151758       0.00000000      -0.01910561       0.00350647
H        2.34849983       0.38145917       5.44248123       0.00000000       0.01910561      -0.00350647
H        0.00000000       0.38145912       4.71851703       0.00000000       0.01910895       0.00350441
H        0.00000000       4.31554068       2.05548178       0.00000000      -0.01910895      -0.00350441
24
Lattice="4.696999655965992 0.0 0.0 0.0 4.696999655965992 0.0 0.0 0.0 6.773998812835185" Properties=species:S:1:pos:R:3:forces:R:3 energy=-3753.8493648337835 free_energy=-3753.8493648337835 stress="-0.008869402562826704 -0.0 -0.0 -0.0 -0.008883174927054694 0.0 -0.0 0.0 -0.008974072530959441" pbc="T T T"
O        0.00000000       1.17424985       4.12058894       0.00000000       0.00000566       0.03003254
O        0.00000000       3.52274981       2.65341007       0.00000000      -0.00000566      -0.03003254
O        2.34849983       3.52274972       0.73358926      -0.00000000       0.00000257       0.03003511
O        2.34849983       1.17424994       6.04040936      -0.00000000      -0.00000257      -0.03003511
O        0.00000000       3.52274975       5.81414481       0.00000000      -0.00000026       0.02999809
O        0.00000000       1.17424991       0.95985420       0.00000000       0.00000026      -0.02999809
O        2.34849983       1.17424992       2.42714541       0.00000000      -0.00000000       0.02999835
O        2.34849983       3.52274974       4.34685320       0.00000000       0.00000000      -0.02999835
H        0.00000000       1.96710712       4.71998648       0.00000000      -0.02310702      -0.00058030
H        0.00000000       2.72989240       2.05401233       0.00000000       0.02310702       0.00058030
H        2.34849983       2.72989244       1.33298705       0.00000000       0.02310445      -0.00057901
H        2.34849983       1.96710707       5.44101176       0.00000000      -0.02310445       0.00057901
H        3.90413335       3.52274974       6.41352793       0.02313479      -0.00000000      -0.00047591
H        0.79286617       1.17424992       0.36047088      -0.02313479       0.00000000       0.00047591
H        3.14136610       1.17424991       3.02652879      -0.02313427      -0.00000000      -0.00047643
H        1.55563370       3.52274975       3.74747002       0.02313427       0.00000000       0.00047643
H        3.14136610       3.52274975       3.74747002      -0.02313427       0.00000000       0.00047643
H        1.55563370       1.17424991       3.02652879       0.02313427      -0.00000000      -0.00047643
H        3.90413335       1.17424992       0.36047088       0.02313479       0.00000000       0.00047591
H        0.79286617       3.52274974       6.41352793      -0.02313479      -0.00000000      -0.00047591
H        2.34849983       4.31560708       1.33298707       0.00000000      -0.02310676      -0.00058056
H        2.34849983       0.38139272       5.44101175       0.00000000       0.02310676       0.00058056
H        0.00000000       0.38139275       4.71998644       0.00000000       0.02310162      -0.00057644
H        0.00000000       4.31560704       2.05401237       0.00000000      -0.02310162       0.00057644
24
Lattice="4.696999655965992 0.0 0.0 0.0 4.696999655965992 0.0 0.0 0.0 6.773998812835185" Properties=species:S:1:pos:R:3:forces:R:3 energy=-3753.8497792631597 free_energy=-3753.8497792631597 stress="-0.008678425778865217 -0.0 -0.0 -0.0 -0.00869036182786281 -0.0 -0.0 -0.0 -0.008694034458323608" pbc="T T T"
O        0.00000000       1.17425008       4.12258621       0.00000000      -0.00001568       0.03278182
O        0.00000000       3.52274958       2.65141280       0.00000000       0.00001568      -0.03278182
O        2.34849983       3.52274982       0.73558652      -0.00000000      -0.00000694       0.03278594
O        2.34849983       1.17424984       6.03841210      -0.00000000       0.00000694      -0.03278594
O        0.00000000       3.52274975       5.81616175       0.00000000       0.00000051       0.03265790
O        0.00000000       1.17424991       0.95783726       0.00000000      -0.00000051      -0.03265790
O        2.34849983       1.17424992       2.42916227       0.00000000       0.00000000       0.03265918
O        2.34849983       3.52274974       4.34483634       0.00000000      -0.00000000      -0.03265918
H        0.00000000       1.96710848       4.72219335       0.00000000      -0.02557553      -0.00459765
H        0.00000000       2.72989103       2.05180547       0.00000000       0.02557553       0.00459765
H        2.34849983       2.72989092       1.33519404      -0.00000000       0.02558788      -0.00460716
H        2.34849983       1.96710860       5.43880477      -0.00000000      -0.02558788       0.00460716
H        3.90413106       3.52274974       6.41575357       0.02562181       0.00000026      -0.00450971