24
Lattice="4.358815731537452 0.0 0.0 0.0 4.358815731537452 0.0 0.0 0.0 6.286270971576118" Properties=species:S:1:pos:R:3:forces:R:3 energy=-3748.6507236894845 free_energy=-3748.6507236894845 stress="-0.3131312275604666 -0.0 -0.0 -0.0 -0.3131257186147754 -0.0 -0.0 -0.0 -0.3266198810853618" pbc="T T T"
O        0.00000000       1.08970393       3.82752230       0.00000000       0.00000026      -6.15876498
O        0.00000000       3.26911180       2.45874955       0.00000000      -0.00000026       6.15876498
O        2.17940787       3.26911180       0.68438638       0.00000000       0.00000026      -6.15875058
O        2.17940787       1.08970393       5.60188503       0.00000000      -0.00000026       6.15875058
O        0.00000000       3.26911180       5.39909026      -0.00000000      -0.00000000      -6.15864671
O        0.00000000       1.08970393       0.88718159      -0.00000000       0.00000000       6.15864671
O        2.17940787       1.08970393       2.25595434      -0.00000000       0.00000000      -6.15862897
O        2.17940787       3.26911180       4.03031707      -0.00000000      -0.00000000       6.15862897
H        0.00000000       1.80563942       4.37097029       0.00000000       4.63479371       3.13636096
H        0.00000000       2.55317631       1.91530112       0.00000000      -4.63479371      -3.13636096
H        2.17940787       2.55317631       1.22783480       0.00000000      -4.63479526       3.13636559
H        2.17940787       1.80563942       5.05843704       0.00000000       4.63479526      -3.13636559
H        3.64288025       3.26911180       5.94253825      -4.63481248      -0.00000000       3.13639310
H        0.71593548       1.08970393       0.34373316       4.63481248       0.00000000      -3.13639310
H        2.89534335       1.08970393       2.79940233       4.63481660       0.00000000       3.13639824
H        1.46347238       3.26911180       3.48686908      -4.63481660      -0.00000000      -3.13639824
H        2.89534335       3.26911180       3.48686908       4.63481660      -0.00000000      -3.13639824
H        1.46347238       1.08970393       2.79940233      -4.63481660       0.00000000       3.13639824
H        3.64288025       1.08970393       0.34373316      -4.63481248       0.00000000      -3.13639310
H        0.71593548       3.26911180       5.94253825       4.63481248      -0.00000000       3.13639310
H        2.17940787       3.98504728       1.22783480       0.00000000       4.63479526       3.13636559
H        2.17940787       0.37376845       5.05843704       0.00000000      -4.63479526      -3.13636559
H        0.00000000       0.37376845       4.37097029       0.00000000      -4.63479371       3.13636071
H        0.00000000       3.98504728       1.91530112       0.00000000       4.63479371      -3.13636071
