24
Lattice="4.358815731537452 0.0 0.0 0.0 4.358815731537452 0.0 0.0 0.0 6.286270971576118" Properties=species:S:1:pos:R:3:forces:R:3 energy=-3748.6507236894845 free_energy=-3748.6507236894845 stress="-0.3131312275604666 -0.0 -0.0 -0.0 -0.3131257186147754 -0.0 -0.0 -0.0 -0.3266198810853618" pbc="T T T"
O        0.00000000       1.08970393       3.82752230       0.00000000       0.00000026      -6.15876498
O        0.00000000       3.26911180       2.45874955       0.00000000      -0.00000026       6.15876498
O        2.17940787       3.26911180       0.68438638      -0.00000000       0.00000026      -6.15875058
O        2.17940787       1.08970393       5.60188503      -0.00000000      -0.00000026       6.15875058
O        0.00000000       3.26911180       5.39909026      -0.00000000      -0.00000000      -6.15864671
O        0.00000000       1.08970393       0.88718159      -0.00000000       0.00000000       6.15864671
O        2.17940787       1.08970393       2.25595434       0.00000000       0.00000000      -6.15862897
O        2.17940787       3.26911180       4.03031707       0.00000000      -0.00000000       6.15862897
H        0.00000000       1.80563942       4.37097029       0.00000000       4.63479371       3.13636096
H        0.00000000       2.55317631       1.91530112       0.00000000      -4.63479371      -3.13636096
H        2.17940787       2.55317631       1.22783480       0.00000000      -4.63479526       3.13636559
H        2.17940787       1.80563942       5.05843704       0.00000000       4.63479526      -3.13636559
H        3.64288025       3.26911180       5.94253825      -4.63481248      -0.00000000       3.13639310
H        0.71593548       1.08970393       0.34373316       4.63481248       0.00000000      -3.13639310
H        2.89534335       1.08970393       2.79940233       4.63481660       0.00000000       3.13639824
H        1.46347238       3.26911180       3.48686908      -4.63481660      -0.00000000      -3.13639824
H        2.89534335       3.26911180       3.48686908       4.63481660      -0.00000000      -3.13639824
H        1.46347238       1.08970393       2.79940233      -4.63481660       0.00000000       3.13639824
H        3.64288025       1.08970393       0.34373316      -4.63481248       0.00000000      -3.13639310
H        0.71593548       3.26911180       5.94253825       4.63481248      -0.00000000       3.13639310
H        2.17940787       3.98504728       1.22783480       0.00000000       4.63479526       3.13636559
H        2.17940787       0.37376845       5.05843704       0.00000000      -4.63479526      -3.13636559
H        0.00000000       0.37376845       4.37097029       0.00000000      -4.63479371       3.13636071
H        0.00000000       3.98504728       1.91530112       0.00000000       4.63479371      -3.13636071
24
Lattice="4.358815731537452 0.0 0.0 0.0 4.358815731537452 0.0 0.0 0.0 6.286270971576118" Properties=species:S:1:pos:R:3:forces:R:3 energy=-3750.2043990125926 free_energy=-3750.2043990125926 stress="-0.008470004000214942 -0.0 -0.0 -0.0 -0.008461740581678147 -0.0 -0.0 -0.0 0.08333014884027183" pbc="T T T"
O        0.00000000       1.08970394       3.70076403       0.00000000      -0.00000026       4.13765369
O        0.00000000       3.26911179       2.58550712       0.00000000       0.00000026      -4.13765369
O        2.17940787       3.26911180       0.55762866       0.00000000      -0.00000000       4.13764701
O        2.17940787       1.08970393       5.72864213       0.00000000       0.00000000      -4.13764701
O        0.00000000       3.26911180       5.27233421       0.00000000       0.00000000       4.13763672
O        0.00000000       1.08970393       1.01393694       0.00000000      -0.00000000      -4.13763672
O        2.17940787       1.08970394       2.12919891       0.00000000      -0.00000000       4.13762978
O        2.17940787       3.26911180       4.15707188       0.00000000       0.00000000      -4.13762978
H        0.00000000       1.90103138       4.43552168       0.00000000      -0.82738074      -1.65388499
H        0.00000000       2.45778422       1.85074929       0.00000000       0.82738074       1.65388499
H        2.17940787       2.45778420       1.29238629       0.00000000       0.82737997      -1.65388242
H        2.17940787       1.90103140       4.99388468       0.00000000      -0.82737997       1.65388242
H        3.54748777       3.26911180       6.00709009       0.82742471       0.00000000      -1.65386776
H        0.81132783       1.08970393       0.27918088      -0.82742471      -0.00000000       1.65386776
H        2.99073591       1.08970393       2.86395471      -0.82742445       0.00000000      -1.65386545
H        1.36807995       3.26911180       3.42231626       0.82742445      -0.00000000       1.65386545
H        2.99073591       3.26911180       3.42231626      -0.82742445      -0.00000000       1.65386545
H        1.36807995       1.08970393       2.86395471       0.82742445       0.00000000      -1.65386545
H        3.54748777       1.08970393       0.27918088       0.82742471      -0.00000000       1.65386776
H        0.81132783       3.26911180       6.00709009      -0.82742471       0.00000000      -1.65386776
H        2.17940787       4.08043940       1.29238630       0.00000000      -0.82737997      -1.65388242
H        2.17940787       0.27837646       4.99388468       0.00000000       0.82737997       1.65388242
H        0.00000000       0.27837649       4.43552168       0.00000000       0.82738074      -1.65388499
H        0.00000000       4.08043937       1.85074929       0.00000000      -0.82738074       1.65388499
24
Lattice="4.358815731537452 0.0 0.0 0.0 4.358815731537452 0.0 0.0 0.0 6.286270971576118" Properties=species:S:1:pos:R:3:forces:R:3 energy=-3752.1515895865614 free_energy=-3752.1515895865614 stress="-0.0480582058947697 -0.0 -0.0 -0.0 -0.0480526969490785 -0.0 -0.0 -0.0 -0.013348175409769628" pbc="T T T"
O        0.00000000       1.08970394       3.75705542       0.00000000      -0.00000000       1.99051002
O        0.00000000       3.26911180       2.52921573       0.00000000       0.00000000      -1.99051002
O        2.17940787       3.26911180       0.61391996       0.00000000      -0.00000000       1.99050719
O        2.17940787       1.08970393       5.67235083       0.00000000       0.00000000      -1.99050719
O        0.00000000       3.26911180       5.32862541      -0.00000000       0.00000000       1.99027733
O        0.00000000       1.08970393       0.95764574      -0.00000000      -0.00000000      -1.99027733
O        2.17940787       1.08970394       2.18549002       0.00000000      -0.00000000       1.99027322
O        2.17940787       3.26911180       4.10078077       0.00000000       0.00000000      -1.99027322
H        0.00000000       1.89151252       4.41336552       0.00000000      -0.44167233      -0.74170978
H        0.00000000       2.46730308       1.87290545       0.00000000       0.44167233       0.74170978
H        2.17940787       2.46730304       1.27023017       0.00000000       0.44167259      -0.74170901
H        2.17940787       1.89151256       5.01604080       0.00000000      -0.44167259       0.74170901
H        3.55700725       3.26911180       5.98493419       0.44170498       0.00000000      -0.74165759
H        0.80180835       1.08970393       0.30133678      -0.44170498      -0.00000000       0.74165759
H        2.98121643       1.08970393       2.84179885      -0.44170550       0.00000000      -0.74165656
H        1.37759943       3.26911180       3.44447212       0.44170550      -0.00000000       0.74165656
H        2.98121643       3.26911180       3.44447212      -0.44170550      -0.00000000       0.74165656
H        1.37759943       1.08970393       2.84179885       0.44170550       0.00000000      -0.74165656
H        3.55700725       1.08970393       0.30133678       0.44170498      -0.00000000       0.74165759
H        0.80180835       3.26911180       5.98493419      -0.44170498       0.00000000      -0.74165759
H        2.17940787       4.07092056       1.27023017       0.00000000      -0.44167233      -0.74170901
H        2.17940787       0.28789531       5.01604080       0.00000000       0.44167233       0.74170901
H        0.00000000       0.28789535       4.41336552       0.00000000       0.44167233      -0.74170978
H        0.00000000       4.07092051       1.87290545       0.00000000      -0.44167233       0.74170978
24
Lattice="4.358815731537452 0.0 0.0 0.0 4.358815731537452 0.0 0.0 0.0 6.286270971576118" Properties=species:S:1:pos:R:3:forces:R:3 energy=-3752.5134745969312 free_energy=-3752.5134745969312 stress="-0.11013943304648063 -0.0 -0.0 -0.0 -0.11014494199217181 0.0 -0.0 0.0 -0.11356324279355938" pbc="T T T"
O        0.00000000       1.08970393       3.80903550       0.00000000       0.00000000      -0.64567471
O        0.00000000       3.26911180       2.47723565       0.00000000      -0.00000000       0.64567471
O        2.17940787       3.26911180       0.66589997       0.00000000       0.00000000      -0.64567368
O        2.17940787       1.08970393       5.62037082       0.00000000      -0.00000000       0.64567368
O        0.00000000       3.26911180       5.38059649       0.00000000       0.00000000      -0.64488924
O        0.00000000       1.08970393       0.90567466       0.00000000      -0.00000000       0.64488924
O        2.17940787       1.08970393       2.23746099       0.00000000      -0.00000000      -0.64488795
O        2.17940787       3.26911180       4.04880980       0.00000000       0.00000000       0.64488795
H        0.00000000       1.88087550       4.39499910       0.00000000       0.49230275       0.44525593
H        0.00000000       2.47794010       1.89127187       0.00000000      -0.49230275      -0.44525593
H        2.17940787       2.47794007       1.25186377       0.00000000      -0.49230146       0.44525516
H        2.17940787       1.88087553       5.03440720       0.00000000       0.49230146      -0.44525516
H        3.56764529       3.26911180       5.96656973      -0.49217728       0.00000000       0.44512223
H        0.79117031       1.08970393       0.31970124       0.49217728      -0.00000000      -0.44512223
H        2.97057837       1.08970393       2.82343441       0.49217522       0.00000000       0.44512095
H        1.38823749       3.26911180       3.46283656      -0.49217522      -0.00000000      -0.44512095
H        2.97057837       3.26911180       3.46283656       0.49217522      -0.00000000      -0.44512095
H        1.38823749       1.08970393       2.82343441      -0.49217522       0.00000000       0.44512095
H        3.56764529       1.08970393       0.31970124      -0.49217728      -0.00000000      -0.44512223
H        0.79117031       3.26911180       5.96656973       0.49217728       0.00000000       0.44512223
H        2.17940787       4.06028353       1.25186377       0.00000000       0.49230146       0.44525490
H        2.17940787       0.29853233       5.03440720       0.00000000      -0.49230146      -0.44525490
H        0.00000000       0.29853237       4.39499910       0.00000000      -0.49230275       0.44525593
H        0.00000000       4.06028349       1.89127187       0.00000000       0.49230275      -0.44525593
24
Lattice="4.358815731537452 0.0 0.0 0.0 4.358815731537452 0.0 0.0 0.0 6.286270971576118" Properties=species:S:1:pos:R:3:forces:R:3 energy=-3752.5925416265736 free_energy=-3752.5925416265736 stress="-0.08421617093893931 -0.0 -0.0 -0.0 -0.08420239857471132 -0.0 -0.0 -0.0 -0.08097323824205484" pbc="T T T"
O        0.00000000       1.08970394       3.79776490       0.00000000      -0.00000000       0.20563220
O        0.00000000       3.26911180       2.48850626       0.00000000       0.00000000      -0.20563220
O        2.17940787       3.26911180       0.65462938       0.00000000      -0.00000000       0.20563117
O        2.17940787       1.08970393       5.63164141       0.00000000       0.00000000      -0.20563117
O        0.00000000       3.26911180       5.36933827       0.00000000       0.00000000       0.20571936
O        0.00000000       1.08970393       0.91693288       0.00000000      -0.00000000      -0.20571936
O        2.17940787       1.08970393       2.22620280       0.00000000      -0.00000000       0.20571808
O        2.17940787       3.26911180       4.06006799       0.00000000       0.00000000      -0.20571808
H        0.00000000       1.88849884       4.40192446       0.00000000       0.06263259       0.05122152
H        0.00000000       2.47031676       1.88434651       0.00000000      -0.06263259      -0.05122152
H        2.17940787       2.47031674       1.25878912       0.00000000      -0.06263233       0.05122152
H        2.17940787       1.88849886       5.02748185       0.00000000       0.06263233      -0.05122152
H        3.56002368       3.26911180       5.97349295      -0.06274237       0.00000000       0.05137038
H        0.79879192       1.08970393       0.31277802       0.06274237      -0.00000000      -0.05137038
H        2.97819996       1.08970393       2.83035762       0.06274186       0.00000000       0.05137038
H        1.38061590       3.26911180       3.45591336      -0.06274186      -0.00000000      -0.05137038
H        2.97819996       3.26911180       3.45591336       0.06274186      -0.00000000      -0.05137038
H        1.38061590       1.08970393       2.83035762      -0.06274186       0.00000000       0.05137038
H        3.56002368       1.08970393       0.31277802      -0.06274237      -0.00000000      -0.05137038
H        0.79879192       3.26911180       5.97349295       0.06274237       0.00000000       0.05137038
H        2.17940787       4.06790686       1.25878912       0.00000000       0.06263233       0.05122152
H        2.17940787       0.29090900       5.02748185       0.00000000      -0.06263233      -0.05122152
H        0.00000000       0.29090902       4.40192446       0.00000000      -0.06263259       0.05122152
H        0.00000000       4.06790684       1.88434651       0.00000000       0.06263259      -0.05122152
24
Lattice="4.358815731537452 0.0 0.0 0.0 4.358815731537452 0.0 0.0 0.0 6.286270971576118" Properties=species:S:1:pos:R:3:forces:R:3 energy=-3752.6013487270193 free_energy=-3752.6013487270193 stress="-0.0827305919175466 -0.0 -0.0 -0.0 -0.0827149832380882 0.0 -0.0 0.0 -0.08122389527100429" pbc="T T T"
O        0.00000000       1.08970393       3.80187745      -0.00000000       0.00000000       0.14166521
O        0.00000000       3.26911180       2.48439371      -0.00000000      -0.00000000      -0.14166521
O        2.17940787       3.26911180       0.65874191       0.00000000       0.00000000       0.14166496
O        2.17940787       1.08970393       5.62752888       0.00000000      -0.00000000      -0.14166496
O        0.00000000       3.26911180       5.37345363       0.00000000       0.00000000       0.14181537
O        0.00000000       1.08970393       0.91281753       0.00000000      -0.00000000      -0.14181537
O        2.17940787       1.08970393       2.23031812       0.00000000      -0.00000000       0.14181485
O        2.17940787       3.26911180       4.05595267       0.00000000       0.00000000      -0.14181485
H        0.00000000       1.89052345       4.40333186       0.00000000       0.04162847       0.07291906
H        0.00000000       2.46829215       1.88293911       0.00000000      -0.04162847      -0.07291906
H        2.17940787       2.46829214       1.26019651       0.00000000      -0.04162822       0.07291880
H        2.17940787       1.89052346       5.02607446       0.00000000       0.04162822      -0.07291880
H        3.55799710       3.26911180       5.97490315      -0.04165727       0.00000000       0.07303064
H        0.80081850       1.08970393       0.31136783       0.04165727      -0.00000000      -0.07303064
H        2.98022652       1.08970393       2.83176781       0.04165676       0.00000000       0.07303039
H        1.37858934       3.26911180       3.45450316      -0.04165676      -0.00000000      -0.07303039
H        2.98022652       3.26911180       3.45450316       0.04165676      -0.00000000      -0.07303039
H        1.37858934       1.08970393       2.83176781      -0.04165676       0.00000000       0.07303039
H        3.55799710       1.08970393       0.31136783      -0.04165727      -0.00000000      -0.07303064
H        0.80081850       3.26911180       5.97490315       0.04165727       0.00000000       0.07303064
H        2.17940787       4.06993146       1.26019651       0.00000000       0.04162822       0.07291880
H        2.17940787       0.28888441       5.02607446       0.00000000      -0.04162822      -0.07291880
H        0.00000000       0.28888442       4.40333186       0.00000000      -0.04162847       0.07291906
H        0.00000000       4.06993144       1.88293912       0.00000000       0.04162847      -0.07291906
24
Lattice="4.358815731537452 0.0 0.0 0.0 4.358815731537452 0.0 0.0 0.0 6.286270971576118" Properties=species:S:1:pos:R:3:forces:R:3 energy=-3752.6097279284527 free_energy=-3752.6097279284527 stress="-0.08109076241680037 -0.0 -0.0 -0.0 -0.08108066268303317 -0.0 -0.0 -0.0 -0.08099802849766523" pbc="T T T"
O        0.00000000       1.08970393       3.80639902       0.00000000      -0.00000000       0.10149970
O        0.00000000       3.26911180       2.47987213       0.00000000       0.00000000      -0.10149970
O        2.17940787       3.26911180       0.66326347      -0.00000000      -0.00000000       0.10149918
O        2.17940787       1.08970393       5.62300731      -0.00000000       0.00000000      -0.10149918
O        0.00000000       3.26911180       5.37798052       0.00000000       0.00000000       0.10155446
O        0.00000000       1.08970393       0.90829064       0.00000000      -0.00000000      -0.10155446
O        2.17940787       1.08970393       2.23484499      -0.00000000      -0.00000000       0.10155395
O        2.17940787       3.26911180       4.05142580      -0.00000000       0.00000000      -0.10155395
H        0.00000000       1.89265409       4.40579029       0.00000000       0.01083566       0.08270159
H        0.00000000       2.46616151       1.88048068       0.00000000      -0.01083566      -0.08270159
H        2.17940787       2.46616152       1.26265493       0.00000000      -0.01083540       0.08270133
H        2.17940787       1.89265408       5.02361604       0.00000000       0.01083540      -0.08270133
H        3.55586549       3.26911180       5.97736489      -0.01088297       0.00000000       0.08285097
H        0.80295011       1.08970393       0.30890608       0.01088297      -0.00000000      -0.08285097
H        2.98235813       1.08970393       2.83422954       0.01088271       0.00000000       0.08285071
H        1.37645774       3.26911180       3.45204143      -0.01088271      -0.00000000      -0.08285071
H        2.98235813       3.26911180       3.45204143       0.01088271      -0.00000000      -0.08285071
H        1.37645774       1.08970393       2.83422954      -0.01088271       0.00000000       0.08285071
H        3.55586549       1.08970393       0.30890608      -0.01088297      -0.00000000      -0.08285097
H        0.80295011       3.26911180       5.97736489       0.01088297       0.00000000       0.08285097
H        2.17940787       4.07206208       1.26265493       0.00000000       0.01083540       0.08270133
H        2.17940787       0.28675378       5.02361604       0.00000000      -0.01083540      -0.08270133
H        0.00000000       0.28675378       4.40579029       0.00000000      -0.01083566       0.08270159
H        0.00000000       4.07206208       1.88048068       0.00000000       0.01083566      -0.08270159
24
Lattice="4.358815731537452 0.0 0.0 0.0 4.358815731537452 0.0 0.0 0.0 6.286270971576118" Properties=species:S:1:pos:R:3:forces:R:3 energy=-3752.6198502911366 free_energy=-3752.6198502911366 stress="-0.0787081434053578 -0.0 -0.0 -0.0 -0.078699879986821 0.0 -0.0 0.0 -0.08017811374729213" pbc="T T T"
O        0.00000000       1.08970393       3.81318373       0.00000000       0.00000000       0.05141101
O        0.00000000       3.26911180       2.47308742       0.00000000      -0.00000000      -0.05141101
O        2.17940787       3.26911180       0.67004815       0.00000000       0.00000000       0.05141101
O        2.17940787       1.08970393       5.61622263       0.00000000      -0.00000000      -0.05141101
O        0.00000000       3.26911180       5.38477085       0.00000000      -0.00000000       0.05153571
O        0.00000000       1.08970393       0.90150030       0.00000000       0.00000000      -0.05153571
O        2.17940787       1.08970393       2.24163529       0.00000000      -0.00000000       0.05153571
O        2.17940787       3.26911180       4.04463550       0.00000000       0.00000000      -0.05153571
H        0.00000000       1.89517614       4.41029114       0.00000000      -0.02598100       0.09133535
H        0.00000000       2.46363946       1.87597983       0.00000000       0.02598100      -0.09133535
H        2.17940787       2.46363948       1.26715577       0.00000000       0.02598100       0.09133484
H        2.17940787       1.89517612       5.01911520       0.00000000      -0.02598100      -0.09133484
H        3.55334071       3.26911180       5.98187305       0.02607021      -0.00000000       0.09138601
H        0.80547489       1.08970393       0.30439792      -0.02607021       0.00000000      -0.09138601
H        2.98488288       1.08970393       2.83873769      -0.02607021      -0.00000000       0.09138575
H        1.37393298       3.26911180       3.44753328       0.02607021       0.00000000      -0.09138575
H        2.98488288       3.26911180       3.44753328      -0.02607021       0.00000000      -0.09138575
H        1.37393298       1.08970393       2.83873769       0.02607021      -0.00000000       0.09138575
H        3.55334071       1.08970393       0.30439792       0.02607021       0.00000000      -0.09138601
H        0.80547489       3.26911180       5.98187305      -0.02607021      -0.00000000       0.09138601
H        2.17940787       4.07458412       1.26715577       0.00000000      -0.02598100       0.09133484
H        2.17940787       0.28423174       5.01911520       0.00000000       0.02598100      -0.09133484
H        0.00000000       0.28423173       4.41029114       0.00000000       0.02598100       0.09133535
H        0.00000000       4.07458413       1.87597983       0.00000000      -0.02598100      -0.09133535
24
Lattice="4.358815731537452 0.0 0.0 0.0 4.358815731537452 0.0 0.0 0.0 6.286270971576118" Properties=species:S:1:pos:R:3:forces:R:3 energy=-3752.6313321345588 free_energy=-3752.6313321345588 stress="-0.07590868083661467 -0.0 -0.0 -0.0 -0.07589490847238668 -0.0 -0.0 -0.0 -0.07894227359723366" pbc="T T T"
O        0.00000000       1.08970393       3.82335724       0.00000000      -0.00000000      -0.00958404
O        0.00000000       3.26911180       2.46291391       0.00000000       0.00000000       0.00958404
O        2.17940787       3.26911180       0.68022163       0.00000000      -0.00000000      -0.00958404
O        2.17940787       1.08970393       5.60604916       0.00000000       0.00000000       0.00958404
O        0.00000000       3.26911180       5.39495635       0.00000000       0.00000000      -0.00975374
O        0.00000000       1.08970393       0.89131480       0.00000000      -0.00000000       0.00975374
O        2.17940787       1.08970393       2.25182074       0.00000000       0.00000000      -0.00975348
O        2.17940787       3.26911180       4.03445004       0.00000000      -0.00000000       0.00975348
H        0.00000000       1.89796800       4.41820651       0.00000000      -0.06775680       0.09550466
H        0.00000000       2.46084760       1.86806446       0.00000000       0.06775680      -0.09550466
H        2.17940787       2.46084763       1.27507111       0.00000000       0.06775654       0.09550414
H        2.17940787       1.89796797       5.01119986       0.00000000      -0.06775654      -0.09550414
H        3.55054894       3.26911180       5.98979753       0.06780410       0.00000000       0.09558462
H        0.80826666       1.08970393       0.29647344      -0.06780410      -0.00000000      -0.09558462
H        2.98767463       1.08970393       2.84666215      -0.06780359      -0.00000000       0.09558410
H        1.37114123       3.26911180       3.43960883       0.06780359       0.00000000      -0.09558410
H        2.98767463       3.26911180       3.43960883      -0.06780359       0.00000000      -0.09558410
H        1.37114123       1.08970393       2.84666215       0.06780359      -0.00000000       0.09558410
H        3.55054894       1.08970393       0.29647344       0.06780410      -0.00000000      -0.09558462
H        0.80826666       3.26911180       5.98979753      -0.06780410       0.00000000       0.09558462
H        2.17940787       4.07737597       1.27507111       0.00000000      -0.06775654       0.09550440
H        2.17940787       0.28143990       5.01119986       0.00000000       0.06775654      -0.09550440
H        0.00000000       0.28143987       4.41820651       0.00000000       0.06775680       0.09550466
H        0.00000000       4.07737599       1.86806446       0.00000000      -0.06775680      -0.09550466
24
Lattice="4.358815731537452 0.0 0.0 0.0 4.358815731537452 0.0 0.0 0.0 6.286270971576118" Properties=species:S:1:pos:R:3:forces:R:3 energy=-3752.6434071861495 free_energy=-3752.6434071861495 stress="-0.0726804386615734 -0.0 -0.0 -0.0 -0.07267125708542141 0.0 -0.0 0.0 -0.07675430400021337" pbc="T T T"
O        0.00000000       1.08970393       3.83862841       0.00000000       0.00000026      -0.07212073
O        0.00000000       3.26911180       2.44764274       0.00000000      -0.00000026       0.07212073
O        2.17940787       3.26911180       0.69549273       0.00000000       0.00000026      -0.07211996
O        2.17940787       1.08970393       5.59077806       0.00000000      -0.00000026       0.07211996
O        0.00000000       3.26911180       5.41023460       0.00000000      -0.00000000      -0.07217704
O        0.00000000       1.08970393       0.87603655       0.00000000       0.00000000       0.07217704
O        2.17940787       1.08970393       2.26709893       0.00000000       0.00000000      -0.07217601
O        2.17940787       3.26911180       4.01917186       0.00000000      -0.00000000       0.07217601
H        0.00000000       1.90038252       4.43212642       0.00000000      -0.10560858       0.08740080
H        0.00000000       2.45843308       1.85414455       0.00000000       0.10560858      -0.08740080
H        2.17940787       2.45843312       1.28899097       0.00000000       0.10560781       0.08740028
H        2.17940787       1.90038248       4.99728000       0.00000000      -0.10560781      -0.08740028
H        3.54813277       3.26911180       6.00373469       0.10585695      -0.00000000       0.08724524
H        0.81068283       1.08970393       0.28253628      -0.10585695       0.00000000      -0.08724524
H        2.99009078       1.08970393       2.86059926      -0.10585643      -0.00000000       0.08724499
H        1.36872508       3.26911180       3.42567171       0.10585643       0.00000000      -0.08724499
H        2.99009078       3.26911180       3.42567171      -0.10585643       0.00000000      -0.08724499
H        1.36872508       1.08970393       2.86059926       0.10585643      -0.00000000       0.08724499
H        3.54813277       1.08970393       0.28253628       0.10585695       0.00000000      -0.08724524
H        0.81068283       3.26911180       6.00373469      -0.10585695      -0.00000000       0.08724524
H        2.17940787       4.07979048       1.28899097       0.00000000      -0.10560806       0.08740028
H        2.17940787       0.27902538       4.99728000       0.00000000       0.10560806      -0.08740028
H        0.00000000       0.27902534       4.43212642       0.00000000       0.10560832       0.08740080
H        0.00000000       4.07979052       1.85414455       0.00000000      -0.10560832      -0.08740080
24
Lattice="4.358815731537452 0.0 0.0 0.0 4.358815731537452 0.0 0.0 0.0 6.286270971576118" Properties=species:S:1:pos:R:3:forces:R:3 energy=-3752.6519074782414 free_energy=-3752.6519074782414 stress="-0.07194774888464424 -0.0 -0.0 -0.0 -0.07193122204757064 -0.0 -0.0 -0.0 -0.07523199867421267" pbc="T T T"
O        0.00000000       1.08970393       3.84913478       0.00000000      -0.00000026      -0.08750621
O        0.00000000       3.26911180       2.43713637       0.00000000       0.00000026       0.08750621
O        2.17940787       3.26911180       0.70599907       0.00000000      -0.00000026      -0.08750570
O        2.17940787       1.08970393       5.58027172       0.00000000       0.00000026       0.08750570
O        0.00000000       3.26911180       5.42074678       0.00000000      -0.00000026      -0.08789548
O        0.00000000       1.08970393       0.86552437       0.00000000       0.00000026       0.08789548
O        2.17940787       1.08970393       2.27761107       0.00000000      -0.00000026      -0.08789470
O        2.17940787       3.26911180       4.00865972       0.00000000       0.00000026       0.08789470
H        0.00000000       1.89996329       4.44399112       0.00000000      -0.10206405       0.06575853
H        0.00000000       2.45885231       1.84227985       0.00000000       0.10206405      -0.06575853
H        2.17940787       2.45885236       1.30085563       0.00000000       0.10206380       0.06575828
H        2.17940787       1.89996325       4.98541534       0.00000000      -0.10206380      -0.06575828
H        3.54855717       3.26911180       6.01560687       0.10217024      -0.00000000       0.06562689