
     Program PWSCF v.7.3.1 starts on 15Feb2026 at 15:33:20 

     This program is part of the open-source Quantum ESPRESSO suite
     for quantum simulation of materials; please cite
         "P. Giannozzi et al., J. Phys.:Condens. Matter 21 395502 (2009);
         "P. Giannozzi et al., J. Phys.:Condens. Matter 29 465901 (2017);
         "P. Giannozzi et al., J. Chem. Phys. 152 154105 (2020);
          URL http://www.quantum-espresso.org", 
     in publications or presentations arising from this work. More details at
     http://www.quantum-espresso.org/quote

     Parallel version (MPI), running on   128 processors

     MPI processes distributed on     1 nodes
     240579 MiB available memory on the printing compute node when the environment starts

     Waiting for input...
     Reading input from standard input
     Message from routine read_cards :
     DEPRECATED: no units specified in ATOMIC_POSITIONS card
     Message from routine read_cards :
     ATOMIC_POSITIONS: units set to alat

     Current dimensions of program PWSCF are:
     Max number of different atomic species (ntypx) = 10
     Max number of k-points (npk) =  40000
     Max angular momentum in pseudopotentials (lmaxx) =  4
     Found identity + ( -0.5000 -0.5000  0.0000) symmetry
     This is a supercell, fractional translations are disabled

     K-points division:     npool     =       4
     R & G space division:  proc/nbgrp/npool/nimage =      32
     Subspace diagonalization in iterative solution of the eigenvalue problem:
     a serial algorithm will be used


     Parallelization info
     --------------------
     sticks:   dense  smooth     PW     G-vecs:    dense   smooth      PW
     Min         169     169     46                 9435     9435    1336
     Max         170     170     47                 9442     9442    1339
     Sum        5433    5433   1481               302027   302027   42787

     Using Slab Decomposition



     bravais-lattice index     =            6
     lattice parameter (alat)  =      10.3351  a.u.
     unit-cell volume          =    1105.1376 (a.u.)^3
     number of atoms/cell      =            8
     number of atomic types    =            1
     number of electrons       =        32.00
     number of Kohn-Sham states=           16
     kinetic-energy cutoff     =     160.0000  Ry
     charge density cutoff     =     640.0000  Ry
     scf convergence threshold =      1.0E-07
     mixing beta               =       0.7000
     number of iterations used =            8  plain     mixing
     Exchange-correlation=  SLA  PW   PBE  PBE
                           (   1   4   3   4   0   0   0)

     celldm(1)=  10.335059  celldm(2)=   0.000000  celldm(3)=   1.001100
     celldm(4)=   0.000000  celldm(5)=   0.000000  celldm(6)=   0.000000

     crystal axes: (cart. coord. in units of alat)
               a(1) = (   1.000000   0.000000   0.000000 )  
               a(2) = (   0.000000   1.000000   0.000000 )  
               a(3) = (   0.000000   0.000000   1.001100 )  

     reciprocal axes: (cart. coord. in units 2 pi/alat)
               b(1) = (  1.000000  0.000000  0.000000 )  
               b(2) = (  0.000000  1.000000  0.000000 )  
               b(3) = (  0.000000  0.000000  0.998901 )  


     PseudoPot. # 1 for Si read from file:
     ./Si.pbe-n-van.UPF
     MD5 check sum: 8a97496598b7338af554a5de8957bfee
     Pseudo is Ultrasoft + core correction, Zval =  4.0
     Generated by new atomic code, or converted to UPF format
     Using radial grid of  899 points,  6 beta functions with: 
                l(1) =   0
                l(2) =   0
                l(3) =   1
                l(4) =   1
                l(5) =   2
                l(6) =   2
     Q(r) pseudized with  8 coefficients,  rinner =    0.900   0.900   0.900
                                                       0.900   0.900

     atomic species   valence    mass     pseudopotential
     Si                4.00    28.08600     Si( 1.00)

      4 Sym. Ops. (no inversion) found



   Cartesian axes

     site n.     atom                  positions (alat units)
         1        Si     tau(   1) = (   0.0000000   0.0000000   0.0000000  )
         2        Si     tau(   2) = (   0.2500000   0.2500000   0.2500000  )
         3        Si     tau(   3) = (   0.7500000   0.2500000   0.7500000  )
         4        Si     tau(   4) = (   0.7500000   0.7500000   0.2500000  )
         5        Si     tau(   5) = (   0.2500000   0.7500000   0.7500000  )
         6        Si     tau(   6) = (   0.5000000   0.5000000   0.0000000  )
         7        Si     tau(   7) = (   0.5000000   0.0000000   0.5000000  )
         8        Si     tau(   8) = (   0.0000000   0.5000000   0.5000000  )

     number of k points=   105

     Number of k-points >= 100: set verbosity='high' to print them.

     Dense  grid:   302027 G-vectors     FFT dimensions: (  90,  90,  90)

     Estimated max dynamical RAM per process >      25.88 MB

     Estimated total dynamical RAM >       3.02 GB

     Initial potential from superposition of free atoms

     starting charge      31.9946, renormalised to      32.0000
     Starting wfcs are   32 randomized atomic wfcs

     total cpu time spent up to now is        2.2 secs

     per-process dynamical memory:    26.6 Mb

     Self-consistent Calculation

     iteration #  1     ecut=   160.00 Ry     beta= 0.70
     Davidson diagonalization with overlap
     ethr =  1.00E-02,  avg # of iterations =  2.0

     Threshold (ethr) on eigenvalues was too large:
     Diagonalizing with lowered threshold

     Davidson diagonalization with overlap
     ethr =  6.21E-04,  avg # of iterations =  1.0

     total cpu time spent up to now is        6.1 secs

     total energy              =     -76.76413696 Ry
     estimated scf accuracy    <       0.21327472 Ry

     iteration #  2     ecut=   160.00 Ry     beta= 0.70
     Davidson diagonalization with overlap
     ethr =  6.66E-04,  avg # of iterations =  1.0

     total cpu time spent up to now is        7.7 secs

     total energy              =     -76.77179879 Ry
     estimated scf accuracy    <       0.00989512 Ry

     iteration #  3     ecut=   160.00 Ry     beta= 0.70
     Davidson diagonalization with overlap
     ethr =  3.09E-05,  avg # of iterations =  2.0

     total cpu time spent up to now is        9.8 secs

     total energy              =     -76.77324775 Ry
     estimated scf accuracy    <       0.00016684 Ry

     iteration #  4     ecut=   160.00 Ry     beta= 0.70
     Davidson diagonalization with overlap
     ethr =  5.21E-07,  avg # of iterations =  6.3

     total cpu time spent up to now is       13.6 secs

     total energy              =     -76.77354761 Ry
     estimated scf accuracy    <       0.00000047 Ry

     iteration #  5     ecut=   160.00 Ry     beta= 0.70
     Davidson diagonalization with overlap
     ethr =  1.47E-09,  avg # of iterations =  9.1

     total cpu time spent up to now is       19.3 secs

     total energy              =     -76.77355433 Ry
     estimated scf accuracy    <       0.00000014 Ry

     iteration #  6     ecut=   160.00 Ry     beta= 0.70
     Davidson diagonalization with overlap
     ethr =  4.28E-10,  avg # of iterations =  2.4

     total cpu time spent up to now is       21.7 secs

     End of self-consistent calculation

     Number of k-points >= 100: set verbosity='high' to print the bands.

     highest occupied level (ev):     5.9726

!    total energy              =     -76.77355435 Ry
     estimated scf accuracy    <          6.4E-09 Ry

     The total energy is the sum of the following terms:
     one-electron contribution =      19.76324979 Ry
     hartree contribution      =       4.54411583 Ry
     xc contribution           =     -34.38976051 Ry
     ewald contribution        =     -66.69115946 Ry

     convergence has been achieved in   6 iterations

     Forces acting on atoms (cartesian axes, Ry/au):

     atom    1 type  1   force =     0.00000000    0.00000000   -0.00172596
     atom    2 type  1   force =    -0.00000069   -0.00000069   -0.00020129
     atom    3 type  1   force =     0.00000056   -0.00000056    0.00172382
     atom    4 type  1   force =     0.00000069    0.00000069   -0.00020129
     atom    5 type  1   force =    -0.00000056    0.00000056    0.00172382
     atom    6 type  1   force =     0.00000000    0.00000000   -0.00172653
     atom    7 type  1   force =     0.00000000    0.00000000    0.00020371
     atom    8 type  1   force =     0.00000000    0.00000000    0.00020371

     Total force =     0.003474     Total SCF correction =     0.000092


     Computing stress (Cartesian axis) and pressure

          total   stress  (Ry/bohr**3)                   (kbar)     P=       -1.16
  -0.00000549   0.00000359   0.00000000           -0.81        0.53        0.00
   0.00000359  -0.00000549   0.00000000            0.53       -0.81        0.00
   0.00000000   0.00000000  -0.00001273            0.00        0.00       -1.87


     Writing all to output data dir ./si-scf-van/silicon.save/ :
     XML data file, charge density, pseudopotentials, collected wavefunctions

     init_run     :      1.75s CPU      1.85s WALL (       1 calls)
     electrons    :     19.16s CPU     19.59s WALL (       1 calls)
     forces       :      0.58s CPU      0.59s WALL (       1 calls)
     stress       :      3.40s CPU      3.43s WALL (       1 calls)

     Called by init_run:
     wfcinit      :      1.14s CPU      1.17s WALL (       1 calls)
     potinit      :      0.02s CPU      0.05s WALL (       1 calls)
     hinit0       :      0.41s CPU      0.43s WALL (       1 calls)

     Called by electrons:
     c_bands      :     16.77s CPU     17.07s WALL (       7 calls)
     sum_band     :      2.13s CPU      2.19s WALL (       7 calls)
     v_of_rho     :      0.13s CPU      0.15s WALL (       7 calls)
     newd         :      0.10s CPU      0.11s WALL (       7 calls)
     mix_rho      :      0.02s CPU      0.02s WALL (       7 calls)

     Called by c_bands:
     init_us_2    :      0.77s CPU      0.79s WALL (     459 calls)
     cegterg      :     14.38s CPU     14.57s WALL (     189 calls)

     Called by *egterg:
     cdiaghg      :      0.43s CPU      0.43s WALL (     822 calls)
     h_psi        :     12.62s CPU     12.81s WALL (     876 calls)
     s_psi        :      0.94s CPU      0.95s WALL (     876 calls)
     g_psi        :      0.04s CPU      0.04s WALL (     660 calls)

     Called by h_psi:
     h_psi:calbec :      2.04s CPU      2.08s WALL (     876 calls)
     vloc_psi     :      9.44s CPU      9.59s WALL (     876 calls)
     add_vuspsi   :      1.04s CPU      1.05s WALL (     876 calls)

     General routines
     calbec       :      2.78s CPU      2.83s WALL (    1200 calls)
     fft          :      0.45s CPU      0.46s WALL (     103 calls)
     ffts         :      0.01s CPU      0.01s WALL (       7 calls)
     fftw         :      9.41s CPU      9.55s WALL (   26148 calls)

     Parallel routines

     PWSCF        :     25.74s CPU     27.93s WALL


   This run was terminated on:  15:33:48  15Feb2026            

=------------------------------------------------------------------------------=
   JOB DONE.
=------------------------------------------------------------------------------=
