
     Program PWSCF v.7.3.1 starts on 15Feb2026 at 15:42:39 

     This program is part of the open-source Quantum ESPRESSO suite
     for quantum simulation of materials; please cite
         "P. Giannozzi et al., J. Phys.:Condens. Matter 21 395502 (2009);
         "P. Giannozzi et al., J. Phys.:Condens. Matter 29 465901 (2017);
         "P. Giannozzi et al., J. Chem. Phys. 152 154105 (2020);
          URL http://www.quantum-espresso.org", 
     in publications or presentations arising from this work. More details at
     http://www.quantum-espresso.org/quote

     Parallel version (MPI), running on   128 processors

     MPI processes distributed on     1 nodes
     240651 MiB available memory on the printing compute node when the environment starts

     Waiting for input...
     Reading input from standard input
     Message from routine read_cards :
     DEPRECATED: no units specified in ATOMIC_POSITIONS card
     Message from routine read_cards :
     ATOMIC_POSITIONS: units set to alat

     Current dimensions of program PWSCF are:
     Max number of different atomic species (ntypx) = 10
     Max number of k-points (npk) =  40000
     Max angular momentum in pseudopotentials (lmaxx) =  4
     Found identity + ( -0.5000 -0.5000  0.0000) symmetry
     This is a supercell, fractional translations are disabled

     K-points division:     npool     =       4
     R & G space division:  proc/nbgrp/npool/nimage =      32
     Subspace diagonalization in iterative solution of the eigenvalue problem:
     a serial algorithm will be used


     Parallelization info
     --------------------
     sticks:   dense  smooth     PW     G-vecs:    dense   smooth      PW
     Min         169     169     46                 9451     9451    1338
     Max         170     170     47                 9456     9456    1341
     Sum        5433    5433   1481               302507   302507   42851

     Using Slab Decomposition



     bravais-lattice index     =            6
     lattice parameter (alat)  =      10.3351  a.u.
     unit-cell volume          =    1107.1246 (a.u.)^3
     number of atoms/cell      =            8
     number of atomic types    =            1
     number of electrons       =        32.00
     number of Kohn-Sham states=           16
     kinetic-energy cutoff     =     160.0000  Ry
     charge density cutoff     =     640.0000  Ry
     scf convergence threshold =      1.0E-07
     mixing beta               =       0.7000
     number of iterations used =            8  plain     mixing
     Exchange-correlation=  SLA  PW   PBE  PBE
                           (   1   4   3   4   0   0   0)

     celldm(1)=  10.335059  celldm(2)=   0.000000  celldm(3)=   1.002900
     celldm(4)=   0.000000  celldm(5)=   0.000000  celldm(6)=   0.000000

     crystal axes: (cart. coord. in units of alat)
               a(1) = (   1.000000   0.000000   0.000000 )  
               a(2) = (   0.000000   1.000000   0.000000 )  
               a(3) = (   0.000000   0.000000   1.002900 )  

     reciprocal axes: (cart. coord. in units 2 pi/alat)
               b(1) = (  1.000000  0.000000  0.000000 )  
               b(2) = (  0.000000  1.000000  0.000000 )  
               b(3) = (  0.000000  0.000000  0.997108 )  


     PseudoPot. # 1 for Si read from file:
     ./Si.pbe-n-van.UPF
     MD5 check sum: 8a97496598b7338af554a5de8957bfee
     Pseudo is Ultrasoft + core correction, Zval =  4.0
     Generated by new atomic code, or converted to UPF format
     Using radial grid of  899 points,  6 beta functions with: 
                l(1) =   0
                l(2) =   0
                l(3) =   1
                l(4) =   1
                l(5) =   2
                l(6) =   2
     Q(r) pseudized with  8 coefficients,  rinner =    0.900   0.900   0.900
                                                       0.900   0.900

     atomic species   valence    mass     pseudopotential
     Si                4.00    28.08600     Si( 1.00)

      4 Sym. Ops. (no inversion) found



   Cartesian axes

     site n.     atom                  positions (alat units)
         1        Si     tau(   1) = (   0.0000000   0.0000000   0.0000000  )
         2        Si     tau(   2) = (   0.2500000   0.2500000   0.2500000  )
         3        Si     tau(   3) = (   0.7500000   0.2500000   0.7500000  )
         4        Si     tau(   4) = (   0.7500000   0.7500000   0.2500000  )
         5        Si     tau(   5) = (   0.2500000   0.7500000   0.7500000  )
         6        Si     tau(   6) = (   0.5000000   0.5000000   0.0000000  )
         7        Si     tau(   7) = (   0.5000000   0.0000000   0.5000000  )
         8        Si     tau(   8) = (   0.0000000   0.5000000   0.5000000  )

     number of k points=   105

     Number of k-points >= 100: set verbosity='high' to print them.

     Dense  grid:   302507 G-vectors     FFT dimensions: (  90,  90,  90)

     Estimated max dynamical RAM per process >      25.91 MB

     Estimated total dynamical RAM >       3.02 GB

     Initial potential from superposition of free atoms

     starting charge      31.9946, renormalised to      32.0000
     Starting wfcs are   32 randomized atomic wfcs

     total cpu time spent up to now is        2.1 secs

     per-process dynamical memory:    26.4 Mb

     Self-consistent Calculation

     iteration #  1     ecut=   160.00 Ry     beta= 0.70
     Davidson diagonalization with overlap
     ethr =  1.00E-02,  avg # of iterations =  2.0

     Threshold (ethr) on eigenvalues was too large:
     Diagonalizing with lowered threshold

     Davidson diagonalization with overlap
     ethr =  6.19E-04,  avg # of iterations =  1.0

     total cpu time spent up to now is        6.0 secs

     total energy              =     -76.76404815 Ry
     estimated scf accuracy    <       0.21256414 Ry

     iteration #  2     ecut=   160.00 Ry     beta= 0.70
     Davidson diagonalization with overlap
     ethr =  6.64E-04,  avg # of iterations =  1.0

     total cpu time spent up to now is        7.7 secs

     total energy              =     -76.77165813 Ry
     estimated scf accuracy    <       0.00990689 Ry

     iteration #  3     ecut=   160.00 Ry     beta= 0.70
     Davidson diagonalization with overlap
     ethr =  3.10E-05,  avg # of iterations =  2.0

     total cpu time spent up to now is        9.7 secs

     total energy              =     -76.77311562 Ry
     estimated scf accuracy    <       0.00016491 Ry

     iteration #  4     ecut=   160.00 Ry     beta= 0.70
     Davidson diagonalization with overlap
     ethr =  5.15E-07,  avg # of iterations =  6.3

     total cpu time spent up to now is       13.6 secs

     total energy              =     -76.77341329 Ry
     estimated scf accuracy    <       0.00000053 Ry

     iteration #  5     ecut=   160.00 Ry     beta= 0.70
     Davidson diagonalization with overlap
     ethr =  1.65E-09,  avg # of iterations =  8.9

     total cpu time spent up to now is       19.3 secs

     total energy              =     -76.77341993 Ry
     estimated scf accuracy    <       0.00000022 Ry

     iteration #  6     ecut=   160.00 Ry     beta= 0.70
     Davidson diagonalization with overlap
     ethr =  6.78E-10,  avg # of iterations =  2.2

     total cpu time spent up to now is       21.4 secs

     End of self-consistent calculation

     Number of k-points >= 100: set verbosity='high' to print the bands.

     highest occupied level (ev):     5.9708

!    total energy              =     -76.77341998 Ry
     estimated scf accuracy    <       0.00000002 Ry

     The total energy is the sum of the following terms:
     one-electron contribution =      19.70832777 Ry
     hartree contribution      =       4.55046572 Ry
     xc contribution           =     -34.38123630 Ry
     ewald contribution        =     -66.65097716 Ry

     convergence has been achieved in   6 iterations

     Forces acting on atoms (cartesian axes, Ry/au):

     atom    1 type  1   force =     0.00000000    0.00000000   -0.00452593
     atom    2 type  1   force =    -0.00000142   -0.00000142   -0.00053616
     atom    3 type  1   force =     0.00000144   -0.00000144    0.00452750
     atom    4 type  1   force =     0.00000142    0.00000142   -0.00053616
     atom    5 type  1   force =    -0.00000144    0.00000144    0.00452750
     atom    6 type  1   force =     0.00000000    0.00000000   -0.00452578
     atom    7 type  1   force =     0.00000000    0.00000000    0.00053451
     atom    8 type  1   force =     0.00000000    0.00000000    0.00053451

     Total force =     0.009116     Total SCF correction =     0.000021


     Computing stress (Cartesian axis) and pressure

          total   stress  (Ry/bohr**3)                   (kbar)     P=       -2.75
  -0.00001224   0.00000927   0.00000000           -1.80        1.36        0.00
   0.00000927  -0.00001224   0.00000000            1.36       -1.80        0.00
   0.00000000   0.00000000  -0.00003153            0.00        0.00       -4.64


     Writing all to output data dir ./si-scf-van/silicon.save/ :
     XML data file, charge density, pseudopotentials, collected wavefunctions

     init_run     :      1.77s CPU      1.86s WALL (       1 calls)
     electrons    :     18.90s CPU     19.37s WALL (       1 calls)
     forces       :      0.58s CPU      0.59s WALL (       1 calls)
     stress       :      3.44s CPU      3.48s WALL (       1 calls)

     Called by init_run:
     wfcinit      :      1.14s CPU      1.17s WALL (       1 calls)
     potinit      :      0.03s CPU      0.05s WALL (       1 calls)
     hinit0       :      0.41s CPU      0.42s WALL (       1 calls)

     Called by electrons:
     c_bands      :     16.50s CPU     16.83s WALL (       7 calls)
     sum_band     :      2.14s CPU      2.19s WALL (       7 calls)
     v_of_rho     :      0.14s CPU      0.15s WALL (       7 calls)
     newd         :      0.09s CPU      0.11s WALL (       7 calls)
     mix_rho      :      0.02s CPU      0.02s WALL (       7 calls)

     Called by c_bands:
     init_us_2    :      0.75s CPU      0.78s WALL (     459 calls)
     cegterg      :     14.19s CPU     14.39s WALL (     189 calls)

     Called by *egterg:
     cdiaghg      :      0.42s CPU      0.42s WALL (     802 calls)
     h_psi        :     12.45s CPU     12.65s WALL (     856 calls)
     s_psi        :      0.92s CPU      0.93s WALL (     856 calls)
     g_psi        :      0.04s CPU      0.04s WALL (     640 calls)

     Called by h_psi:
     h_psi:calbec :      2.02s CPU      2.04s WALL (     856 calls)
     vloc_psi     :      9.33s CPU      9.49s WALL (     856 calls)
     add_vuspsi   :      1.01s CPU      1.02s WALL (     856 calls)

     General routines
     calbec       :      2.75s CPU      2.78s WALL (    1180 calls)
     fft          :      0.45s CPU      0.46s WALL (     103 calls)
     ffts         :      0.01s CPU      0.01s WALL (       7 calls)
     fftw         :      9.34s CPU      9.51s WALL (   25852 calls)

     Parallel routines

     PWSCF        :     25.36s CPU     27.60s WALL


   This run was terminated on:  15:43: 6  15Feb2026            

=------------------------------------------------------------------------------=
   JOB DONE.
=------------------------------------------------------------------------------=
