
     Program PWSCF v.7.3.1 starts on 15Feb2026 at 15:38:36 

     This program is part of the open-source Quantum ESPRESSO suite
     for quantum simulation of materials; please cite
         "P. Giannozzi et al., J. Phys.:Condens. Matter 21 395502 (2009);
         "P. Giannozzi et al., J. Phys.:Condens. Matter 29 465901 (2017);
         "P. Giannozzi et al., J. Chem. Phys. 152 154105 (2020);
          URL http://www.quantum-espresso.org", 
     in publications or presentations arising from this work. More details at
     http://www.quantum-espresso.org/quote

     Parallel version (MPI), running on   128 processors

     MPI processes distributed on     1 nodes
     240600 MiB available memory on the printing compute node when the environment starts

     Waiting for input...
     Reading input from standard input
     Message from routine read_cards :
     DEPRECATED: no units specified in ATOMIC_POSITIONS card
     Message from routine read_cards :
     ATOMIC_POSITIONS: units set to alat

     Current dimensions of program PWSCF are:
     Max number of different atomic species (ntypx) = 10
     Max number of k-points (npk) =  40000
     Max angular momentum in pseudopotentials (lmaxx) =  4
     Found identity + ( -0.5000 -0.5000  0.0000) symmetry
     This is a supercell, fractional translations are disabled

     K-points division:     npool     =       4
     R & G space division:  proc/nbgrp/npool/nimage =      32
     Subspace diagonalization in iterative solution of the eigenvalue problem:
     a serial algorithm will be used


     Parallelization info
     --------------------
     sticks:   dense  smooth     PW     G-vecs:    dense   smooth      PW
     Min         169     169     46                 9443     9443    1338
     Max         170     170     47                 9448     9448    1341
     Sum        5433    5433   1481               302251   302251   42835

     Using Slab Decomposition



     bravais-lattice index     =            6
     lattice parameter (alat)  =      10.3351  a.u.
     unit-cell volume          =    1106.2415 (a.u.)^3
     number of atoms/cell      =            8
     number of atomic types    =            1
     number of electrons       =        32.00
     number of Kohn-Sham states=           16
     kinetic-energy cutoff     =     160.0000  Ry
     charge density cutoff     =     640.0000  Ry
     scf convergence threshold =      1.0E-07
     mixing beta               =       0.7000
     number of iterations used =            8  plain     mixing
     Exchange-correlation=  SLA  PW   PBE  PBE
                           (   1   4   3   4   0   0   0)

     celldm(1)=  10.335059  celldm(2)=   0.000000  celldm(3)=   1.002100
     celldm(4)=   0.000000  celldm(5)=   0.000000  celldm(6)=   0.000000

     crystal axes: (cart. coord. in units of alat)
               a(1) = (   1.000000   0.000000   0.000000 )  
               a(2) = (   0.000000   1.000000   0.000000 )  
               a(3) = (   0.000000   0.000000   1.002100 )  

     reciprocal axes: (cart. coord. in units 2 pi/alat)
               b(1) = (  1.000000  0.000000  0.000000 )  
               b(2) = (  0.000000  1.000000  0.000000 )  
               b(3) = (  0.000000  0.000000  0.997904 )  


     PseudoPot. # 1 for Si read from file:
     ./Si.pbe-n-van.UPF
     MD5 check sum: 8a97496598b7338af554a5de8957bfee
     Pseudo is Ultrasoft + core correction, Zval =  4.0
     Generated by new atomic code, or converted to UPF format
     Using radial grid of  899 points,  6 beta functions with: 
                l(1) =   0
                l(2) =   0
                l(3) =   1
                l(4) =   1
                l(5) =   2
                l(6) =   2
     Q(r) pseudized with  8 coefficients,  rinner =    0.900   0.900   0.900
                                                       0.900   0.900

     atomic species   valence    mass     pseudopotential
     Si                4.00    28.08600     Si( 1.00)

      4 Sym. Ops. (no inversion) found



   Cartesian axes

     site n.     atom                  positions (alat units)
         1        Si     tau(   1) = (   0.0000000   0.0000000   0.0000000  )
         2        Si     tau(   2) = (   0.2500000   0.2500000   0.2500000  )
         3        Si     tau(   3) = (   0.7500000   0.2500000   0.7500000  )
         4        Si     tau(   4) = (   0.7500000   0.7500000   0.2500000  )
         5        Si     tau(   5) = (   0.2500000   0.7500000   0.7500000  )
         6        Si     tau(   6) = (   0.5000000   0.5000000   0.0000000  )
         7        Si     tau(   7) = (   0.5000000   0.0000000   0.5000000  )
         8        Si     tau(   8) = (   0.0000000   0.5000000   0.5000000  )

     number of k points=   105

     Number of k-points >= 100: set verbosity='high' to print them.

     Dense  grid:   302251 G-vectors     FFT dimensions: (  90,  90,  90)

     Estimated max dynamical RAM per process >      25.89 MB

     Estimated total dynamical RAM >       3.02 GB

     Initial potential from superposition of free atoms

     starting charge      31.9946, renormalised to      32.0000
     Starting wfcs are   32 randomized atomic wfcs

     total cpu time spent up to now is        2.1 secs

     per-process dynamical memory:    26.5 Mb

     Self-consistent Calculation

     iteration #  1     ecut=   160.00 Ry     beta= 0.70
     Davidson diagonalization with overlap
     ethr =  1.00E-02,  avg # of iterations =  2.0

     Threshold (ethr) on eigenvalues was too large:
     Diagonalizing with lowered threshold

     Davidson diagonalization with overlap
     ethr =  6.20E-04,  avg # of iterations =  1.0

     total cpu time spent up to now is        6.0 secs

     total energy              =     -76.76410883 Ry
     estimated scf accuracy    <       0.21287105 Ry

     iteration #  2     ecut=   160.00 Ry     beta= 0.70
     Davidson diagonalization with overlap
     ethr =  6.65E-04,  avg # of iterations =  1.0

     total cpu time spent up to now is        7.7 secs

     total energy              =     -76.77173752 Ry
     estimated scf accuracy    <       0.00990232 Ry

     iteration #  3     ecut=   160.00 Ry     beta= 0.70
     Davidson diagonalization with overlap
     ethr =  3.09E-05,  avg # of iterations =  2.0

     total cpu time spent up to now is        9.7 secs

     total energy              =     -76.77318861 Ry
     estimated scf accuracy    <       0.00016589 Ry

     iteration #  4     ecut=   160.00 Ry     beta= 0.70
     Davidson diagonalization with overlap
     ethr =  5.18E-07,  avg # of iterations =  6.3

     total cpu time spent up to now is       13.6 secs

     total energy              =     -76.77348741 Ry
     estimated scf accuracy    <       0.00000049 Ry

     iteration #  5     ecut=   160.00 Ry     beta= 0.70
     Davidson diagonalization with overlap
     ethr =  1.53E-09,  avg # of iterations =  9.0

     total cpu time spent up to now is       19.2 secs

     total energy              =     -76.77349422 Ry
     estimated scf accuracy    <       0.00000017 Ry

     iteration #  6     ecut=   160.00 Ry     beta= 0.70
     Davidson diagonalization with overlap
     ethr =  5.34E-10,  avg # of iterations =  2.2

     total cpu time spent up to now is       21.4 secs

     End of self-consistent calculation

     Number of k-points >= 100: set verbosity='high' to print the bands.

     highest occupied level (ev):     5.9716

!    total energy              =     -76.77349426 Ry
     estimated scf accuracy    <       0.00000002 Ry

     The total energy is the sum of the following terms:
     one-electron contribution =      19.73276943 Ry
     hartree contribution      =       4.54759123 Ry
     xc contribution           =     -34.38500167 Ry
     ewald contribution        =     -66.66885325 Ry

     convergence has been achieved in   6 iterations

     Forces acting on atoms (cartesian axes, Ry/au):

     atom    1 type  1   force =     0.00000000    0.00000000   -0.00328484
     atom    2 type  1   force =    -0.00000125   -0.00000125   -0.00038670
     atom    3 type  1   force =     0.00000124   -0.00000124    0.00328438
     atom    4 type  1   force =     0.00000125    0.00000125   -0.00038670
     atom    5 type  1   force =    -0.00000124    0.00000124    0.00328438
     atom    6 type  1   force =     0.00000000    0.00000000   -0.00328524
     atom    7 type  1   force =     0.00000000    0.00000000    0.00038736
     atom    8 type  1   force =     0.00000000    0.00000000    0.00038736

     Total force =     0.006615     Total SCF correction =     0.000043


     Computing stress (Cartesian axis) and pressure

          total   stress  (Ry/bohr**3)                   (kbar)     P=       -2.05
  -0.00000932   0.00000677   0.00000000           -1.37        1.00        0.00
   0.00000677  -0.00000932   0.00000000            1.00       -1.37        0.00
   0.00000000   0.00000000  -0.00002323            0.00        0.00       -3.42


     Writing all to output data dir ./si-scf-van/silicon.save/ :
     XML data file, charge density, pseudopotentials, collected wavefunctions

     init_run     :      1.72s CPU      1.83s WALL (       1 calls)
     electrons    :     19.00s CPU     19.36s WALL (       1 calls)
     forces       :      0.58s CPU      0.59s WALL (       1 calls)
     stress       :      3.39s CPU      3.44s WALL (       1 calls)

     Called by init_run:
     wfcinit      :      1.12s CPU      1.15s WALL (       1 calls)
     potinit      :      0.02s CPU      0.04s WALL (       1 calls)
     hinit0       :      0.41s CPU      0.42s WALL (       1 calls)

     Called by electrons:
     c_bands      :     16.58s CPU     16.84s WALL (       7 calls)
     sum_band     :      2.17s CPU      2.19s WALL (       7 calls)
     v_of_rho     :      0.12s CPU      0.15s WALL (       7 calls)
     newd         :      0.09s CPU      0.11s WALL (       7 calls)
     mix_rho      :      0.02s CPU      0.02s WALL (       7 calls)

     Called by c_bands:
     init_us_2    :      0.74s CPU      0.76s WALL (     459 calls)
     cegterg      :     14.21s CPU     14.38s WALL (     189 calls)

     Called by *egterg:
     cdiaghg      :      0.42s CPU      0.43s WALL (     807 calls)
     h_psi        :     12.38s CPU     12.56s WALL (     861 calls)
     s_psi        :      0.91s CPU      0.92s WALL (     861 calls)
     g_psi        :      0.04s CPU      0.04s WALL (     645 calls)

     Called by h_psi:
     h_psi:calbec :      2.04s CPU      2.06s WALL (     861 calls)
     vloc_psi     :      9.30s CPU      9.45s WALL (     861 calls)
     add_vuspsi   :      0.95s CPU      0.96s WALL (     861 calls)

     General routines
     calbec       :      2.77s CPU      2.80s WALL (    1185 calls)
     fft          :      0.44s CPU      0.46s WALL (     103 calls)
     ffts         :      0.01s CPU      0.01s WALL (       7 calls)
     fftw         :      9.35s CPU      9.48s WALL (   25898 calls)

     Parallel routines

     PWSCF        :     25.23s CPU     27.42s WALL


   This run was terminated on:  15:39: 3  15Feb2026            

=------------------------------------------------------------------------------=
   JOB DONE.
=------------------------------------------------------------------------------=
