
     Program PWSCF v.7.3.1 starts on 15Feb2026 at 14:40:28 

     This program is part of the open-source Quantum ESPRESSO suite
     for quantum simulation of materials; please cite
         "P. Giannozzi et al., J. Phys.:Condens. Matter 21 395502 (2009);
         "P. Giannozzi et al., J. Phys.:Condens. Matter 29 465901 (2017);
         "P. Giannozzi et al., J. Chem. Phys. 152 154105 (2020);
          URL http://www.quantum-espresso.org", 
     in publications or presentations arising from this work. More details at
     http://www.quantum-espresso.org/quote

     Parallel version (MPI), running on   128 processors

     MPI processes distributed on     1 nodes
     240647 MiB available memory on the printing compute node when the environment starts

     Waiting for input...
     Reading input from standard input
     Message from routine read_cards :
     DEPRECATED: no units specified in ATOMIC_POSITIONS card
     Message from routine read_cards :
     ATOMIC_POSITIONS: units set to alat

     Current dimensions of program PWSCF are:
     Max number of different atomic species (ntypx) = 10
     Max number of k-points (npk) =  40000
     Max angular momentum in pseudopotentials (lmaxx) =  4
     Found identity + ( -0.5000 -0.5000  0.0000) symmetry
     This is a supercell, fractional translations are disabled

     K-points division:     npool     =       4
     R & G space division:  proc/nbgrp/npool/nimage =      32
     Subspace diagonalization in iterative solution of the eigenvalue problem:
     a serial algorithm will be used


     Parallelization info
     --------------------
     sticks:   dense  smooth     PW     G-vecs:    dense   smooth      PW
     Min         169     169     46                 9343     9343    1320
     Max         170     170     47                 9350     9350    1323
     Sum        5433    5433   1481               299083   299083   42299

     Using Slab Decomposition



     bravais-lattice index     =            6
     lattice parameter (alat)  =      10.3351  a.u.
     unit-cell volume          =    1093.5464 (a.u.)^3
     number of atoms/cell      =            8
     number of atomic types    =            1
     number of electrons       =        32.00
     number of Kohn-Sham states=           16
     kinetic-energy cutoff     =     160.0000  Ry
     charge density cutoff     =     640.0000  Ry
     scf convergence threshold =      1.0E-07
     mixing beta               =       0.7000
     number of iterations used =            8  plain     mixing
     Exchange-correlation=  SLA  PW   PBE  PBE
                           (   1   4   3   4   0   0   0)

     celldm(1)=  10.335059  celldm(2)=   0.000000  celldm(3)=   0.990600
     celldm(4)=   0.000000  celldm(5)=   0.000000  celldm(6)=   0.000000

     crystal axes: (cart. coord. in units of alat)
               a(1) = (   1.000000   0.000000   0.000000 )  
               a(2) = (   0.000000   1.000000   0.000000 )  
               a(3) = (   0.000000   0.000000   0.990600 )  

     reciprocal axes: (cart. coord. in units 2 pi/alat)
               b(1) = (  1.000000  0.000000  0.000000 )  
               b(2) = (  0.000000  1.000000  0.000000 )  
               b(3) = (  0.000000  0.000000  1.009489 )  


     PseudoPot. # 1 for Si read from file:
     ./Si.pbe-n-van.UPF
     MD5 check sum: 8a97496598b7338af554a5de8957bfee
     Pseudo is Ultrasoft + core correction, Zval =  4.0
     Generated by new atomic code, or converted to UPF format
     Using radial grid of  899 points,  6 beta functions with: 
                l(1) =   0
                l(2) =   0
                l(3) =   1
                l(4) =   1
                l(5) =   2
                l(6) =   2
     Q(r) pseudized with  8 coefficients,  rinner =    0.900   0.900   0.900
                                                       0.900   0.900

     atomic species   valence    mass     pseudopotential
     Si                4.00    28.08600     Si( 1.00)

      4 Sym. Ops. (no inversion) found



   Cartesian axes

     site n.     atom                  positions (alat units)
         1        Si     tau(   1) = (   0.0000000   0.0000000   0.0000000  )
         2        Si     tau(   2) = (   0.2500000   0.2500000   0.2500000  )
         3        Si     tau(   3) = (   0.7500000   0.2500000   0.7500000  )
         4        Si     tau(   4) = (   0.7500000   0.7500000   0.2500000  )
         5        Si     tau(   5) = (   0.2500000   0.7500000   0.7500000  )
         6        Si     tau(   6) = (   0.5000000   0.5000000   0.0000000  )
         7        Si     tau(   7) = (   0.5000000   0.0000000   0.5000000  )
         8        Si     tau(   8) = (   0.0000000   0.5000000   0.5000000  )

     number of k points=   105

     Number of k-points >= 100: set verbosity='high' to print them.

     Dense  grid:   299083 G-vectors     FFT dimensions: (  90,  90,  90)

     Estimated max dynamical RAM per process >      25.65 MB

     Estimated total dynamical RAM >       2.99 GB

     Initial potential from superposition of free atoms

     starting charge      31.9946, renormalised to      32.0000
     Starting wfcs are   32 randomized atomic wfcs

     total cpu time spent up to now is        2.2 secs

     per-process dynamical memory:    26.3 Mb

     Self-consistent Calculation

     iteration #  1     ecut=   160.00 Ry     beta= 0.70
     Davidson diagonalization with overlap
     ethr =  1.00E-02,  avg # of iterations =  2.0

     Threshold (ethr) on eigenvalues was too large:
     Diagonalizing with lowered threshold

     Davidson diagonalization with overlap
     ethr =  6.32E-04,  avg # of iterations =  1.0

     total cpu time spent up to now is        6.0 secs

     total energy              =     -76.76211086 Ry
     estimated scf accuracy    <       0.21708350 Ry

     iteration #  2     ecut=   160.00 Ry     beta= 0.70
     Davidson diagonalization with overlap
     ethr =  6.78E-04,  avg # of iterations =  1.0

     total cpu time spent up to now is        7.6 secs

     total energy              =     -76.77012424 Ry
     estimated scf accuracy    <       0.00987698 Ry

     iteration #  3     ecut=   160.00 Ry     beta= 0.70
     Davidson diagonalization with overlap
     ethr =  3.09E-05,  avg # of iterations =  2.0

     total cpu time spent up to now is        9.7 secs

     total energy              =     -76.77162461 Ry
     estimated scf accuracy    <       0.00017135 Ry

     iteration #  4     ecut=   160.00 Ry     beta= 0.70
     Davidson diagonalization with overlap
     ethr =  5.35E-07,  avg # of iterations =  6.4

     total cpu time spent up to now is       13.5 secs

     total energy              =     -76.77192778 Ry
     estimated scf accuracy    <       0.00000110 Ry

     iteration #  5     ecut=   160.00 Ry     beta= 0.70
     Davidson diagonalization with overlap
     ethr =  3.45E-09,  avg # of iterations =  8.0

     total cpu time spent up to now is       18.6 secs

     total energy              =     -76.77193494 Ry
     estimated scf accuracy    <       0.00000073 Ry

     iteration #  6     ecut=   160.00 Ry     beta= 0.70
     Davidson diagonalization with overlap
     ethr =  2.27E-09,  avg # of iterations =  2.1

     total cpu time spent up to now is       20.8 secs

     End of self-consistent calculation

     Number of k-points >= 100: set verbosity='high' to print the bands.

     highest occupied level (ev):     6.1124

!    total energy              =     -76.77193512 Ry
     estimated scf accuracy    <       0.00000002 Ry

     The total energy is the sum of the following terms:
     one-electron contribution =      20.08218239 Ry
     hartree contribution      =       4.50831209 Ry
     xc contribution           =     -34.43946776 Ry
     ewald contribution        =     -66.92296184 Ry

     convergence has been achieved in   6 iterations

     Forces acting on atoms (cartesian axes, Ry/au):

     atom    1 type  1   force =     0.00000000    0.00000000    0.01516267
     atom    2 type  1   force =     0.00000080    0.00000080    0.00175915
     atom    3 type  1   force =    -0.00000043    0.00000043   -0.01516461
     atom    4 type  1   force =    -0.00000080   -0.00000080    0.00175915
     atom    5 type  1   force =     0.00000043   -0.00000043   -0.01516461
     atom    6 type  1   force =     0.00000000    0.00000000    0.01516376
     atom    7 type  1   force =     0.00000000    0.00000000   -0.00175775
     atom    8 type  1   force =     0.00000000    0.00000000   -0.00175775

     Total force =     0.030531     Total SCF correction =     0.000006


     Computing stress (Cartesian axis) and pressure

          total   stress  (Ry/bohr**3)                   (kbar)     P=        8.50
   0.00003843  -0.00003432   0.00000000            5.65       -5.05        0.00
  -0.00003432   0.00003843   0.00000000           -5.05        5.65        0.00
   0.00000000   0.00000000   0.00009641            0.00        0.00       14.18


     Writing all to output data dir ./si-scf-van/silicon.save/ :
     XML data file, charge density, pseudopotentials, collected wavefunctions

     init_run     :      1.75s CPU      1.86s WALL (       1 calls)
     electrons    :     18.21s CPU     18.66s WALL (       1 calls)
     forces       :      0.57s CPU      0.58s WALL (       1 calls)
     stress       :      3.37s CPU      3.39s WALL (       1 calls)

     Called by init_run:
     wfcinit      :      1.14s CPU      1.18s WALL (       1 calls)
     potinit      :      0.03s CPU      0.04s WALL (       1 calls)
     hinit0       :      0.40s CPU      0.42s WALL (       1 calls)

     Called by electrons:
     c_bands      :     15.83s CPU     16.16s WALL (       7 calls)
     sum_band     :      2.13s CPU      2.17s WALL (       7 calls)
     v_of_rho     :      0.14s CPU      0.15s WALL (       7 calls)
     newd         :      0.11s CPU      0.11s WALL (       7 calls)
     mix_rho      :      0.02s CPU      0.02s WALL (       7 calls)

     Called by c_bands:
     init_us_2    :      0.74s CPU      0.77s WALL (     459 calls)
     cegterg      :     13.67s CPU     13.87s WALL (     189 calls)

     Called by *egterg:
     cdiaghg      :      0.40s CPU      0.41s WALL (     777 calls)
     h_psi        :     12.03s CPU     12.24s WALL (     831 calls)
     s_psi        :      0.88s CPU      0.88s WALL (     831 calls)
     g_psi        :      0.04s CPU      0.04s WALL (     615 calls)

     Called by h_psi:
     h_psi:calbec :      1.92s CPU      1.94s WALL (     831 calls)
     vloc_psi     :      9.04s CPU      9.22s WALL (     831 calls)
     add_vuspsi   :      0.97s CPU      0.98s WALL (     831 calls)

     General routines
     calbec       :      2.63s CPU      2.66s WALL (    1155 calls)
     fft          :      0.46s CPU      0.46s WALL (     103 calls)
     ffts         :      0.01s CPU      0.01s WALL (       7 calls)
     fftw         :      9.09s CPU      9.26s WALL (   25244 calls)

     Parallel routines

     PWSCF        :     24.46s CPU     27.11s WALL


   This run was terminated on:  14:40:55  15Feb2026            

=------------------------------------------------------------------------------=
   JOB DONE.
=------------------------------------------------------------------------------=
