
     Program PWSCF v.7.3.1 starts on 15Feb2026 at 14:51:32 

     This program is part of the open-source Quantum ESPRESSO suite
     for quantum simulation of materials; please cite
         "P. Giannozzi et al., J. Phys.:Condens. Matter 21 395502 (2009);
         "P. Giannozzi et al., J. Phys.:Condens. Matter 29 465901 (2017);
         "P. Giannozzi et al., J. Chem. Phys. 152 154105 (2020);
          URL http://www.quantum-espresso.org", 
     in publications or presentations arising from this work. More details at
     http://www.quantum-espresso.org/quote

     Parallel version (MPI), running on   128 processors

     MPI processes distributed on     1 nodes
     240663 MiB available memory on the printing compute node when the environment starts

     Waiting for input...
     Reading input from standard input
     Message from routine read_cards :
     DEPRECATED: no units specified in ATOMIC_POSITIONS card
     Message from routine read_cards :
     ATOMIC_POSITIONS: units set to alat

     Current dimensions of program PWSCF are:
     Max number of different atomic species (ntypx) = 10
     Max number of k-points (npk) =  40000
     Max angular momentum in pseudopotentials (lmaxx) =  4
     Found identity + ( -0.5000 -0.5000  0.0000) symmetry
     This is a supercell, fractional translations are disabled

     K-points division:     npool     =       4
     R & G space division:  proc/nbgrp/npool/nimage =      32
     Subspace diagonalization in iterative solution of the eigenvalue problem:
     a serial algorithm will be used


     Parallelization info
     --------------------
     sticks:   dense  smooth     PW     G-vecs:    dense   smooth      PW
     Min         169     169     46                 9365     9365    1322
     Max         170     170     47                 9372     9372    1325
     Sum        5433    5433   1481               299803   299803   42331

     Using Slab Decomposition



     bravais-lattice index     =            6
     lattice parameter (alat)  =      10.3351  a.u.
     unit-cell volume          =    1095.9750 (a.u.)^3
     number of atoms/cell      =            8
     number of atomic types    =            1
     number of electrons       =        32.00
     number of Kohn-Sham states=           16
     kinetic-energy cutoff     =     160.0000  Ry
     charge density cutoff     =     640.0000  Ry
     scf convergence threshold =      1.0E-07
     mixing beta               =       0.7000
     number of iterations used =            8  plain     mixing
     Exchange-correlation=  SLA  PW   PBE  PBE
                           (   1   4   3   4   0   0   0)

     celldm(1)=  10.335059  celldm(2)=   0.000000  celldm(3)=   0.992800
     celldm(4)=   0.000000  celldm(5)=   0.000000  celldm(6)=   0.000000

     crystal axes: (cart. coord. in units of alat)
               a(1) = (   1.000000   0.000000   0.000000 )  
               a(2) = (   0.000000   1.000000   0.000000 )  
               a(3) = (   0.000000   0.000000   0.992800 )  

     reciprocal axes: (cart. coord. in units 2 pi/alat)
               b(1) = (  1.000000  0.000000  0.000000 )  
               b(2) = (  0.000000  1.000000  0.000000 )  
               b(3) = (  0.000000  0.000000  1.007252 )  


     PseudoPot. # 1 for Si read from file:
     ./Si.pbe-n-van.UPF
     MD5 check sum: 8a97496598b7338af554a5de8957bfee
     Pseudo is Ultrasoft + core correction, Zval =  4.0
     Generated by new atomic code, or converted to UPF format
     Using radial grid of  899 points,  6 beta functions with: 
                l(1) =   0
                l(2) =   0
                l(3) =   1
                l(4) =   1
                l(5) =   2
                l(6) =   2
     Q(r) pseudized with  8 coefficients,  rinner =    0.900   0.900   0.900
                                                       0.900   0.900

     atomic species   valence    mass     pseudopotential
     Si                4.00    28.08600     Si( 1.00)

      4 Sym. Ops. (no inversion) found



   Cartesian axes

     site n.     atom                  positions (alat units)
         1        Si     tau(   1) = (   0.0000000   0.0000000   0.0000000  )
         2        Si     tau(   2) = (   0.2500000   0.2500000   0.2500000  )
         3        Si     tau(   3) = (   0.7500000   0.2500000   0.7500000  )
         4        Si     tau(   4) = (   0.7500000   0.7500000   0.2500000  )
         5        Si     tau(   5) = (   0.2500000   0.7500000   0.7500000  )
         6        Si     tau(   6) = (   0.5000000   0.5000000   0.0000000  )
         7        Si     tau(   7) = (   0.5000000   0.0000000   0.5000000  )
         8        Si     tau(   8) = (   0.0000000   0.5000000   0.5000000  )

     number of k points=   105

     Number of k-points >= 100: set verbosity='high' to print them.

     Dense  grid:   299803 G-vectors     FFT dimensions: (  90,  90,  90)

     Estimated max dynamical RAM per process >      25.69 MB

     Estimated total dynamical RAM >       3.00 GB

     Initial potential from superposition of free atoms

     starting charge      31.9946, renormalised to      32.0000
     Starting wfcs are   32 randomized atomic wfcs

     total cpu time spent up to now is        2.1 secs

     per-process dynamical memory:    26.5 Mb

     Self-consistent Calculation

     iteration #  1     ecut=   160.00 Ry     beta= 0.70
     Davidson diagonalization with overlap
     ethr =  1.00E-02,  avg # of iterations =  2.0

     Threshold (ethr) on eigenvalues was too large:
     Diagonalizing with lowered threshold

     Davidson diagonalization with overlap
     ethr =  6.30E-04,  avg # of iterations =  1.0

     total cpu time spent up to now is        6.0 secs

     total energy              =     -76.76287560 Ry
     estimated scf accuracy    <       0.21624897 Ry

     iteration #  2     ecut=   160.00 Ry     beta= 0.70
     Davidson diagonalization with overlap
     ethr =  6.76E-04,  avg # of iterations =  1.0

     total cpu time spent up to now is        7.7 secs

     total energy              =     -76.77081410 Ry
     estimated scf accuracy    <       0.00988571 Ry

     iteration #  3     ecut=   160.00 Ry     beta= 0.70
     Davidson diagonalization with overlap
     ethr =  3.09E-05,  avg # of iterations =  2.0

     total cpu time spent up to now is        9.7 secs

     total energy              =     -76.77231085 Ry
     estimated scf accuracy    <       0.00016972 Ry

     iteration #  4     ecut=   160.00 Ry     beta= 0.70
     Davidson diagonalization with overlap
     ethr =  5.30E-07,  avg # of iterations =  6.3

     total cpu time spent up to now is       13.6 secs

     total energy              =     -76.77261285 Ry
     estimated scf accuracy    <       0.00000079 Ry

     iteration #  5     ecut=   160.00 Ry     beta= 0.70
     Davidson diagonalization with overlap
     ethr =  2.48E-09,  avg # of iterations =  8.4

     total cpu time spent up to now is       18.8 secs

     total energy              =     -76.77261972 Ry
     estimated scf accuracy    <       0.00000049 Ry

     iteration #  6     ecut=   160.00 Ry     beta= 0.70
     Davidson diagonalization with overlap
     ethr =  1.55E-09,  avg # of iterations =  2.1

     total cpu time spent up to now is       21.0 secs

     End of self-consistent calculation

     Number of k-points >= 100: set verbosity='high' to print the bands.

     highest occupied level (ev):     6.0805

!    total energy              =     -76.77261983 Ry
     estimated scf accuracy    <       0.00000002 Ry

     The total energy is the sum of the following terms:
     one-electron contribution =      20.01558289 Ry
     hartree contribution      =       4.51551686 Ry
     xc contribution           =     -34.42898409 Ry
     ewald contribution        =     -66.87473550 Ry

     convergence has been achieved in   6 iterations

     Forces acting on atoms (cartesian axes, Ry/au):

     atom    1 type  1   force =     0.00000000    0.00000000    0.01155436
     atom    2 type  1   force =     0.00000045    0.00000045    0.00134350
     atom    3 type  1   force =    -0.00000050    0.00000050   -0.01155248
     atom    4 type  1   force =    -0.00000045   -0.00000045    0.00134350
     atom    5 type  1   force =     0.00000050   -0.00000050   -0.01155248
     atom    6 type  1   force =     0.00000000    0.00000000    0.01155455
     atom    7 type  1   force =     0.00000000    0.00000000   -0.00134548
     atom    8 type  1   force =     0.00000000    0.00000000   -0.00134548

     Total force =     0.023263     Total SCF correction =     0.000003


     Computing stress (Cartesian axis) and pressure

          total   stress  (Ry/bohr**3)                   (kbar)     P=        6.39
   0.00002839  -0.00002569   0.00000000            4.18       -3.78        0.00
  -0.00002569   0.00002839   0.00000000           -3.78        4.18        0.00
   0.00000000   0.00000000   0.00007349            0.00        0.00       10.81


     Writing all to output data dir ./si-scf-van/silicon.save/ :
     XML data file, charge density, pseudopotentials, collected wavefunctions

     init_run     :      1.73s CPU      1.82s WALL (       1 calls)
     electrons    :     18.48s CPU     18.90s WALL (       1 calls)
     forces       :      0.57s CPU      0.58s WALL (       1 calls)
     stress       :      3.36s CPU      3.40s WALL (       1 calls)

     Called by init_run:
     wfcinit      :      1.10s CPU      1.14s WALL (       1 calls)
     potinit      :      0.03s CPU      0.04s WALL (       1 calls)
     hinit0       :      0.41s CPU      0.42s WALL (       1 calls)

     Called by electrons:
     c_bands      :     16.10s CPU     16.41s WALL (       7 calls)
     sum_band     :      2.12s CPU      2.16s WALL (       7 calls)
     v_of_rho     :      0.13s CPU      0.15s WALL (       7 calls)
     newd         :      0.10s CPU      0.11s WALL (       7 calls)
     mix_rho      :      0.02s CPU      0.02s WALL (       7 calls)

     Called by c_bands:
     init_us_2    :      0.72s CPU      0.76s WALL (     459 calls)
     cegterg      :     13.88s CPU     14.05s WALL (     189 calls)

     Called by *egterg:
     cdiaghg      :      0.41s CPU      0.41s WALL (     787 calls)
     h_psi        :     12.15s CPU     12.35s WALL (     841 calls)
     s_psi        :      0.90s CPU      0.90s WALL (     841 calls)
     g_psi        :      0.04s CPU      0.04s WALL (     625 calls)

     Called by h_psi:
     h_psi:calbec :      1.95s CPU      1.97s WALL (     841 calls)
     vloc_psi     :      9.16s CPU      9.32s WALL (     841 calls)
     add_vuspsi   :      0.96s CPU      0.96s WALL (     841 calls)

     General routines
     calbec       :      2.63s CPU      2.65s WALL (    1165 calls)
     fft          :      0.45s CPU      0.47s WALL (     103 calls)
     ffts         :      0.01s CPU      0.01s WALL (       7 calls)
     fftw         :      9.20s CPU      9.35s WALL (   25614 calls)

     Parallel routines

     PWSCF        :     24.92s CPU     27.05s WALL


   This run was terminated on:  14:52: 0  15Feb2026            

=------------------------------------------------------------------------------=
   JOB DONE.
=------------------------------------------------------------------------------=
