
     Program PWSCF v.7.3.1 starts on 15Feb2026 at 15:11:43 

     This program is part of the open-source Quantum ESPRESSO suite
     for quantum simulation of materials; please cite
         "P. Giannozzi et al., J. Phys.:Condens. Matter 21 395502 (2009);
         "P. Giannozzi et al., J. Phys.:Condens. Matter 29 465901 (2017);
         "P. Giannozzi et al., J. Chem. Phys. 152 154105 (2020);
          URL http://www.quantum-espresso.org", 
     in publications or presentations arising from this work. More details at
     http://www.quantum-espresso.org/quote

     Parallel version (MPI), running on   128 processors

     MPI processes distributed on     1 nodes
     240758 MiB available memory on the printing compute node when the environment starts

     Waiting for input...
     Reading input from standard input
     Message from routine read_cards :
     DEPRECATED: no units specified in ATOMIC_POSITIONS card
     Message from routine read_cards :
     ATOMIC_POSITIONS: units set to alat

     Current dimensions of program PWSCF are:
     Max number of different atomic species (ntypx) = 10
     Max number of k-points (npk) =  40000
     Max angular momentum in pseudopotentials (lmaxx) =  4
     Found identity + ( -0.5000 -0.5000  0.0000) symmetry
     This is a supercell, fractional translations are disabled

     K-points division:     npool     =       4
     R & G space division:  proc/nbgrp/npool/nimage =      32
     Subspace diagonalization in iterative solution of the eigenvalue problem:
     a serial algorithm will be used


     Parallelization info
     --------------------
     sticks:   dense  smooth     PW     G-vecs:    dense   smooth      PW
     Min         169     169     46                 9399     9399    1328
     Max         170     170     47                 9404     9404    1331
     Sum        5433    5433   1481               300835   300835   42539

     Using Slab Decomposition



     bravais-lattice index     =            6
     lattice parameter (alat)  =      10.3351  a.u.
     unit-cell volume          =    1100.3907 (a.u.)^3
     number of atoms/cell      =            8
     number of atomic types    =            1
     number of electrons       =        32.00
     number of Kohn-Sham states=           16
     kinetic-energy cutoff     =     160.0000  Ry
     charge density cutoff     =     640.0000  Ry
     scf convergence threshold =      1.0E-07
     mixing beta               =       0.7000
     number of iterations used =            8  plain     mixing
     Exchange-correlation=  SLA  PW   PBE  PBE
                           (   1   4   3   4   0   0   0)

     celldm(1)=  10.335059  celldm(2)=   0.000000  celldm(3)=   0.996800
     celldm(4)=   0.000000  celldm(5)=   0.000000  celldm(6)=   0.000000

     crystal axes: (cart. coord. in units of alat)
               a(1) = (   1.000000   0.000000   0.000000 )  
               a(2) = (   0.000000   1.000000   0.000000 )  
               a(3) = (   0.000000   0.000000   0.996800 )  

     reciprocal axes: (cart. coord. in units 2 pi/alat)
               b(1) = (  1.000000  0.000000  0.000000 )  
               b(2) = (  0.000000  1.000000  0.000000 )  
               b(3) = (  0.000000  0.000000  1.003210 )  


     PseudoPot. # 1 for Si read from file:
     ./Si.pbe-n-van.UPF
     MD5 check sum: 8a97496598b7338af554a5de8957bfee
     Pseudo is Ultrasoft + core correction, Zval =  4.0
     Generated by new atomic code, or converted to UPF format
     Using radial grid of  899 points,  6 beta functions with: 
                l(1) =   0
                l(2) =   0
                l(3) =   1
                l(4) =   1
                l(5) =   2
                l(6) =   2
     Q(r) pseudized with  8 coefficients,  rinner =    0.900   0.900   0.900
                                                       0.900   0.900

     atomic species   valence    mass     pseudopotential
     Si                4.00    28.08600     Si( 1.00)

      4 Sym. Ops. (no inversion) found



   Cartesian axes

     site n.     atom                  positions (alat units)
         1        Si     tau(   1) = (   0.0000000   0.0000000   0.0000000  )
         2        Si     tau(   2) = (   0.2500000   0.2500000   0.2500000  )
         3        Si     tau(   3) = (   0.7500000   0.2500000   0.7500000  )
         4        Si     tau(   4) = (   0.7500000   0.7500000   0.2500000  )
         5        Si     tau(   5) = (   0.2500000   0.7500000   0.7500000  )
         6        Si     tau(   6) = (   0.5000000   0.5000000   0.0000000  )
         7        Si     tau(   7) = (   0.5000000   0.0000000   0.5000000  )
         8        Si     tau(   8) = (   0.0000000   0.5000000   0.5000000  )

     number of k points=   105

     Number of k-points >= 100: set verbosity='high' to print them.

     Dense  grid:   300835 G-vectors     FFT dimensions: (  90,  90,  90)

     Estimated max dynamical RAM per process >      25.78 MB

     Estimated total dynamical RAM >       3.01 GB

     Initial potential from superposition of free atoms

     starting charge      31.9946, renormalised to      32.0000
     Starting wfcs are   32 randomized atomic wfcs

     total cpu time spent up to now is        2.1 secs

     per-process dynamical memory:    26.3 Mb

     Self-consistent Calculation

     iteration #  1     ecut=   160.00 Ry     beta= 0.70
     Davidson diagonalization with overlap
     ethr =  1.00E-02,  avg # of iterations =  2.0

     Threshold (ethr) on eigenvalues was too large:
     Diagonalizing with lowered threshold

     Davidson diagonalization with overlap
     ethr =  6.25E-04,  avg # of iterations =  1.0

     total cpu time spent up to now is        6.0 secs

     total energy              =     -76.76382018 Ry
     estimated scf accuracy    <       0.21478239 Ry

     iteration #  2     ecut=   160.00 Ry     beta= 0.70
     Davidson diagonalization with overlap
     ethr =  6.71E-04,  avg # of iterations =  1.0

     total cpu time spent up to now is        7.7 secs

     total energy              =     -76.77161426 Ry
     estimated scf accuracy    <       0.00989269 Ry

     iteration #  3     ecut=   160.00 Ry     beta= 0.70
     Davidson diagonalization with overlap
     ethr =  3.09E-05,  avg # of iterations =  2.0

     total cpu time spent up to now is        9.7 secs

     total energy              =     -76.77308417 Ry
     estimated scf accuracy    <       0.00016834 Ry

     iteration #  4     ecut=   160.00 Ry     beta= 0.70
     Davidson diagonalization with overlap
     ethr =  5.26E-07,  avg # of iterations =  6.3

     total cpu time spent up to now is       13.6 secs

     total energy              =     -76.77338541 Ry
     estimated scf accuracy    <       0.00000055 Ry

     iteration #  5     ecut=   160.00 Ry     beta= 0.70
     Davidson diagonalization with overlap
     ethr =  1.73E-09,  avg # of iterations =  8.8

     total cpu time spent up to now is       19.2 secs

     total energy              =     -76.77339225 Ry
     estimated scf accuracy    <       0.00000024 Ry

     iteration #  6     ecut=   160.00 Ry     beta= 0.70
     Davidson diagonalization with overlap
     ethr =  7.60E-10,  avg # of iterations =  2.1

     total cpu time spent up to now is       21.4 secs

     End of self-consistent calculation

     Number of k-points >= 100: set verbosity='high' to print the bands.

     highest occupied level (ev):     6.0217

!    total energy              =     -76.77339230 Ry
     estimated scf accuracy    <       0.00000003 Ry

     The total energy is the sum of the following terms:
     one-electron contribution =      19.89423056 Ry
     hartree contribution      =       4.52897534 Ry
     xc contribution           =     -34.40999646 Ry
     ewald contribution        =     -66.78660174 Ry

     convergence has been achieved in   6 iterations

     Forces acting on atoms (cartesian axes, Ry/au):

     atom    1 type  1   force =     0.00000000    0.00000000    0.00507801
     atom    2 type  1   force =     0.00000192    0.00000192    0.00059439
     atom    3 type  1   force =    -0.00000169    0.00000169   -0.00508168
     atom    4 type  1   force =    -0.00000192   -0.00000192    0.00059439
     atom    5 type  1   force =     0.00000169   -0.00000169   -0.00508168
     atom    6 type  1   force =     0.00000000    0.00000000    0.00507860
     atom    7 type  1   force =     0.00000000    0.00000000   -0.00059101
     atom    8 type  1   force =     0.00000000    0.00000000   -0.00059101

     Total force =     0.010229     Total SCF correction =     0.000010


     Computing stress (Cartesian axis) and pressure

          total   stress  (Ry/bohr**3)                   (kbar)     P=        2.66
   0.00001125  -0.00001094   0.00000000            1.65       -1.61        0.00
  -0.00001094   0.00001125   0.00000000           -1.61        1.65        0.00
   0.00000000   0.00000000   0.00003182            0.00        0.00        4.68


     Writing all to output data dir ./si-scf-van/silicon.save/ :
     XML data file, charge density, pseudopotentials, collected wavefunctions

     init_run     :      1.70s CPU      1.82s WALL (       1 calls)
     electrons    :     18.95s CPU     19.36s WALL (       1 calls)
     forces       :      0.58s CPU      0.59s WALL (       1 calls)
     stress       :      3.40s CPU      3.43s WALL (       1 calls)

     Called by init_run:
     wfcinit      :      1.09s CPU      1.14s WALL (       1 calls)
     potinit      :      0.02s CPU      0.05s WALL (       1 calls)
     hinit0       :      0.40s CPU      0.42s WALL (       1 calls)

     Called by electrons:
     c_bands      :     16.54s CPU     16.82s WALL (       7 calls)
     sum_band     :      2.15s CPU      2.17s WALL (       7 calls)
     v_of_rho     :      0.12s CPU      0.15s WALL (       7 calls)
     newd         :      0.10s CPU      0.12s WALL (       7 calls)
     mix_rho      :      0.02s CPU      0.02s WALL (       7 calls)

     Called by c_bands:
     init_us_2    :      0.76s CPU      0.79s WALL (     459 calls)
     cegterg      :     14.11s CPU     14.26s WALL (     189 calls)

     Called by *egterg:
     cdiaghg      :      0.42s CPU      0.42s WALL (     800 calls)
     h_psi        :     12.32s CPU     12.50s WALL (     854 calls)
     s_psi        :      0.92s CPU      0.92s WALL (     854 calls)
     g_psi        :      0.04s CPU      0.04s WALL (     638 calls)

     Called by h_psi:
     h_psi:calbec :      1.99s CPU      2.02s WALL (     854 calls)
     vloc_psi     :      9.26s CPU      9.41s WALL (     854 calls)
     add_vuspsi   :      0.97s CPU      0.98s WALL (     854 calls)

     General routines
     calbec       :      2.75s CPU      2.78s WALL (    1178 calls)
     fft          :      0.45s CPU      0.46s WALL (     103 calls)
     ffts         :      0.01s CPU      0.01s WALL (       7 calls)
     fftw         :      9.27s CPU      9.40s WALL (   25830 calls)

     Parallel routines

     PWSCF        :     25.46s CPU     27.68s WALL


   This run was terminated on:  15:12:11  15Feb2026            

=------------------------------------------------------------------------------=
   JOB DONE.
=------------------------------------------------------------------------------=
