
     Program PWSCF v.7.3.1 starts on 18Mar2026 at 21:38:35 

     This program is part of the open-source Quantum ESPRESSO suite
     for quantum simulation of materials; please cite
         "P. Giannozzi et al., J. Phys.:Condens. Matter 21 395502 (2009);
         "P. Giannozzi et al., J. Phys.:Condens. Matter 29 465901 (2017);
         "P. Giannozzi et al., J. Chem. Phys. 152 154105 (2020);
          URL http://www.quantum-espresso.org", 
     in publications or presentations arising from this work. More details at
     http://www.quantum-espresso.org/quote

     Parallel version (MPI), running on   128 processors

     MPI processes distributed on     1 nodes
     243141 MiB available memory on the printing compute node when the environment starts

     Waiting for input...
     Reading input from standard input

     Current dimensions of program PWSCF are:
     Max number of different atomic species (ntypx) = 10
     Max number of k-points (npk) =  40000
     Max angular momentum in pseudopotentials (lmaxx) =  4

     K-points division:     npool     =       4
     R & G space division:  proc/nbgrp/npool/nimage =      32
     Subspace diagonalization in iterative solution of the eigenvalue problem:
     a serial algorithm will be used


     Parallelization info
     --------------------
     sticks:   dense  smooth     PW     G-vecs:    dense   smooth      PW
     Min         126     126     38                 4437     4437     739
     Max         127     127     39                 4440     4440     742
     Sum        4059    4059   1225               142053   142053   23687

     Using Slab Decomposition



     bravais-lattice index     =            5
     lattice parameter (alat)  =      14.7021  a.u.
     unit-cell volume          =    2053.1832 (a.u.)^3
     number of atoms/cell      =           36
     number of atomic types    =            2
     number of electrons       =        96.00
     number of Kohn-Sham states=           48
     kinetic-energy cutoff     =      64.0000  Ry
     charge density cutoff     =     256.0000  Ry
     scf convergence threshold =      1.0E-07
     mixing beta               =       0.7000
     number of iterations used =            8  plain     mixing
     Exchange-correlation=  SLA  PW   PBE  PBE
                           (   1   4   3   4   0   0   0)

     celldm(1)=  14.702068  celldm(2)=   0.000000  celldm(3)=   0.000000
     celldm(4)=  -0.392337  celldm(5)=   0.000000  celldm(6)=   0.000000

     crystal axes: (cart. coord. in units of alat)
               a(1) = (   0.834367  -0.481722   0.267909 )  
               a(2) = (   0.000000   0.963444   0.267909 )  
               a(3) = (  -0.834367  -0.481722   0.267909 )  

     reciprocal axes: (cart. coord. in units 2 pi/alat)
               b(1) = (  0.599257 -0.345981  1.244203 )  
               b(2) = ( -0.000000  0.691962  1.244203 )  
               b(3) = ( -0.599257 -0.345981  1.244203 )  


     PseudoPot. # 1 for H  read from file:
     ./H.pbe-van_ak.UPF
     MD5 check sum: 077eb6d537518a38cb46c6de387227b7
     Pseudo is Ultrasoft, Zval =  1.0
     Generated by new atomic code, or converted to UPF format
     Using radial grid of  615 points,  1 beta functions with: 
                l(1) =   0
     Q(r) pseudized with  8 coefficients,  rinner =    0.800

     PseudoPot. # 2 for O  read from file:
     ./O.pbe-van_ak.UPF
     MD5 check sum: 78c19812648e8988a0fe644b0f25305e
     Pseudo is Ultrasoft, Zval =  6.0
     Generated by new atomic code, or converted to UPF format
     Using radial grid of  737 points,  4 beta functions with: 
                l(1) =   0
                l(2) =   0
                l(3) =   1
                l(4) =   1
     Q(r) pseudized with  8 coefficients,  rinner =    0.800   0.800   0.800


     atomic species   valence    mass     pseudopotential
     H                 1.00     1.00800     H ( 1.00)
     O                 6.00    16.00000     O ( 1.00)

      6 Sym. Ops., with inversion, found



   Cartesian axes

     site n.     atom                  positions (alat units)
         1        O      tau(   1) = (  -0.4847673  -0.5197781   0.3083633  )
         2        O      tau(   2) = (   0.4847673   0.5197782   0.4953638  )
         3        O      tau(   3) = (   0.6925247  -0.1599317   0.3083633  )
         4        O      tau(   4) = (  -0.6925248   0.1599317   0.4953638  )
         5        O      tau(   5) = (  -0.2077574   0.6797099   0.3083633  )
         6        O      tau(   6) = (   0.2077574  -0.6797099   0.4953638  )
         7        O      tau(   7) = (   0.1218176   0.3323883   0.4179381  )
         8        O      tau(   8) = (  -0.1218176  -0.3323883   0.3857890  )
         9        O      tau(   9) = (  -0.3487655  -0.0606970   0.4179381  )
        10        O      tau(  10) = (   0.3487655   0.0606970   0.3857890  )
        11        O      tau(  11) = (   0.2269479  -0.2716913   0.4179381  )
        12        O      tau(  12) = (  -0.2269479   0.2716912   0.3857890  )
        13        H      tau(  13) = (  -0.5381668  -0.4032014   0.2796970  )
        14        H      tau(  14) = (   0.5381668   0.4032014   0.5240301  )
        15        H      tau(  15) = (   0.6182661  -0.2644654   0.2796970  )
        16        H      tau(  16) = (  -0.6182661   0.2644654   0.5240301  )
        17        H      tau(  17) = (  -0.0800993   0.6676668   0.2796970  )
        18        H      tau(  18) = (   0.0800993  -0.6676668   0.5240301  )
        19        H      tau(  19) = (  -0.4872704  -0.4817221   0.4326731  )
        20        H      tau(  20) = (   0.4872704   0.4817221   0.3710540  )
        21        H      tau(  21) = (   0.6608188  -0.1811275   0.4326731  )
        22        H      tau(  22) = (  -0.6608188   0.1811275   0.3710540  )
        23        H      tau(  23) = (  -0.1735484   0.6628496   0.4326731  )
        24        H      tau(  24) = (   0.1735484  -0.6628496   0.3710540  )
        25        H      tau(  25) = (   0.2703349  -0.1502973   0.4058822  )
        26        H      tau(  26) = (  -0.2703350   0.1502973   0.3978449  )
        27        H      tau(  27) = (  -0.0050062   0.3092656   0.4058822  )
        28        H      tau(  28) = (   0.0050062  -0.3092656   0.3978449  )
        29        H      tau(  29) = (  -0.2653287  -0.1589683   0.4058822  )
        30        H      tau(  30) = (   0.2653287   0.1589683   0.3978449  )
        31        H      tau(  31) = (   0.3178939  -0.3347969   0.3493534  )
        32        H      tau(  32) = (  -0.3178939   0.3347969   0.4543737  )
        33        H      tau(  33) = (   0.1309957   0.4427026   0.3493534  )
        34        H      tau(  34) = (  -0.1309956  -0.4427026   0.4543737  )
        35        H      tau(  35) = (  -0.4488895  -0.1079057   0.3493534  )
        36        H      tau(  36) = (   0.4488895   0.1079057   0.4543737  )

     number of k points=    14
                       cart. coord. in units 2pi/alat
        k(    1) = (   0.0000000   0.0000000   0.0000000), wk =   0.0312500
        k(    2) = (  -0.1498141  -0.0864952   0.3110508), wk =   0.1875000
        k(    3) = (   0.2996283   0.1729905  -0.6221017), wk =   0.0937500
        k(    4) = (  -0.1498141   0.0864952   0.6221017), wk =   0.1875000
        k(    5) = (   0.2996283   0.3459809  -0.3110508), wk =   0.1875000
        k(    6) = (   0.1498141   0.2594857   0.0000000), wk =   0.1875000
        k(    7) = (   0.2996283  -0.1729905  -1.2442034), wk =   0.0937500
        k(    8) = (   0.0000000   0.0000000   0.9331525), wk =   0.0625000
        k(    9) = (   0.4494424   0.2594857   0.0000000), wk =   0.1875000
        k(   10) = (   0.2996283   0.1729905   0.3110508), wk =   0.1875000
        k(   11) = (   0.4494424  -0.2594857  -0.9331525), wk =   0.1875000
        k(   12) = (   0.2996283  -0.3459809  -0.6221017), wk =   0.1875000
        k(   13) = (   0.0000000   0.0000000  -1.8663050), wk =   0.0312500
        k(   14) = (   0.2996283  -0.3459809   0.3110508), wk =   0.1875000

     Dense  grid:   142053 G-vectors     FFT dimensions: (  75,  75,  75)

     Estimated max dynamical RAM per process >       9.86 MB

     Estimated total dynamical RAM >       1.13 GB

     Initial potential from superposition of free atoms

     starting charge      95.9998, renormalised to      96.0000
     Starting wfcs are   72 randomized atomic wfcs

     total cpu time spent up to now is        0.8 secs

     per-process dynamical memory:    15.0 Mb

     Self-consistent Calculation

     iteration #  1     ecut=    64.00 Ry     beta= 0.70
     Davidson diagonalization with overlap
     ethr =  1.00E-02,  avg # of iterations =  2.0

     total cpu time spent up to now is        1.5 secs

     total energy              =    -412.26210452 Ry
     estimated scf accuracy    <       3.72063876 Ry

     iteration #  2     ecut=    64.00 Ry     beta= 0.70
     Davidson diagonalization with overlap
     ethr =  3.88E-03,  avg # of iterations =  3.0

     total cpu time spent up to now is        2.3 secs

     total energy              =    -413.43932670 Ry
     estimated scf accuracy    <       2.33150478 Ry

     iteration #  3     ecut=    64.00 Ry     beta= 0.70
     Davidson diagonalization with overlap
     ethr =  2.43E-03,  avg # of iterations =  2.0

     negative rho (up, down):  3.461E-07 0.000E+00

     total cpu time spent up to now is        2.9 secs

     total energy              =    -413.73509978 Ry
     estimated scf accuracy    <       0.09880649 Ry

     iteration #  4     ecut=    64.00 Ry     beta= 0.70
     Davidson diagonalization with overlap
     ethr =  1.03E-04,  avg # of iterations =  4.0

     negative rho (up, down):  9.047E-07 0.000E+00

     total cpu time spent up to now is        3.8 secs

     total energy              =    -413.81256143 Ry
     estimated scf accuracy    <       0.11706164 Ry

     iteration #  5     ecut=    64.00 Ry     beta= 0.70
     Davidson diagonalization with overlap
     ethr =  1.03E-04,  avg # of iterations =  2.0

     negative rho (up, down):  1.083E-06 0.000E+00

     total cpu time spent up to now is        4.3 secs

     total energy              =    -413.81617674 Ry
     estimated scf accuracy    <       0.01971014 Ry

     iteration #  6     ecut=    64.00 Ry     beta= 0.70
     Davidson diagonalization with overlap
     ethr =  2.05E-05,  avg # of iterations =  2.0

     negative rho (up, down):  1.242E-06 0.000E+00

     total cpu time spent up to now is        4.9 secs

     total energy              =    -413.81551829 Ry
     estimated scf accuracy    <       0.00674314 Ry

     iteration #  7     ecut=    64.00 Ry     beta= 0.70
     Davidson diagonalization with overlap
     ethr =  7.02E-06,  avg # of iterations =  3.0

     negative rho (up, down):  1.296E-06 0.000E+00

     total cpu time spent up to now is        5.6 secs

     total energy              =    -413.81709597 Ry
     estimated scf accuracy    <       0.00013229 Ry

     iteration #  8     ecut=    64.00 Ry     beta= 0.70
     Davidson diagonalization with overlap
     ethr =  1.38E-07,  avg # of iterations =  6.0

     negative rho (up, down):  1.264E-06 0.000E+00

     total cpu time spent up to now is        6.8 secs

     total energy              =    -413.81713669 Ry
     estimated scf accuracy    <       0.00094608 Ry

     iteration #  9     ecut=    64.00 Ry     beta= 0.70
     Davidson diagonalization with overlap
     ethr =  1.38E-07,  avg # of iterations =  4.0

     negative rho (up, down):  1.220E-06 0.000E+00

     total cpu time spent up to now is        7.7 secs

     total energy              =    -413.81718250 Ry
     estimated scf accuracy    <       0.00009185 Ry

     iteration # 10     ecut=    64.00 Ry     beta= 0.70
     Davidson diagonalization with overlap
     ethr =  9.57E-08,  avg # of iterations =  2.0

     negative rho (up, down):  1.219E-06 0.000E+00

     total cpu time spent up to now is        8.3 secs

     total energy              =    -413.81720401 Ry
     estimated scf accuracy    <       0.00000048 Ry

     iteration # 11     ecut=    64.00 Ry     beta= 0.70
     Davidson diagonalization with overlap
     ethr =  4.95E-10,  avg # of iterations =  5.0

     negative rho (up, down):  1.219E-06 0.000E+00

     total cpu time spent up to now is        9.3 secs

     End of self-consistent calculation

          k = 0.0000 0.0000 0.0000 ( 17729 PWs)   bands (ev):

   -20.8711 -20.4091 -20.4091 -20.1845 -20.1845 -20.1573 -20.1573 -20.1410
   -20.1386 -19.8343 -19.8343 -19.5190  -8.2117  -8.0112  -7.9531  -7.9531
    -7.8684  -7.8684  -7.4482  -7.2946  -7.2946  -7.0772  -7.0772  -6.9434
    -6.8789  -5.9791  -5.9791  -5.3888  -5.3888  -5.3109  -5.3109  -5.0112
    -4.8232  -4.1784  -4.1784  -3.5144  -2.8102  -2.8102  -2.7092  -2.6302
    -2.5815  -2.5815  -2.4406  -2.4406  -2.4199  -2.4003  -2.3517  -2.3517

          k =-0.1498-0.0865 0.3111 ( 17759 PWs)   bands (ev):

   -20.7966 -20.4502 -20.3969 -20.3299 -20.3060 -20.2313 -20.0863 -20.0431
   -19.9880 -19.8410 -19.7988 -19.5795  -8.1563  -8.0769  -7.9991  -7.9515
    -7.8507  -7.7884  -7.4460  -7.2646  -7.2499  -7.1123  -6.9835  -6.9473
    -6.7425  -6.1263  -5.9951  -5.7246  -5.4018  -5.2636  -5.1234  -4.8981
    -4.8422  -4.1688  -4.1075  -3.6472  -2.9284  -2.8549  -2.7344  -2.6757
    -2.6189  -2.5829  -2.5406  -2.4769  -2.4119  -2.3728  -2.3373  -2.2895

          k = 0.2996 0.1730-0.6221 ( 17758 PWs)   bands (ev):

   -20.6037 -20.6017 -20.4318 -20.4158 -20.3059 -20.3011 -20.0301 -20.0199
   -19.8483 -19.8447 -19.7359 -19.7159  -8.1317  -8.0736  -7.9887  -7.9670
    -7.8552  -7.7931  -7.3921  -7.2673  -7.2256  -7.1224  -6.8995  -6.8988
    -6.4974  -6.3566  -6.0490  -5.8897  -5.4017  -5.3194  -5.1188  -4.9609
    -4.4265  -4.3056  -4.0457  -3.8168  -3.0352  -2.8758  -2.7602  -2.7313
    -2.6581  -2.6368  -2.5463  -2.4861  -2.4673  -2.3345  -2.3231  -2.2434

          k =-0.1498 0.0865 0.6221 ( 17768 PWs)   bands (ev):

   -20.6454 -20.5079 -20.4979 -20.3779 -20.3557 -20.2896 -20.0358 -19.9538
   -19.9186 -19.8004 -19.7819 -19.6900  -8.1397  -8.0508  -8.0321  -7.9244
    -7.8729  -7.7789  -7.3969  -7.3052  -7.2524  -7.0174  -6.9493  -6.8946
    -6.5028  -6.2889  -6.1906  -5.7197  -5.5457  -5.3620  -5.0425  -4.8358
    -4.6317  -4.1343  -4.1094  -3.8311  -3.0120  -2.9196  -2.7486  -2.7014
    -2.6673  -2.6173  -2.5732  -2.4878  -2.4563  -2.3441  -2.3270  -2.2373

          k = 0.2996 0.3460-0.3111 ( 17743 PWs)   bands (ev):

   -20.6989 -20.5414 -20.4325 -20.4094 -20.3255 -20.2563 -20.0394 -19.9373
   -19.9273 -19.8381 -19.7764 -19.6645  -8.1471  -8.1214  -7.9681  -7.9452
    -7.8847  -7.7883  -7.4300  -7.3679  -7.2410  -6.9849  -6.9535  -6.8824
    -6.6301  -6.3245  -6.0843  -5.7415  -5.7004  -5.1950  -5.0098  -4.7472
    -4.5193  -4.2913  -4.0899  -3.8045  -2.9218  -2.8514  -2.7651  -2.6934
    -2.6394  -2.5868  -2.5256  -2.5162  -2.4309  -2.3902  -2.3295  -2.2246

          k = 0.1498 0.2595 0.0000 ( 17719 PWs)   bands (ev):

   -20.8173 -20.4847 -20.4285 -20.2964 -20.2683 -20.1862 -20.1074 -20.0345
   -19.9942 -19.8457 -19.8096 -19.5671  -8.1955  -8.0898  -7.9903  -7.9447
    -7.8255  -7.8193  -7.5026  -7.3600  -7.1713  -7.0807  -7.0127  -6.8999
    -6.8762  -6.1093  -5.9763  -5.7169  -5.6043  -5.1402  -5.0063  -4.8810
    -4.6964  -4.2480  -4.1562  -3.6059  -2.8117  -2.7912  -2.7469  -2.6594
    -2.6197  -2.5927  -2.4750  -2.4594  -2.4248  -2.4159  -2.3110  -2.2964

          k = 0.2996-0.1730-1.2442 ( 17750 PWs)   bands (ev):

   -20.6879 -20.6500 -20.4436 -20.3465 -20.2681 -20.2096 -20.0518 -20.0161
   -19.9020 -19.8805 -19.6997 -19.6833  -8.1748  -8.1359  -8.0010  -7.9653
    -7.7997  -7.7945  -7.5002  -7.4292  -7.1546  -7.1053  -6.9232  -6.8776
    -6.5613  -6.5187  -6.0482  -5.8273  -5.5117  -5.2614  -4.8810  -4.6266
    -4.5174  -4.4522  -4.0058  -3.8177  -2.8282  -2.7776  -2.7601  -2.6938
    -2.6221  -2.5624  -2.5425  -2.4681  -2.4583  -2.4115  -2.2756  -2.2615

          k = 0.0000 0.0000 0.9332 ( 17704 PWs)   bands (ev):

   -20.5906 -20.5906 -20.5104 -20.4651 -20.2855 -20.2855 -19.9636 -19.9636
   -19.8412 -19.8017 -19.7746 -19.7746  -8.1228  -8.1228  -7.9843  -7.8833
    -7.8833  -7.8739  -7.4388  -7.3357  -7.3357  -6.8913  -6.8913  -6.8529
    -6.4255  -6.4247  -6.4247  -5.7664  -5.4563  -5.4563  -4.7961  -4.6115
    -4.6115  -4.1554  -4.1554  -3.9868  -2.8640  -2.8640  -2.7405  -2.6787
    -2.6110  -2.6110  -2.5536  -2.4896  -2.4896  -2.3757  -2.3757  -2.2004

          k = 0.4494 0.2595 0.0000 ( 17737 PWs)   bands (ev):

   -20.7176 -20.5501 -20.5438 -20.3481 -20.2128 -20.2019 -20.0667 -20.0596
   -19.9027 -19.8083 -19.7740 -19.6537  -8.1688  -8.1253  -8.0568  -7.9015
    -7.8417  -7.7774  -7.5173  -7.3788  -7.2487  -7.0002  -6.9474  -6.8998
    -6.6669  -6.2879  -6.2102  -5.7797  -5.5249  -5.2564  -4.8059  -4.7665
    -4.5610  -4.2587  -4.1188  -3.7908  -2.8099  -2.8023  -2.7481  -2.6985
    -2.6375  -2.5780  -2.5085  -2.4854  -2.4331  -2.3883  -2.3280  -2.2427

          k = 0.2996 0.1730 0.3111 ( 17772 PWs)   bands (ev):

   -20.7463 -20.4960 -20.4062 -20.3937 -20.3051 -20.2469 -20.0538 -20.0244
   -19.9523 -19.8295 -19.7752 -19.6177  -8.1671  -8.1085  -8.0244  -7.8951
    -7.8896  -7.7375  -7.4659  -7.3353  -7.1540  -7.0798  -7.0328  -6.9334
    -6.6574  -6.1307  -5.9564  -5.8716  -5.6425  -5.2906  -4.9945  -4.7937
    -4.6366  -4.2349  -4.0988  -3.6899  -2.9404  -2.8641  -2.7874  -2.7331
    -2.6346  -2.5933  -2.5167  -2.4836  -2.3992  -2.3583  -2.2990  -2.2822

          k = 0.4494-0.2595-0.9332 ( 17757 PWs)   bands (ev):

   -20.6156 -20.6131 -20.4749 -20.4193 -20.2928 -20.2166 -20.0931 -20.0090
   -19.8651 -19.8109 -19.7596 -19.6762  -8.1959  -8.0958  -8.0549  -7.9020
    -7.8549  -7.7180  -7.5118  -7.2939  -7.1728  -7.1165  -6.9693  -6.9391
    -6.3941  -6.3556  -6.0324  -5.8837  -5.6955  -5.3795  -4.9519  -4.6705
    -4.3661  -4.3275  -4.1410  -3.7598  -2.9394  -2.8840  -2.8463  -2.7334
    -2.6978  -2.6093  -2.4658  -2.4437  -2.4120  -2.3715  -2.3011  -2.2463

          k = 0.2996-0.3460-0.6221 ( 17756 PWs)   bands (ev):

   -20.5704 -20.5643 -20.4632 -20.4524 -20.3248 -20.3229 -20.0129 -20.0054
   -19.8531 -19.8452 -19.7301 -19.7093  -8.2096  -8.0093  -7.9789  -7.9598
    -7.9238  -7.7217  -7.4242  -7.3037  -7.1502  -7.1039  -6.9477  -6.9424
    -6.3584  -6.2306  -6.0677  -5.9409  -5.6174  -5.5815  -4.8699  -4.7976
    -4.3733  -4.3304  -4.1492  -3.7435  -3.0659  -2.8987  -2.8439  -2.7731
    -2.7177  -2.5792  -2.5111  -2.4713  -2.4484  -2.3250  -2.3076  -2.2278

          k = 0.0000 0.0000-1.8663 ( 17800 PWs)   bands (ev):

   -20.5384 -20.5197 -20.4262 -20.4262 -20.4243 -20.4243 -19.9378 -19.9378
   -19.9034 -19.9034 -19.7146 -19.6972  -8.2577  -7.9720  -7.9720  -7.9510
    -7.9510  -7.6906  -7.4744  -7.3013  -7.0541  -7.0541  -7.0229  -7.0229
    -6.1823  -6.0031  -5.9453  -5.9453  -5.9399  -5.9399  -4.6495  -4.6495
    -4.4119  -4.4119  -4.1669  -3.6933  -3.0975  -2.9015  -2.9015  -2.8110
    -2.8110  -2.5239  -2.5064  -2.4072  -2.4072  -2.3383  -2.3383  -2.2024

          k = 0.2996-0.3460 0.3111 ( 17743 PWs)   bands (ev):

   -20.6988 -20.5403 -20.4397 -20.4046 -20.3225 -20.2571 -20.0407 -19.9516
   -19.9067 -19.8495 -19.7692 -19.6663  -8.1626  -8.0881  -8.0050  -7.9401
    -7.8573  -7.7953  -7.4777  -7.3363  -7.2165  -7.0234  -6.9172  -6.9033
    -6.6224  -6.2568  -6.1792  -5.7919  -5.5549  -5.2579  -5.0906  -4.6568
    -4.4971  -4.2791  -4.1603  -3.7825  -2.9298  -2.8225  -2.7814  -2.6903
    -2.6452  -2.5922  -2.5267  -2.5161  -2.4485  -2.3590  -2.3303  -2.2331

     highest occupied level (ev):    -2.2004

!    total energy              =    -413.81720473 Ry
     estimated scf accuracy    <       0.00000007 Ry

     The total energy is the sum of the following terms:
     one-electron contribution =    -290.93132537 Ry
     hartree contribution      =     179.92021053 Ry
     xc contribution           =    -101.26149773 Ry
     ewald contribution        =    -201.54459217 Ry

     convergence has been achieved in  11 iterations

     Forces acting on atoms (cartesian axes, Ry/au):

     atom    1 type  2   force =    -0.03452325    0.06368740    0.03050997
     atom    2 type  2   force =     0.03452325   -0.06368740   -0.03050997
     atom    3 type  2   force =    -0.03789328   -0.06174171    0.03050997
     atom    4 type  2   force =     0.03789328    0.06174171   -0.03050997
     atom    5 type  2   force =     0.07241653   -0.00194569    0.03050997
     atom    6 type  2   force =    -0.07241653    0.00194569   -0.03050997
     atom    7 type  2   force =    -0.03066610    0.02381124   -0.02141613
     atom    8 type  2   force =     0.03066610   -0.02381124    0.02141613
     atom    9 type  2   force =    -0.00528809   -0.03846324   -0.02141613
     atom   10 type  2   force =     0.00528809    0.03846324    0.02141613
     atom   11 type  2   force =     0.03595419    0.01465200   -0.02141613
     atom   12 type  2   force =    -0.03595419   -0.01465200    0.02141613
     atom   13 type  1   force =     0.00319087   -0.02593130   -0.05124945
     atom   14 type  1   force =    -0.00319087    0.02593130    0.05124945
     atom   15 type  1   force =     0.02086172    0.01572902   -0.05124945
     atom   16 type  1   force =    -0.02086172   -0.01572902    0.05124945
     atom   17 type  1   force =    -0.02405260    0.01020227   -0.05124945
     atom   18 type  1   force =     0.02405260   -0.01020227    0.05124945
     atom   19 type  1   force =     0.02973526   -0.04469676    0.01014693
     atom   20 type  1   force =    -0.02973526    0.04469676   -0.01014693
     atom   21 type  1   force =     0.02384090    0.04809987    0.01014693
     atom   22 type  1   force =    -0.02384090   -0.04809987   -0.01014693
     atom   23 type  1   force =    -0.05357615   -0.00340311    0.01014693
     atom   24 type  1   force =     0.05357615    0.00340311   -0.01014693
     atom   25 type  1   force =    -0.01367866   -0.00241835    0.01259467
     atom   26 type  1   force =     0.01367866    0.00241835   -0.01259467
     atom   27 type  1   force =     0.00893369   -0.01063689    0.01259467
     atom   28 type  1   force =    -0.00893369    0.01063689   -0.01259467
     atom   29 type  1   force =     0.00474497    0.01305524    0.01259467
     atom   30 type  1   force =    -0.00474497   -0.01305524   -0.01259467
     atom   31 type  1   force =    -0.02873269   -0.00930507    0.01625193
     atom   32 type  1   force =     0.02873269    0.00930507   -0.01625193
     atom   33 type  1   force =     0.02242478   -0.02023070    0.01625193
     atom   34 type  1   force =    -0.02242478    0.02023070   -0.01625193
     atom   35 type  1   force =     0.00630791    0.02953578    0.01625193
     atom   36 type  1   force =    -0.00630791   -0.02953578   -0.01625193

     Total force =     0.309517     Total SCF correction =     0.000430


     Computing stress (Cartesian axis) and pressure

          total   stress  (Ry/bohr**3)                   (kbar)     P=      -19.51
  -0.00020997  -0.00000000  -0.00000000          -30.89       -0.00       -0.00
   0.00000000  -0.00020997  -0.00000000            0.00      -30.89       -0.00
   0.00000000  -0.00000000   0.00002202            0.00       -0.00        3.24


     Writing all to output data dir ./iceII_2/iceII_2.save/ :
     XML data file, charge density, pseudopotentials, collected wavefunctions

     init_run     :      0.54s CPU      0.60s WALL (       1 calls)
     electrons    :      8.26s CPU      8.49s WALL (       1 calls)
     forces       :      0.07s CPU      0.08s WALL (       1 calls)
     stress       :      0.49s CPU      0.52s WALL (       1 calls)

     Called by init_run:
     wfcinit      :      0.27s CPU      0.29s WALL (       1 calls)
     potinit      :      0.01s CPU      0.03s WALL (       1 calls)
     hinit0       :      0.16s CPU      0.18s WALL (       1 calls)

     Called by electrons:
     c_bands      :      7.13s CPU      7.29s WALL (      11 calls)
     sum_band     :      0.90s CPU      0.91s WALL (      11 calls)
     v_of_rho     :      0.15s CPU      0.17s WALL (      12 calls)
     newd         :      0.04s CPU      0.04s WALL (      12 calls)
     mix_rho      :      0.02s CPU      0.02s WALL (      11 calls)

     Called by c_bands:
     init_us_2    :      0.06s CPU      0.07s WALL (     100 calls)
     cegterg      :      6.98s CPU      7.10s WALL (      44 calls)

     Called by *egterg:
     cdiaghg      :      0.72s CPU      0.72s WALL (     184 calls)
     h_psi        :      5.59s CPU      5.68s WALL (     188 calls)
     s_psi        :      0.16s CPU      0.17s WALL (     188 calls)
     g_psi        :      0.01s CPU      0.01s WALL (     140 calls)

     Called by h_psi:
     h_psi:calbec :      0.30s CPU      0.31s WALL (     188 calls)
     vloc_psi     :      5.08s CPU      5.15s WALL (     188 calls)
     add_vuspsi   :      0.19s CPU      0.19s WALL (     188 calls)

     General routines
     calbec       :      0.39s CPU      0.40s WALL (     252 calls)
     fft          :      0.24s CPU      0.25s WALL (     140 calls)
     ffts         :      0.01s CPU      0.01s WALL (      11 calls)
     fftw         :      5.37s CPU      5.44s WALL (   16616 calls)

     Parallel routines

     PWSCF        :      9.63s CPU     10.23s WALL


   This run was terminated on:  21:38:45  18Mar2026            

=------------------------------------------------------------------------------=
   JOB DONE.
=------------------------------------------------------------------------------=
