
     Program PWSCF v.7.3.1 starts on 18Mar2026 at 21:40:30 

     This program is part of the open-source Quantum ESPRESSO suite
     for quantum simulation of materials; please cite
         "P. Giannozzi et al., J. Phys.:Condens. Matter 21 395502 (2009);
         "P. Giannozzi et al., J. Phys.:Condens. Matter 29 465901 (2017);
         "P. Giannozzi et al., J. Chem. Phys. 152 154105 (2020);
          URL http://www.quantum-espresso.org", 
     in publications or presentations arising from this work. More details at
     http://www.quantum-espresso.org/quote

     Parallel version (MPI), running on   128 processors

     MPI processes distributed on     1 nodes
     243063 MiB available memory on the printing compute node when the environment starts

     Waiting for input...
     Reading input from standard input

     Current dimensions of program PWSCF are:
     Max number of different atomic species (ntypx) = 10
     Max number of k-points (npk) =  40000
     Max angular momentum in pseudopotentials (lmaxx) =  4

     K-points division:     npool     =       4
     R & G space division:  proc/nbgrp/npool/nimage =      32
     Subspace diagonalization in iterative solution of the eigenvalue problem:
     a serial algorithm will be used


     Parallelization info
     --------------------
     sticks:   dense  smooth     PW     G-vecs:    dense   smooth      PW
     Min         158     158     46                 6202     6202     999
     Max         159     159     47                 6204     6204    1002
     Sum        5059    5059   1499               198491   198491   32023

     Using Slab Decomposition



     bravais-lattice index     =            5
     lattice parameter (alat)  =      14.7021  a.u.
     unit-cell volume          =    2053.1832 (a.u.)^3
     number of atoms/cell      =           36
     number of atomic types    =            2
     number of electrons       =        96.00
     number of Kohn-Sham states=           48
     kinetic-energy cutoff     =      80.0000  Ry
     charge density cutoff     =     320.0000  Ry
     scf convergence threshold =      1.0E-07
     mixing beta               =       0.7000
     number of iterations used =            8  plain     mixing
     Exchange-correlation=  SLA  PW   PBE  PBE
                           (   1   4   3   4   0   0   0)

     celldm(1)=  14.702068  celldm(2)=   0.000000  celldm(3)=   0.000000
     celldm(4)=  -0.392337  celldm(5)=   0.000000  celldm(6)=   0.000000

     crystal axes: (cart. coord. in units of alat)
               a(1) = (   0.834367  -0.481722   0.267909 )  
               a(2) = (   0.000000   0.963444   0.267909 )  
               a(3) = (  -0.834367  -0.481722   0.267909 )  

     reciprocal axes: (cart. coord. in units 2 pi/alat)
               b(1) = (  0.599257 -0.345981  1.244203 )  
               b(2) = ( -0.000000  0.691962  1.244203 )  
               b(3) = ( -0.599257 -0.345981  1.244203 )  


     PseudoPot. # 1 for H  read from file:
     ./H.pbe-van_ak.UPF
     MD5 check sum: 077eb6d537518a38cb46c6de387227b7
     Pseudo is Ultrasoft, Zval =  1.0
     Generated by new atomic code, or converted to UPF format
     Using radial grid of  615 points,  1 beta functions with: 
                l(1) =   0
     Q(r) pseudized with  8 coefficients,  rinner =    0.800

     PseudoPot. # 2 for O  read from file:
     ./O.pbe-van_ak.UPF
     MD5 check sum: 78c19812648e8988a0fe644b0f25305e
     Pseudo is Ultrasoft, Zval =  6.0
     Generated by new atomic code, or converted to UPF format
     Using radial grid of  737 points,  4 beta functions with: 
                l(1) =   0
                l(2) =   0
                l(3) =   1
                l(4) =   1
     Q(r) pseudized with  8 coefficients,  rinner =    0.800   0.800   0.800


     atomic species   valence    mass     pseudopotential
     H                 1.00     1.00800     H ( 1.00)
     O                 6.00    16.00000     O ( 1.00)

      6 Sym. Ops., with inversion, found



   Cartesian axes

     site n.     atom                  positions (alat units)
         1        O      tau(   1) = (  -0.4847673  -0.5197781   0.3083633  )
         2        O      tau(   2) = (   0.4847673   0.5197782   0.4953638  )
         3        O      tau(   3) = (   0.6925247  -0.1599317   0.3083633  )
         4        O      tau(   4) = (  -0.6925248   0.1599317   0.4953638  )
         5        O      tau(   5) = (  -0.2077574   0.6797099   0.3083633  )
         6        O      tau(   6) = (   0.2077574  -0.6797099   0.4953638  )
         7        O      tau(   7) = (   0.1218176   0.3323883   0.4179381  )
         8        O      tau(   8) = (  -0.1218176  -0.3323883   0.3857890  )
         9        O      tau(   9) = (  -0.3487655  -0.0606970   0.4179381  )
        10        O      tau(  10) = (   0.3487655   0.0606970   0.3857890  )
        11        O      tau(  11) = (   0.2269479  -0.2716913   0.4179381  )
        12        O      tau(  12) = (  -0.2269479   0.2716912   0.3857890  )
        13        H      tau(  13) = (  -0.5381668  -0.4032014   0.2796970  )
        14        H      tau(  14) = (   0.5381668   0.4032014   0.5240301  )
        15        H      tau(  15) = (   0.6182661  -0.2644654   0.2796970  )
        16        H      tau(  16) = (  -0.6182661   0.2644654   0.5240301  )
        17        H      tau(  17) = (  -0.0800993   0.6676668   0.2796970  )
        18        H      tau(  18) = (   0.0800993  -0.6676668   0.5240301  )
        19        H      tau(  19) = (  -0.4872704  -0.4817221   0.4326731  )
        20        H      tau(  20) = (   0.4872704   0.4817221   0.3710540  )
        21        H      tau(  21) = (   0.6608188  -0.1811275   0.4326731  )
        22        H      tau(  22) = (  -0.6608188   0.1811275   0.3710540  )
        23        H      tau(  23) = (  -0.1735484   0.6628496   0.4326731  )
        24        H      tau(  24) = (   0.1735484  -0.6628496   0.3710540  )
        25        H      tau(  25) = (   0.2703349  -0.1502973   0.4058822  )
        26        H      tau(  26) = (  -0.2703350   0.1502973   0.3978449  )
        27        H      tau(  27) = (  -0.0050062   0.3092656   0.4058822  )
        28        H      tau(  28) = (   0.0050062  -0.3092656   0.3978449  )
        29        H      tau(  29) = (  -0.2653287  -0.1589683   0.4058822  )
        30        H      tau(  30) = (   0.2653287   0.1589683   0.3978449  )
        31        H      tau(  31) = (   0.3178939  -0.3347969   0.3493534  )
        32        H      tau(  32) = (  -0.3178939   0.3347969   0.4543737  )
        33        H      tau(  33) = (   0.1309957   0.4427026   0.3493534  )
        34        H      tau(  34) = (  -0.1309956  -0.4427026   0.4543737  )
        35        H      tau(  35) = (  -0.4488895  -0.1079057   0.3493534  )
        36        H      tau(  36) = (   0.4488895   0.1079057   0.4543737  )

     number of k points=    14
                       cart. coord. in units 2pi/alat
        k(    1) = (   0.0000000   0.0000000   0.0000000), wk =   0.0312500
        k(    2) = (  -0.1498141  -0.0864952   0.3110508), wk =   0.1875000
        k(    3) = (   0.2996283   0.1729905  -0.6221017), wk =   0.0937500
        k(    4) = (  -0.1498141   0.0864952   0.6221017), wk =   0.1875000
        k(    5) = (   0.2996283   0.3459809  -0.3110508), wk =   0.1875000
        k(    6) = (   0.1498141   0.2594857   0.0000000), wk =   0.1875000
        k(    7) = (   0.2996283  -0.1729905  -1.2442034), wk =   0.0937500
        k(    8) = (   0.0000000   0.0000000   0.9331525), wk =   0.0625000
        k(    9) = (   0.4494424   0.2594857   0.0000000), wk =   0.1875000
        k(   10) = (   0.2996283   0.1729905   0.3110508), wk =   0.1875000
        k(   11) = (   0.4494424  -0.2594857  -0.9331525), wk =   0.1875000
        k(   12) = (   0.2996283  -0.3459809  -0.6221017), wk =   0.1875000
        k(   13) = (   0.0000000   0.0000000  -1.8663050), wk =   0.0312500
        k(   14) = (   0.2996283  -0.3459809   0.3110508), wk =   0.1875000

     Dense  grid:   198491 G-vectors     FFT dimensions: (  90,  90,  90)

     Estimated max dynamical RAM per process >      13.43 MB

     Estimated total dynamical RAM >       1.54 GB

     Initial potential from superposition of free atoms

     starting charge      95.9998, renormalised to      96.0000
     Starting wfcs are   72 randomized atomic wfcs

     total cpu time spent up to now is        1.1 secs

     per-process dynamical memory:    18.1 Mb

     Self-consistent Calculation

     iteration #  1     ecut=    80.00 Ry     beta= 0.70
     Davidson diagonalization with overlap
     ethr =  1.00E-02,  avg # of iterations =  2.0

     total cpu time spent up to now is        1.9 secs

     total energy              =    -412.27425945 Ry
     estimated scf accuracy    <       3.73256037 Ry

     iteration #  2     ecut=    80.00 Ry     beta= 0.70
     Davidson diagonalization with overlap
     ethr =  3.89E-03,  avg # of iterations =  3.0

     total cpu time spent up to now is        2.8 secs

     total energy              =    -413.45564643 Ry
     estimated scf accuracy    <       2.34463292 Ry

     iteration #  3     ecut=    80.00 Ry     beta= 0.70
     Davidson diagonalization with overlap
     ethr =  2.44E-03,  avg # of iterations =  2.0

     total cpu time spent up to now is        3.6 secs

     total energy              =    -413.75306287 Ry
     estimated scf accuracy    <       0.10009892 Ry

     iteration #  4     ecut=    80.00 Ry     beta= 0.70
     Davidson diagonalization with overlap
     ethr =  1.04E-04,  avg # of iterations =  4.0

     total cpu time spent up to now is        4.7 secs

     total energy              =    -413.83127970 Ry
     estimated scf accuracy    <       0.11808575 Ry

     iteration #  5     ecut=    80.00 Ry     beta= 0.70
     Davidson diagonalization with overlap
     ethr =  1.04E-04,  avg # of iterations =  2.0

     total cpu time spent up to now is        5.3 secs

     total energy              =    -413.83483674 Ry
     estimated scf accuracy    <       0.02004107 Ry

     iteration #  6     ecut=    80.00 Ry     beta= 0.70
     Davidson diagonalization with overlap
     ethr =  2.09E-05,  avg # of iterations =  2.0

     total cpu time spent up to now is        6.0 secs

     total energy              =    -413.83414688 Ry
     estimated scf accuracy    <       0.00691063 Ry

     iteration #  7     ecut=    80.00 Ry     beta= 0.70
     Davidson diagonalization with overlap
     ethr =  7.20E-06,  avg # of iterations =  3.0

     total cpu time spent up to now is        6.8 secs

     total energy              =    -413.83574272 Ry
     estimated scf accuracy    <       0.00014630 Ry

     iteration #  8     ecut=    80.00 Ry     beta= 0.70
     Davidson diagonalization with overlap
     ethr =  1.52E-07,  avg # of iterations =  6.0

     total cpu time spent up to now is        8.1 secs

     total energy              =    -413.83579986 Ry
     estimated scf accuracy    <       0.00101276 Ry

     iteration #  9     ecut=    80.00 Ry     beta= 0.70
     Davidson diagonalization with overlap
     ethr =  1.52E-07,  avg # of iterations =  4.0

     total cpu time spent up to now is        9.0 secs

     total energy              =    -413.83584367 Ry
     estimated scf accuracy    <       0.00010391 Ry

     iteration # 10     ecut=    80.00 Ry     beta= 0.70
     Davidson diagonalization with overlap
     ethr =  1.08E-07,  avg # of iterations =  2.0

     total cpu time spent up to now is        9.8 secs

     total energy              =    -413.83587012 Ry
     estimated scf accuracy    <       0.00000035 Ry

     iteration # 11     ecut=    80.00 Ry     beta= 0.70
     Davidson diagonalization with overlap
     ethr =  3.69E-10,  avg # of iterations =  5.4

     total cpu time spent up to now is       11.0 secs

     End of self-consistent calculation

          k = 0.0000 0.0000 0.0000 ( 24773 PWs)   bands (ev):

   -20.8691 -20.4071 -20.4071 -20.1823 -20.1823 -20.1552 -20.1552 -20.1389
   -20.1364 -19.8321 -19.8321 -19.5167  -8.2107  -8.0105  -7.9525  -7.9525
    -7.8677  -7.8677  -7.4475  -7.2943  -7.2943  -7.0771  -7.0771  -6.9434
    -6.8789  -5.9786  -5.9786  -5.3882  -5.3882  -5.3103  -5.3103  -5.0108
    -4.8227  -4.1782  -4.1782  -3.5141  -2.8123  -2.8123  -2.7109  -2.6324
    -2.5836  -2.5836  -2.4426  -2.4426  -2.4222  -2.4023  -2.3541  -2.3541

          k =-0.1498-0.0865 0.3111 ( 24778 PWs)   bands (ev):

   -20.7946 -20.4481 -20.3949 -20.3278 -20.3039 -20.2292 -20.0841 -20.0409
   -19.9858 -19.8388 -19.7965 -19.5772  -8.1554  -8.0762  -7.9984  -7.9509
    -7.8500  -7.7878  -7.4455  -7.2643  -7.2496  -7.1122  -6.9835  -6.9473
    -6.7423  -6.1258  -5.9946  -5.7241  -5.4012  -5.2631  -5.1230  -4.8976
    -4.8417  -4.1685  -4.1072  -3.6470  -2.9302  -2.8569  -2.7361  -2.6779
    -2.6209  -2.5847  -2.5427  -2.4789  -2.4141  -2.3750  -2.3396  -2.2918

          k = 0.2996 0.1730-0.6221 ( 24820 PWs)   bands (ev):

   -20.6017 -20.5996 -20.4298 -20.4136 -20.3039 -20.2990 -20.0279 -20.0176
   -19.8461 -19.8424 -19.7337 -19.7136  -8.1310  -8.0728  -7.9881  -7.9663
    -7.8546  -7.7925  -7.3918  -7.2671  -7.2254  -7.1223  -6.8996  -6.8989
    -6.4970  -6.3562  -6.0486  -5.8892  -5.4012  -5.3189  -5.1183  -4.9604
    -4.4262  -4.3053  -4.0455  -3.8167  -3.0370  -2.8779  -2.7622  -2.7331
    -2.6600  -2.6387  -2.5484  -2.4883  -2.4695  -2.3369  -2.3254  -2.2458

          k =-0.1498 0.0865 0.6221 ( 24818 PWs)   bands (ev):

   -20.6433 -20.5058 -20.4958 -20.3758 -20.3536 -20.2875 -20.0336 -19.9516
   -19.9164 -19.7982 -19.7796 -19.6877  -8.1389  -8.0501  -8.0313  -7.9239
    -7.8722  -7.7783  -7.3965  -7.3050  -7.2521  -7.0174  -6.9493  -6.8946
    -6.5024  -6.2885  -6.1902  -5.7192  -5.5451  -5.3615  -5.0420  -4.8352
    -4.6313  -4.1341  -4.1091  -3.8309  -3.0139  -2.9216  -2.7506  -2.7030
    -2.6692  -2.6193  -2.5754  -2.4899  -2.4585  -2.3465  -2.3292  -2.2396

          k = 0.2996 0.3460-0.3111 ( 24824 PWs)   bands (ev):

   -20.6968 -20.5393 -20.4303 -20.4074 -20.3234 -20.2542 -20.0372 -19.9351
   -19.9251 -19.8358 -19.7742 -19.6622  -8.1464  -8.1206  -7.9675  -7.9446
    -7.8841  -7.7878  -7.4297  -7.3677  -7.2409  -6.9848  -6.9535  -6.8824
    -6.6297  -6.3239  -6.0837  -5.7410  -5.7000  -5.1946  -5.0092  -4.7468
    -4.5190  -4.2909  -4.0896  -3.8043  -2.9237  -2.8534  -2.7670  -2.6953
    -2.6414  -2.5888  -2.5277  -2.5184  -2.4332  -2.3926  -2.3317  -2.2270

          k = 0.1498 0.2595 0.0000 ( 24787 PWs)   bands (ev):

   -20.8153 -20.4826 -20.4264 -20.2943 -20.2662 -20.1841 -20.1052 -20.0323
   -19.9920 -19.8434 -19.8073 -19.5648  -8.1946  -8.0891  -7.9896  -7.9440
    -7.8249  -7.8187  -7.5022  -7.3597  -7.1710  -7.0807  -7.0125  -6.8997
    -6.8763  -6.1087  -5.9757  -5.7164  -5.6038  -5.1397  -5.0058  -4.8806
    -4.6960  -4.2477  -4.1560  -3.6056  -2.8138  -2.7932  -2.7489  -2.6613
    -2.6217  -2.5947  -2.4772  -2.4615  -2.4269  -2.4182  -2.3133  -2.2987

          k = 0.2996-0.1730-1.2442 ( 24806 PWs)   bands (ev):

   -20.6858 -20.6480 -20.4416 -20.3444 -20.2660 -20.2074 -20.0496 -20.0139
   -19.8998 -19.8782 -19.6975 -19.6810  -8.1740  -8.1351  -8.0003  -7.9646
    -7.7992  -7.7939  -7.4999  -7.4290  -7.1545  -7.1052  -6.9231  -6.8776
    -6.5606  -6.5182  -6.0476  -5.8269  -5.5113  -5.2610  -4.8804  -4.6261
    -4.5170  -4.4519  -4.0056  -3.8176  -2.8302  -2.7796  -2.7621  -2.6954
    -2.6241  -2.5645  -2.5446  -2.4702  -2.4605  -2.4139  -2.2780  -2.2638

          k = 0.0000 0.0000 0.9332 ( 24788 PWs)   bands (ev):

   -20.5885 -20.5885 -20.5084 -20.4630 -20.2834 -20.2834 -19.9615 -19.9615
   -19.8391 -19.7993 -19.7724 -19.7724  -8.1220  -8.1220  -7.9835  -7.8827
    -7.8827  -7.8735  -7.4385  -7.3355  -7.3355  -6.8913  -6.8913  -6.8529
    -6.4247  -6.4241  -6.4241  -5.7660  -5.4559  -5.4559  -4.7955  -4.6111
    -4.6111  -4.1551  -4.1551  -3.9866  -2.8659  -2.8659  -2.7421  -2.6809
    -2.6130  -2.6130  -2.5553  -2.4918  -2.4918  -2.3780  -2.3780  -2.2028

          k = 0.4494 0.2595 0.0000 ( 24849 PWs)   bands (ev):

   -20.7156 -20.5480 -20.5417 -20.3460 -20.2107 -20.1997 -20.0646 -20.0574
   -19.9006 -19.8060 -19.7717 -19.6514  -8.1680  -8.1246  -8.0560  -7.9009
    -7.8411  -7.7769  -7.5171  -7.3786  -7.2486  -7.0002  -6.9473  -6.8998
    -6.6664  -6.2872  -6.2097  -5.7793  -5.5245  -5.2560  -4.8055  -4.7661
    -4.5606  -4.2584  -4.1186  -3.7907  -2.8119  -2.8043  -2.7501  -2.7002
    -2.6396  -2.5801  -2.5106  -2.4876  -2.4353  -2.3906  -2.3304  -2.2451

          k = 0.2996 0.1730 0.3111 ( 24808 PWs)   bands (ev):

   -20.7442 -20.4939 -20.4041 -20.3916 -20.3029 -20.2448 -20.0516 -20.0222
   -19.9500 -19.8272 -19.7729 -19.6154  -8.1662  -8.1078  -8.0238  -7.8946
    -7.8889  -7.7370  -7.4656  -7.3350  -7.1539  -7.0796  -7.0327  -6.9333
    -6.6571  -6.1301  -5.9559  -5.8710  -5.6420  -5.2900  -4.9941  -4.7933
    -4.6362  -4.2346  -4.0986  -3.6897  -2.9422  -2.8661  -2.7893  -2.7351
    -2.6366  -2.5952  -2.5188  -2.4859  -2.4015  -2.3606  -2.3013  -2.2845

          k = 0.4494-0.2595-0.9332 ( 24810 PWs)   bands (ev):

   -20.6136 -20.6110 -20.4728 -20.4172 -20.2907 -20.2144 -20.0910 -20.0068
   -19.8628 -19.8087 -19.7573 -19.6739  -8.1950  -8.0950  -8.0542  -7.9014
    -7.8543  -7.7175  -7.5116  -7.2937  -7.1727  -7.1164  -6.9692  -6.9391
    -6.3935  -6.3551  -6.0319  -5.8833  -5.6950  -5.3789  -4.9515  -4.6701
    -4.3658  -4.3270  -4.1407  -3.7597  -2.9412  -2.8859  -2.8482  -2.7354
    -2.6998  -2.6111  -2.4681  -2.4459  -2.4144  -2.3738  -2.3034  -2.2485

          k = 0.2996-0.3460-0.6221 ( 24824 PWs)   bands (ev):

   -20.5685 -20.5622 -20.4612 -20.4503 -20.3227 -20.3208 -20.0107 -20.0032
   -19.8509 -19.8429 -19.7279 -19.7070  -8.2087  -8.0086  -7.9783  -7.9592
    -7.9232  -7.7212  -7.4238  -7.3035  -7.1500  -7.1038  -6.9477  -6.9425
    -6.3580  -6.2302  -6.0672  -5.9404  -5.6168  -5.5809  -4.8695  -4.7972
    -4.3730  -4.3301  -4.1489  -3.7434  -3.0677  -2.9007  -2.8459  -2.7750
    -2.7196  -2.5812  -2.5132  -2.4736  -2.4506  -2.3273  -2.3099  -2.2301

          k = 0.0000 0.0000-1.8663 ( 24840 PWs)   bands (ev):

   -20.5364 -20.5175 -20.4240 -20.4240 -20.4223 -20.4223 -19.9357 -19.9357
   -19.9011 -19.9011 -19.7125 -19.6949  -8.2568  -7.9714  -7.9714  -7.9504
    -7.9504  -7.6901  -7.4741  -7.3012  -7.0540  -7.0540  -7.0229  -7.0229
    -6.1819  -6.0027  -5.9448  -5.9448  -5.9392  -5.9392  -4.6492  -4.6492
    -4.4116  -4.4116  -4.1666  -3.6932  -3.0992  -2.9034  -2.9034  -2.8129
    -2.8129  -2.5259  -2.5085  -2.4095  -2.4095  -2.3406  -2.3406  -2.2047

          k = 0.2996-0.3460 0.3111 ( 24824 PWs)   bands (ev):

   -20.6968 -20.5382 -20.4376 -20.4024 -20.3204 -20.2550 -20.0385 -19.9495
   -19.9044 -19.8474 -19.7669 -19.6641  -8.1618  -8.0874  -8.0043  -7.9394
    -7.8568  -7.7946  -7.4774  -7.3361  -7.2164  -7.0232  -6.9172  -6.9033
    -6.6220  -6.2562  -6.1787  -5.7914  -5.5545  -5.2575  -5.0900  -4.6563
    -4.4967  -4.2789  -4.1600  -3.7823  -2.9317  -2.8245  -2.7835  -2.6923
    -2.6472  -2.5942  -2.5288  -2.5183  -2.4509  -2.3613  -2.3326  -2.2354

     highest occupied level (ev):    -2.2028

!    total energy              =    -413.83587089 Ry
     estimated scf accuracy    <       0.00000006 Ry

     The total energy is the sum of the following terms:
     one-electron contribution =    -290.96956499 Ry
     hartree contribution      =     179.94050294 Ry
     xc contribution           =    -101.26221667 Ry
     ewald contribution        =    -201.54459216 Ry

     convergence has been achieved in  11 iterations

     Forces acting on atoms (cartesian axes, Ry/au):

     atom    1 type  2   force =    -0.03448919    0.06360527    0.03057043
     atom    2 type  2   force =     0.03448919   -0.06360527   -0.03057043
     atom    3 type  2   force =    -0.03783918   -0.06167115    0.03057043
     atom    4 type  2   force =     0.03783918    0.06167115   -0.03057043
     atom    5 type  2   force =     0.07232837   -0.00193412    0.03057043
     atom    6 type  2   force =    -0.07232837    0.00193412   -0.03057043
     atom    7 type  2   force =    -0.03073074    0.02384034   -0.02142217
     atom    8 type  2   force =     0.03073074   -0.02384034    0.02142217
     atom    9 type  2   force =    -0.00528097   -0.03853377   -0.02142217
     atom   10 type  2   force =     0.00528097    0.03853377    0.02142217
     atom   11 type  2   force =     0.03601171    0.01469343   -0.02142217
     atom   12 type  2   force =    -0.03601171   -0.01469343    0.02142217
     atom   13 type  1   force =     0.00319851   -0.02591116   -0.05126075
     atom   14 type  1   force =    -0.00319851    0.02591116    0.05126075
     atom   15 type  1   force =     0.02084047    0.01572557   -0.05126075
     atom   16 type  1   force =    -0.02084047   -0.01572557    0.05126075
     atom   17 type  1   force =    -0.02403898    0.01018559   -0.05126075
     atom   18 type  1   force =     0.02403898   -0.01018559    0.05126075
     atom   19 type  1   force =     0.02973719   -0.04468978    0.01014758
     atom   20 type  1   force =    -0.02973719    0.04468978   -0.01014758
     atom   21 type  1   force =     0.02383389    0.04809805    0.01014758
     atom   22 type  1   force =    -0.02383389   -0.04809805   -0.01014758
     atom   23 type  1   force =    -0.05357108   -0.00340827    0.01014758
     atom   24 type  1   force =     0.05357108    0.00340827   -0.01014758
     atom   25 type  1   force =    -0.01367245   -0.00243381    0.01259115
     atom   26 type  1   force =     0.01367245    0.00243381   -0.01259115
     atom   27 type  1   force =     0.00894397   -0.01062379    0.01259115
     atom   28 type  1   force =    -0.00894397    0.01062379   -0.01259115
     atom   29 type  1   force =     0.00472848    0.01305760    0.01259115
     atom   30 type  1   force =    -0.00472848   -0.01305760   -0.01259115
     atom   31 type  1   force =    -0.02871204   -0.00932827    0.01626237
     atom   32 type  1   force =     0.02871204    0.00932827   -0.01626237
     atom   33 type  1   force =     0.02243454   -0.02020123    0.01626237
     atom   34 type  1   force =    -0.02243454    0.02020123   -0.01626237
     atom   35 type  1   force =     0.00627751    0.02952949    0.01626237
     atom   36 type  1   force =    -0.00627751   -0.02952949   -0.01626237

     Total force =     0.309474     Total SCF correction =     0.000389


     Computing stress (Cartesian axis) and pressure

          total   stress  (Ry/bohr**3)                   (kbar)     P=      -26.05
  -0.00025414   0.00000000  -0.00000000          -37.39        0.00       -0.00
  -0.00000000  -0.00025414  -0.00000000           -0.00      -37.39       -0.00
   0.00000000  -0.00000000  -0.00002306            0.00       -0.00       -3.39


     Writing all to output data dir ./iceII_2/iceII_2.save/ :
     XML data file, charge density, pseudopotentials, collected wavefunctions

     init_run     :      0.85s CPU      0.91s WALL (       1 calls)
     electrons    :      9.59s CPU      9.90s WALL (       1 calls)
     forces       :      0.11s CPU      0.12s WALL (       1 calls)
     stress       :      0.72s CPU      0.73s WALL (       1 calls)

     Called by init_run:
     wfcinit      :      0.32s CPU      0.33s WALL (       1 calls)
     potinit      :      0.03s CPU      0.05s WALL (       1 calls)
     hinit0       :      0.39s CPU      0.39s WALL (       1 calls)

     Called by electrons:
     c_bands      :      8.24s CPU      8.44s WALL (      11 calls)
     sum_band     :      1.06s CPU      1.08s WALL (      11 calls)
     v_of_rho     :      0.22s CPU      0.24s WALL (      12 calls)
     newd         :      0.04s CPU      0.04s WALL (      12 calls)
     mix_rho      :      0.03s CPU      0.03s WALL (      11 calls)

     Called by c_bands:
     init_us_2    :      0.09s CPU      0.11s WALL (     100 calls)
     cegterg      :      8.10s CPU      8.25s WALL (      44 calls)

     Called by *egterg:
     cdiaghg      :      0.73s CPU      0.73s WALL (     186 calls)
     h_psi        :      6.40s CPU      6.48s WALL (     190 calls)
     s_psi        :      0.22s CPU      0.24s WALL (     190 calls)
     g_psi        :      0.02s CPU      0.02s WALL (     142 calls)

     Called by h_psi:
     h_psi:calbec :      0.41s CPU      0.42s WALL (     190 calls)
     vloc_psi     :      5.69s CPU      5.76s WALL (     190 calls)
     add_vuspsi   :      0.25s CPU      0.25s WALL (     190 calls)

     General routines
     calbec       :      0.55s CPU      0.56s WALL (     254 calls)
     fft          :      0.47s CPU      0.48s WALL (     140 calls)
     ffts         :      0.01s CPU      0.01s WALL (      11 calls)
     fftw         :      5.86s CPU      5.92s WALL (   16662 calls)

     Parallel routines

     PWSCF        :     11.56s CPU     12.26s WALL


   This run was terminated on:  21:40:42  18Mar2026            

=------------------------------------------------------------------------------=
   JOB DONE.
=------------------------------------------------------------------------------=
