
     Program PWSCF v.7.3.1 starts on 18Mar2026 at 21:38:48 

     This program is part of the open-source Quantum ESPRESSO suite
     for quantum simulation of materials; please cite
         "P. Giannozzi et al., J. Phys.:Condens. Matter 21 395502 (2009);
         "P. Giannozzi et al., J. Phys.:Condens. Matter 29 465901 (2017);
         "P. Giannozzi et al., J. Chem. Phys. 152 154105 (2020);
          URL http://www.quantum-espresso.org", 
     in publications or presentations arising from this work. More details at
     http://www.quantum-espresso.org/quote

     Parallel version (MPI), running on   128 processors

     MPI processes distributed on     1 nodes
     243222 MiB available memory on the printing compute node when the environment starts

     Waiting for input...
     Reading input from standard input

     Current dimensions of program PWSCF are:
     Max number of different atomic species (ntypx) = 10
     Max number of k-points (npk) =  40000
     Max angular momentum in pseudopotentials (lmaxx) =  4

     K-points division:     npool     =       4
     R & G space division:  proc/nbgrp/npool/nimage =      32
     Subspace diagonalization in iterative solution of the eigenvalue problem:
     a serial algorithm will be used


     Parallelization info
     --------------------
     sticks:   dense  smooth     PW     G-vecs:    dense   smooth      PW
     Min         130     130     39                 4644     4644     766
     Max         131     131     40                 4645     4645     769
     Sum        4167    4167   1253               148635   148635   24569

     Using Slab Decomposition



     bravais-lattice index     =            5
     lattice parameter (alat)  =      14.7021  a.u.
     unit-cell volume          =    2053.1832 (a.u.)^3
     number of atoms/cell      =           36
     number of atomic types    =            2
     number of electrons       =        96.00
     number of Kohn-Sham states=           48
     kinetic-energy cutoff     =      66.0000  Ry
     charge density cutoff     =     264.0000  Ry
     scf convergence threshold =      1.0E-07
     mixing beta               =       0.7000
     number of iterations used =            8  plain     mixing
     Exchange-correlation=  SLA  PW   PBE  PBE
                           (   1   4   3   4   0   0   0)

     celldm(1)=  14.702068  celldm(2)=   0.000000  celldm(3)=   0.000000
     celldm(4)=  -0.392337  celldm(5)=   0.000000  celldm(6)=   0.000000

     crystal axes: (cart. coord. in units of alat)
               a(1) = (   0.834367  -0.481722   0.267909 )  
               a(2) = (   0.000000   0.963444   0.267909 )  
               a(3) = (  -0.834367  -0.481722   0.267909 )  

     reciprocal axes: (cart. coord. in units 2 pi/alat)
               b(1) = (  0.599257 -0.345981  1.244203 )  
               b(2) = ( -0.000000  0.691962  1.244203 )  
               b(3) = ( -0.599257 -0.345981  1.244203 )  


     PseudoPot. # 1 for H  read from file:
     ./H.pbe-van_ak.UPF
     MD5 check sum: 077eb6d537518a38cb46c6de387227b7
     Pseudo is Ultrasoft, Zval =  1.0
     Generated by new atomic code, or converted to UPF format
     Using radial grid of  615 points,  1 beta functions with: 
                l(1) =   0
     Q(r) pseudized with  8 coefficients,  rinner =    0.800

     PseudoPot. # 2 for O  read from file:
     ./O.pbe-van_ak.UPF
     MD5 check sum: 78c19812648e8988a0fe644b0f25305e
     Pseudo is Ultrasoft, Zval =  6.0
     Generated by new atomic code, or converted to UPF format
     Using radial grid of  737 points,  4 beta functions with: 
                l(1) =   0
                l(2) =   0
                l(3) =   1
                l(4) =   1
     Q(r) pseudized with  8 coefficients,  rinner =    0.800   0.800   0.800


     atomic species   valence    mass     pseudopotential
     H                 1.00     1.00800     H ( 1.00)
     O                 6.00    16.00000     O ( 1.00)

      6 Sym. Ops., with inversion, found



   Cartesian axes

     site n.     atom                  positions (alat units)
         1        O      tau(   1) = (  -0.4847673  -0.5197781   0.3083633  )
         2        O      tau(   2) = (   0.4847673   0.5197782   0.4953638  )
         3        O      tau(   3) = (   0.6925247  -0.1599317   0.3083633  )
         4        O      tau(   4) = (  -0.6925248   0.1599317   0.4953638  )
         5        O      tau(   5) = (  -0.2077574   0.6797099   0.3083633  )
         6        O      tau(   6) = (   0.2077574  -0.6797099   0.4953638  )
         7        O      tau(   7) = (   0.1218176   0.3323883   0.4179381  )
         8        O      tau(   8) = (  -0.1218176  -0.3323883   0.3857890  )
         9        O      tau(   9) = (  -0.3487655  -0.0606970   0.4179381  )
        10        O      tau(  10) = (   0.3487655   0.0606970   0.3857890  )
        11        O      tau(  11) = (   0.2269479  -0.2716913   0.4179381  )
        12        O      tau(  12) = (  -0.2269479   0.2716912   0.3857890  )
        13        H      tau(  13) = (  -0.5381668  -0.4032014   0.2796970  )
        14        H      tau(  14) = (   0.5381668   0.4032014   0.5240301  )
        15        H      tau(  15) = (   0.6182661  -0.2644654   0.2796970  )
        16        H      tau(  16) = (  -0.6182661   0.2644654   0.5240301  )
        17        H      tau(  17) = (  -0.0800993   0.6676668   0.2796970  )
        18        H      tau(  18) = (   0.0800993  -0.6676668   0.5240301  )
        19        H      tau(  19) = (  -0.4872704  -0.4817221   0.4326731  )
        20        H      tau(  20) = (   0.4872704   0.4817221   0.3710540  )
        21        H      tau(  21) = (   0.6608188  -0.1811275   0.4326731  )
        22        H      tau(  22) = (  -0.6608188   0.1811275   0.3710540  )
        23        H      tau(  23) = (  -0.1735484   0.6628496   0.4326731  )
        24        H      tau(  24) = (   0.1735484  -0.6628496   0.3710540  )
        25        H      tau(  25) = (   0.2703349  -0.1502973   0.4058822  )
        26        H      tau(  26) = (  -0.2703350   0.1502973   0.3978449  )
        27        H      tau(  27) = (  -0.0050062   0.3092656   0.4058822  )
        28        H      tau(  28) = (   0.0050062  -0.3092656   0.3978449  )
        29        H      tau(  29) = (  -0.2653287  -0.1589683   0.4058822  )
        30        H      tau(  30) = (   0.2653287   0.1589683   0.3978449  )
        31        H      tau(  31) = (   0.3178939  -0.3347969   0.3493534  )
        32        H      tau(  32) = (  -0.3178939   0.3347969   0.4543737  )
        33        H      tau(  33) = (   0.1309957   0.4427026   0.3493534  )
        34        H      tau(  34) = (  -0.1309956  -0.4427026   0.4543737  )
        35        H      tau(  35) = (  -0.4488895  -0.1079057   0.3493534  )
        36        H      tau(  36) = (   0.4488895   0.1079057   0.4543737  )

     number of k points=    14
                       cart. coord. in units 2pi/alat
        k(    1) = (   0.0000000   0.0000000   0.0000000), wk =   0.0312500
        k(    2) = (  -0.1498141  -0.0864952   0.3110508), wk =   0.1875000
        k(    3) = (   0.2996283   0.1729905  -0.6221017), wk =   0.0937500
        k(    4) = (  -0.1498141   0.0864952   0.6221017), wk =   0.1875000
        k(    5) = (   0.2996283   0.3459809  -0.3110508), wk =   0.1875000
        k(    6) = (   0.1498141   0.2594857   0.0000000), wk =   0.1875000
        k(    7) = (   0.2996283  -0.1729905  -1.2442034), wk =   0.0937500
        k(    8) = (   0.0000000   0.0000000   0.9331525), wk =   0.0625000
        k(    9) = (   0.4494424   0.2594857   0.0000000), wk =   0.1875000
        k(   10) = (   0.2996283   0.1729905   0.3110508), wk =   0.1875000
        k(   11) = (   0.4494424  -0.2594857  -0.9331525), wk =   0.1875000
        k(   12) = (   0.2996283  -0.3459809  -0.6221017), wk =   0.1875000
        k(   13) = (   0.0000000   0.0000000  -1.8663050), wk =   0.0312500
        k(   14) = (   0.2996283  -0.3459809   0.3110508), wk =   0.1875000

     Dense  grid:   148635 G-vectors     FFT dimensions: (  80,  80,  80)

     Estimated max dynamical RAM per process >      10.38 MB

     Estimated total dynamical RAM >       1.19 GB

     Initial potential from superposition of free atoms

     starting charge      95.9998, renormalised to      96.0000
     Starting wfcs are   72 randomized atomic wfcs

     total cpu time spent up to now is        1.2 secs

     per-process dynamical memory:    15.7 Mb

     Self-consistent Calculation

     iteration #  1     ecut=    66.00 Ry     beta= 0.70
     Davidson diagonalization with overlap
     ethr =  1.00E-02,  avg # of iterations =  2.0

     total cpu time spent up to now is        1.8 secs

     total energy              =    -412.26262379 Ry
     estimated scf accuracy    <       3.72095578 Ry

     iteration #  2     ecut=    66.00 Ry     beta= 0.70
     Davidson diagonalization with overlap
     ethr =  3.88E-03,  avg # of iterations =  3.0

     total cpu time spent up to now is        2.5 secs

     total energy              =    -413.43855920 Ry
     estimated scf accuracy    <       2.33617965 Ry

     iteration #  3     ecut=    66.00 Ry     beta= 0.70
     Davidson diagonalization with overlap
     ethr =  2.43E-03,  avg # of iterations =  2.0

     total cpu time spent up to now is        3.1 secs

     total energy              =    -413.73597958 Ry
     estimated scf accuracy    <       0.09875891 Ry

     iteration #  4     ecut=    66.00 Ry     beta= 0.70
     Davidson diagonalization with overlap
     ethr =  1.03E-04,  avg # of iterations =  4.0

     negative rho (up, down):  1.030E-07 0.000E+00

     total cpu time spent up to now is        3.9 secs

     total energy              =    -413.81338323 Ry
     estimated scf accuracy    <       0.11738049 Ry

     iteration #  5     ecut=    66.00 Ry     beta= 0.70
     Davidson diagonalization with overlap
     ethr =  1.03E-04,  avg # of iterations =  2.0

     negative rho (up, down):  1.335E-07 0.000E+00

     total cpu time spent up to now is        4.4 secs

     total energy              =    -413.81701706 Ry
     estimated scf accuracy    <       0.01983024 Ry

     iteration #  6     ecut=    66.00 Ry     beta= 0.70
     Davidson diagonalization with overlap
     ethr =  2.07E-05,  avg # of iterations =  2.0

     negative rho (up, down):  1.629E-07 0.000E+00

     total cpu time spent up to now is        4.9 secs

     total energy              =    -413.81623365 Ry
     estimated scf accuracy    <       0.00694111 Ry

     iteration #  7     ecut=    66.00 Ry     beta= 0.70
     Davidson diagonalization with overlap
     ethr =  7.23E-06,  avg # of iterations =  3.0

     negative rho (up, down):  1.673E-07 0.000E+00

     total cpu time spent up to now is        5.6 secs

     total energy              =    -413.81788351 Ry
     estimated scf accuracy    <       0.00013219 Ry

     iteration #  8     ecut=    66.00 Ry     beta= 0.70
     Davidson diagonalization with overlap
     ethr =  1.38E-07,  avg # of iterations =  6.0

     negative rho (up, down):  1.652E-07 0.000E+00

     total cpu time spent up to now is        6.6 secs

     total energy              =    -413.81792029 Ry
     estimated scf accuracy    <       0.00106260 Ry

     iteration #  9     ecut=    66.00 Ry     beta= 0.70
     Davidson diagonalization with overlap
     ethr =  1.38E-07,  avg # of iterations =  4.0

     negative rho (up, down):  1.558E-07 0.000E+00

     total cpu time spent up to now is        7.4 secs

     total energy              =    -413.81797714 Ry
     estimated scf accuracy    <       0.00009399 Ry

     iteration # 10     ecut=    66.00 Ry     beta= 0.70
     Davidson diagonalization with overlap
     ethr =  9.79E-08,  avg # of iterations =  2.0

     negative rho (up, down):  1.552E-07 0.000E+00

     total cpu time spent up to now is        8.0 secs

     total energy              =    -413.81799910 Ry
     estimated scf accuracy    <       0.00000037 Ry

     iteration # 11     ecut=    66.00 Ry     beta= 0.70
     Davidson diagonalization with overlap
     ethr =  3.84E-10,  avg # of iterations =  6.0

     negative rho (up, down):  1.553E-07 0.000E+00

     total cpu time spent up to now is        9.0 secs

     total energy              =    -413.81799998 Ry
     estimated scf accuracy    <       0.00000055 Ry

     iteration # 12     ecut=    66.00 Ry     beta= 0.70
     Davidson diagonalization with overlap
     ethr =  3.84E-10,  avg # of iterations =  1.0

     negative rho (up, down):  1.558E-07 0.000E+00

     total cpu time spent up to now is        9.4 secs

     total energy              =    -413.81799983 Ry
     estimated scf accuracy    <       0.00000030 Ry

     iteration # 13     ecut=    66.00 Ry     beta= 0.70
     Davidson diagonalization with overlap
     ethr =  3.12E-10,  avg # of iterations =  2.0

     negative rho (up, down):  1.558E-07 0.000E+00

     total cpu time spent up to now is       10.1 secs

     End of self-consistent calculation

          k = 0.0000 0.0000 0.0000 ( 18539 PWs)   bands (ev):

   -20.8713 -20.4093 -20.4093 -20.1846 -20.1846 -20.1575 -20.1575 -20.1412
   -20.1387 -19.8345 -19.8345 -19.5192  -8.2117  -8.0112  -7.9531  -7.9531
    -7.8684  -7.8684  -7.4482  -7.2946  -7.2946  -7.0771  -7.0771  -6.9434
    -6.8788  -5.9790  -5.9790  -5.3887  -5.3887  -5.3108  -5.3108  -5.0111
    -4.8231  -4.1783  -4.1783  -3.5143  -2.8103  -2.8103  -2.7091  -2.6302
    -2.5815  -2.5815  -2.4405  -2.4405  -2.4200  -2.4003  -2.3518  -2.3518

          k =-0.1498-0.0865 0.3111 ( 18558 PWs)   bands (ev):

   -20.7968 -20.4503 -20.3971 -20.3301 -20.3061 -20.2315 -20.0864 -20.0432
   -19.9882 -19.8412 -19.7989 -19.5796  -8.1564  -8.0769  -7.9991  -7.9516
    -7.8507  -7.7884  -7.4460  -7.2646  -7.2499  -7.1123  -6.9834  -6.9472
    -6.7424  -6.1262  -5.9950  -5.7246  -5.4017  -5.2635  -5.1234  -4.8980
    -4.8421  -4.1687  -4.1074  -3.6471  -2.9284  -2.8550  -2.7343  -2.6757
    -2.6188  -2.5828  -2.5406  -2.4768  -2.4119  -2.3728  -2.3373  -2.2895

          k = 0.2996 0.1730-0.6221 ( 18582 PWs)   bands (ev):

   -20.6039 -20.6019 -20.4319 -20.4159 -20.3061 -20.3013 -20.0302 -20.0200
   -19.8484 -19.8449 -19.7361 -19.7161  -8.1317  -8.0736  -7.9888  -7.9670
    -7.8553  -7.7931  -7.3921  -7.2673  -7.2256  -7.1223  -6.8995  -6.8988
    -6.4973  -6.3566  -6.0490  -5.8896  -5.4017  -5.3193  -5.1188  -4.9608
    -4.4264  -4.3055  -4.0456  -3.8167  -3.0353  -2.8759  -2.7602  -2.7313
    -2.6581  -2.6367  -2.5463  -2.4862  -2.4673  -2.3345  -2.3231  -2.2434

          k =-0.1498 0.0865 0.6221 ( 18579 PWs)   bands (ev):

   -20.6455 -20.5081 -20.4980 -20.3780 -20.3558 -20.2897 -20.0360 -19.9540
   -19.9188 -19.8006 -19.7820 -19.6902  -8.1397  -8.0508  -8.0321  -7.9245
    -7.8729  -7.7789  -7.3969  -7.3052  -7.2523  -7.0174  -6.9492  -6.8945
    -6.5027  -6.2889  -6.1906  -5.7196  -5.5456  -5.3619  -5.0424  -4.8356
    -4.6316  -4.1342  -4.1093  -3.8310  -3.0121  -2.9197  -2.7486  -2.7013
    -2.6672  -2.6173  -2.5732  -2.4877  -2.4563  -2.3442  -2.3270  -2.2373

          k = 0.2996 0.3460-0.3111 ( 18598 PWs)   bands (ev):

   -20.6990 -20.5415 -20.4327 -20.4095 -20.3257 -20.2565 -20.0396 -19.9375
   -19.9275 -19.8383 -19.7766 -19.6646  -8.1471  -8.1215  -7.9682  -7.9452
    -7.8848  -7.7883  -7.4300  -7.3679  -7.2410  -6.9849  -6.9535  -6.8823
    -6.6301  -6.3245  -6.0843  -5.7414  -5.7003  -5.1950  -5.0096  -4.7472
    -4.5193  -4.2912  -4.0898  -3.8045  -2.9219  -2.8515  -2.7651  -2.6933
    -2.6394  -2.5869  -2.5256  -2.5162  -2.4309  -2.3902  -2.3295  -2.2246

          k = 0.1498 0.2595 0.0000 ( 18582 PWs)   bands (ev):

   -20.8174 -20.4848 -20.4286 -20.2966 -20.2685 -20.1864 -20.1075 -20.0346
   -19.9944 -19.8458 -19.8097 -19.5673  -8.1955  -8.0898  -7.9903  -7.9447
    -7.8255  -7.8193  -7.5026  -7.3600  -7.1713  -7.0807  -7.0127  -6.8999
    -6.8762  -6.1092  -5.9762  -5.7168  -5.6042  -5.1401  -5.0062  -4.8810
    -4.6963  -4.2479  -4.1561  -3.6059  -2.8118  -2.7913  -2.7469  -2.6593
    -2.6197  -2.5927  -2.4750  -2.4594  -2.4248  -2.4159  -2.3110  -2.2965

          k = 0.2996-0.1730-1.2442 ( 18588 PWs)   bands (ev):

   -20.6880 -20.6502 -20.4438 -20.3467 -20.2683 -20.2098 -20.0519 -20.0163
   -19.9022 -19.8807 -19.6999 -19.6835  -8.1748  -8.1359  -8.0010  -7.9653
    -7.7998  -7.7945  -7.5002  -7.4292  -7.1545  -7.1053  -6.9232  -6.8776
    -6.5613  -6.5187  -6.0482  -5.8272  -5.5116  -5.2613  -4.8809  -4.6265
    -4.5173  -4.4522  -4.0058  -3.8177  -2.8282  -2.7776  -2.7602  -2.6936
    -2.6220  -2.5625  -2.5425  -2.4681  -2.4583  -2.4115  -2.2756  -2.2615

          k = 0.0000 0.0000 0.9332 ( 18610 PWs)   bands (ev):

   -20.5907 -20.5907 -20.5106 -20.4653 -20.2856 -20.2856 -19.9638 -19.9638
   -19.8413 -19.8019 -19.7748 -19.7748  -8.1228  -8.1228  -7.9844  -7.8833
    -7.8833  -7.8741  -7.4388  -7.3357  -7.3357  -6.8913  -6.8913  -6.8529
    -6.4254  -6.4247  -6.4247  -5.7664  -5.4563  -5.4563  -4.7960  -4.6114
    -4.6114  -4.1554  -4.1554  -3.9868  -2.8641  -2.8641  -2.7404  -2.6788
    -2.6109  -2.6109  -2.5536  -2.4896  -2.4896  -2.3757  -2.3757  -2.2004

          k = 0.4494 0.2595 0.0000 ( 18604 PWs)   bands (ev):

   -20.7178 -20.5502 -20.5439 -20.3483 -20.2129 -20.2021 -20.0669 -20.0597
   -19.9029 -19.8085 -19.7741 -19.6539  -8.1688  -8.1253  -8.0568  -7.9015
    -7.8418  -7.7775  -7.5173  -7.3788  -7.2487  -7.0001  -6.9474  -6.8997
    -6.6669  -6.2879  -6.2102  -5.7797  -5.5248  -5.2563  -4.8058  -4.7665
    -4.5609  -4.2586  -4.1188  -3.7908  -2.8099  -2.8023  -2.7482  -2.6984
    -2.6374  -2.5780  -2.5085  -2.4854  -2.4332  -2.3883  -2.3281  -2.2427

          k = 0.2996 0.1730 0.3111 ( 18564 PWs)   bands (ev):

   -20.7464 -20.4961 -20.4064 -20.3938 -20.3052 -20.2470 -20.0540 -20.0245
   -19.9524 -19.8296 -19.7754 -19.6178  -8.1671  -8.1085  -8.0245  -7.8952
    -7.8897  -7.7376  -7.4659  -7.3353  -7.1540  -7.0798  -7.0327  -6.9333
    -6.6574  -6.1306  -5.9563  -5.8715  -5.6424  -5.2905  -4.9944  -4.7936
    -4.6365  -4.2348  -4.0987  -3.6898  -2.9404  -2.8642  -2.7874  -2.7331
    -2.6346  -2.5933  -2.5166  -2.4836  -2.3993  -2.3583  -2.2990  -2.2822

          k = 0.4494-0.2595-0.9332 ( 18613 PWs)   bands (ev):

   -20.6158 -20.6132 -20.4751 -20.4195 -20.2929 -20.2167 -20.0933 -20.0091
   -19.8653 -19.8111 -19.7598 -19.6764  -8.1959  -8.0958  -8.0549  -7.9021
    -7.8550  -7.7181  -7.5118  -7.2939  -7.1728  -7.1165  -6.9693  -6.9391
    -6.3941  -6.3556  -6.0324  -5.8836  -5.6954  -5.3794  -4.9518  -4.6704
    -4.3661  -4.3274  -4.1409  -3.7598  -2.9395  -2.8840  -2.8463  -2.7333
    -2.6978  -2.6092  -2.4659  -2.4437  -2.4121  -2.3715  -2.3011  -2.2463

          k = 0.2996-0.3460-0.6221 ( 18584 PWs)   bands (ev):

   -20.5706 -20.5645 -20.4634 -20.4526 -20.3249 -20.3230 -20.0130 -20.0056
   -19.8533 -19.8454 -19.7302 -19.7095  -8.2096  -8.0094  -7.9790  -7.9599
    -7.9239  -7.7218  -7.4242  -7.3037  -7.1502  -7.1039  -6.9476  -6.9424
    -6.3583  -6.2306  -6.0677  -5.9408  -5.6173  -5.5814  -4.8698  -4.7975
    -4.3732  -4.3304  -4.1491  -3.7434  -3.0660  -2.8988  -2.8439  -2.7731
    -2.7177  -2.5792  -2.5110  -2.4713  -2.4484  -2.3250  -2.3076  -2.2277

          k = 0.0000 0.0000-1.8663 ( 18586 PWs)   bands (ev):

   -20.5385 -20.5199 -20.4264 -20.4264 -20.4244 -20.4244 -19.9379 -19.9379
   -19.9036 -19.9036 -19.7147 -19.6974  -8.2577  -7.9721  -7.9721  -7.9511
    -7.9511  -7.6906  -7.4744  -7.3013  -7.0541  -7.0541  -7.0229  -7.0229
    -6.1823  -6.0030  -5.9452  -5.9452  -5.9399  -5.9399  -4.6494  -4.6494
    -4.4119  -4.4119  -4.1668  -3.6932  -3.0975  -2.9015  -2.9015  -2.8110
    -2.8110  -2.5240  -2.5062  -2.4073  -2.4073  -2.3383  -2.3383  -2.2023

          k = 0.2996-0.3460 0.3111 ( 18598 PWs)   bands (ev):

   -20.6990 -20.5405 -20.4398 -20.4047 -20.3227 -20.2572 -20.0408 -19.9518
   -19.9069 -19.8497 -19.7694 -19.6665  -8.1626  -8.0881  -8.0050  -7.9402
    -7.8574  -7.7953  -7.4777  -7.3363  -7.2165  -7.0234  -6.9171  -6.9033
    -6.6224  -6.2567  -6.1792  -5.7919  -5.5548  -5.2578  -5.0905  -4.6567
    -4.4970  -4.2790  -4.1602  -3.7824  -2.9299  -2.8225  -2.7815  -2.6903
    -2.6452  -2.5922  -2.5267  -2.5161  -2.4486  -2.3590  -2.3302  -2.2331

     highest occupied level (ev):    -2.2004

!    total energy              =    -413.81799991 Ry
     estimated scf accuracy    <          2.4E-09 Ry

     The total energy is the sum of the following terms:
     one-electron contribution =    -290.93241512 Ry
     hartree contribution      =     179.92008581 Ry
     xc contribution           =    -101.26107843 Ry
     ewald contribution        =    -201.54459216 Ry

     convergence has been achieved in  13 iterations

     Forces acting on atoms (cartesian axes, Ry/au):

     atom    1 type  2   force =    -0.03454956    0.06364080    0.03063202
     atom    2 type  2   force =     0.03454956   -0.06364080   -0.03063202
     atom    3 type  2   force =    -0.03783977   -0.06174120    0.03063202
     atom    4 type  2   force =     0.03783977    0.06174120   -0.03063202
     atom    5 type  2   force =     0.07238933   -0.00189961    0.03063202
     atom    6 type  2   force =    -0.07238933    0.00189961   -0.03063202
     atom    7 type  2   force =    -0.03067829    0.02375571   -0.02129952
     atom    8 type  2   force =     0.03067829   -0.02375571    0.02129952
     atom    9 type  2   force =    -0.00523391   -0.03844603   -0.02129952
     atom   10 type  2   force =     0.00523391    0.03844603    0.02129952
     atom   11 type  2   force =     0.03591220    0.01469032   -0.02129952
     atom   12 type  2   force =    -0.03591220   -0.01469032    0.02129952
     atom   13 type  1   force =     0.00320146   -0.02595441   -0.05124638
     atom   14 type  1   force =    -0.00320146    0.02595441    0.05124638
     atom   15 type  1   force =     0.02087645    0.01574975   -0.05124638
     atom   16 type  1   force =    -0.02087645   -0.01574975    0.05124638
     atom   17 type  1   force =    -0.02407791    0.01020466   -0.05124638
     atom   18 type  1   force =     0.02407791   -0.01020466    0.05124638
     atom   19 type  1   force =     0.02973184   -0.04470668    0.01012515
     atom   20 type  1   force =    -0.02973184    0.04470668   -0.01012515
     atom   21 type  1   force =     0.02385120    0.04810187    0.01012515
     atom   22 type  1   force =    -0.02385120   -0.04810187   -0.01012515
     atom   23 type  1   force =    -0.05358304   -0.00339519    0.01012515
     atom   24 type  1   force =     0.05358304    0.00339519   -0.01012515
     atom   25 type  1   force =    -0.01368516   -0.00245608    0.01259478
     atom   26 type  1   force =     0.01368516    0.00245608   -0.01259478
     atom   27 type  1   force =     0.00896961   -0.01062366    0.01259478
     atom   28 type  1   force =    -0.00896961    0.01062366   -0.01259478
     atom   29 type  1   force =     0.00471556    0.01307974    0.01259478
     atom   30 type  1   force =    -0.00471556   -0.01307974   -0.01259478
     atom   31 type  1   force =    -0.02874769   -0.00931160    0.01625618
     atom   32 type  1   force =     0.02874769    0.00931160   -0.01625618
     atom   33 type  1   force =     0.02243793   -0.02024043    0.01625618
     atom   34 type  1   force =    -0.02243793    0.02024043   -0.01625618
     atom   35 type  1   force =     0.00630976    0.02955203    0.01625618
     atom   36 type  1   force =    -0.00630976   -0.02955203   -0.01625618

     Total force =     0.309508     Total SCF correction =     0.000113


     Computing stress (Cartesian axis) and pressure

          total   stress  (Ry/bohr**3)                   (kbar)     P=      -19.79
  -0.00021196   0.00000000  -0.00000000          -31.18        0.00       -0.00
  -0.00000000  -0.00021196  -0.00000000           -0.00      -31.18       -0.00
  -0.00000000  -0.00000000   0.00002026           -0.00       -0.00        2.98


     Writing all to output data dir ./iceII_2/iceII_2.save/ :
     XML data file, charge density, pseudopotentials, collected wavefunctions

     init_run     :      0.91s CPU      0.97s WALL (       1 calls)
     electrons    :      8.76s CPU      8.94s WALL (       1 calls)
     forces       :      0.07s CPU      0.09s WALL (       1 calls)
     stress       :      0.54s CPU      0.55s WALL (       1 calls)

     Called by init_run:
     wfcinit      :      0.24s CPU      0.26s WALL (       1 calls)
     potinit      :      0.02s CPU      0.04s WALL (       1 calls)
     hinit0       :      0.56s CPU      0.56s WALL (       1 calls)

     Called by electrons:
     c_bands      :      7.55s CPU      7.66s WALL (      13 calls)
     sum_band     :      0.93s CPU      0.95s WALL (      13 calls)
     v_of_rho     :      0.20s CPU      0.22s WALL (      14 calls)
     newd         :      0.03s CPU      0.04s WALL (      14 calls)
     mix_rho      :      0.03s CPU      0.03s WALL (      13 calls)

     Called by c_bands:
     init_us_2    :      0.08s CPU      0.09s WALL (     116 calls)
     cegterg      :      7.42s CPU      7.50s WALL (      52 calls)

     Called by *egterg:
     cdiaghg      :      0.81s CPU      0.82s WALL (     208 calls)
     h_psi        :      5.73s CPU      5.78s WALL (     212 calls)
     s_psi        :      0.20s CPU      0.20s WALL (     212 calls)
     g_psi        :      0.01s CPU      0.01s WALL (     156 calls)

     Called by h_psi:
     h_psi:calbec :      0.38s CPU      0.38s WALL (     212 calls)
     vloc_psi     :      5.11s CPU      5.15s WALL (     212 calls)
     add_vuspsi   :      0.22s CPU      0.22s WALL (     212 calls)

     General routines
     calbec       :      0.48s CPU      0.48s WALL (     284 calls)
     fft          :      0.64s CPU      0.65s WALL (     162 calls)
     ffts         :      0.01s CPU      0.01s WALL (      13 calls)
     fftw         :      5.28s CPU      5.32s WALL (   19200 calls)

     Parallel routines

     PWSCF        :     10.57s CPU     11.05s WALL


   This run was terminated on:  21:38:59  18Mar2026            

=------------------------------------------------------------------------------=
   JOB DONE.
=------------------------------------------------------------------------------=
