
     Program PWSCF v.7.3.1 starts on 18Mar2026 at 21:35:42 

     This program is part of the open-source Quantum ESPRESSO suite
     for quantum simulation of materials; please cite
         "P. Giannozzi et al., J. Phys.:Condens. Matter 21 395502 (2009);
         "P. Giannozzi et al., J. Phys.:Condens. Matter 29 465901 (2017);
         "P. Giannozzi et al., J. Chem. Phys. 152 154105 (2020);
          URL http://www.quantum-espresso.org", 
     in publications or presentations arising from this work. More details at
     http://www.quantum-espresso.org/quote

     Parallel version (MPI), running on   128 processors

     MPI processes distributed on     1 nodes
     243330 MiB available memory on the printing compute node when the environment starts

     Waiting for input...
     Reading input from standard input

     Current dimensions of program PWSCF are:
     Max number of different atomic species (ntypx) = 10
     Max number of k-points (npk) =  40000
     Max angular momentum in pseudopotentials (lmaxx) =  4

     K-points division:     npool     =       8
     R & G space division:  proc/nbgrp/npool/nimage =      16
     Subspace diagonalization in iterative solution of the eigenvalue problem:
     a serial algorithm will be used


     Parallelization info
     --------------------
     sticks:   dense  smooth     PW     G-vecs:    dense   smooth      PW
     Min         126     126     41                 3134     3134     581
     Max         127     127     42                 3137     3137     583
     Sum        2029    2029    657                50169    50169    9303

     Using Slab Decomposition



     bravais-lattice index     =            5
     lattice parameter (alat)  =      14.7021  a.u.
     unit-cell volume          =    2053.1832 (a.u.)^3
     number of atoms/cell      =           36
     number of atomic types    =            2
     number of electrons       =        96.00
     number of Kohn-Sham states=           48
     kinetic-energy cutoff     =      32.0000  Ry
     charge density cutoff     =     128.0000  Ry
     scf convergence threshold =      1.0E-07
     mixing beta               =       0.7000
     number of iterations used =            8  plain     mixing
     Exchange-correlation=  SLA  PW   PBE  PBE
                           (   1   4   3   4   0   0   0)

     celldm(1)=  14.702068  celldm(2)=   0.000000  celldm(3)=   0.000000
     celldm(4)=  -0.392337  celldm(5)=   0.000000  celldm(6)=   0.000000

     crystal axes: (cart. coord. in units of alat)
               a(1) = (   0.834367  -0.481722   0.267909 )  
               a(2) = (   0.000000   0.963444   0.267909 )  
               a(3) = (  -0.834367  -0.481722   0.267909 )  

     reciprocal axes: (cart. coord. in units 2 pi/alat)
               b(1) = (  0.599257 -0.345981  1.244203 )  
               b(2) = ( -0.000000  0.691962  1.244203 )  
               b(3) = ( -0.599257 -0.345981  1.244203 )  


     PseudoPot. # 1 for H  read from file:
     ./H.pbe-van_ak.UPF
     MD5 check sum: 077eb6d537518a38cb46c6de387227b7
     Pseudo is Ultrasoft, Zval =  1.0
     Generated by new atomic code, or converted to UPF format
     Using radial grid of  615 points,  1 beta functions with: 
                l(1) =   0
     Q(r) pseudized with  8 coefficients,  rinner =    0.800

     PseudoPot. # 2 for O  read from file:
     ./O.pbe-van_ak.UPF
     MD5 check sum: 78c19812648e8988a0fe644b0f25305e
     Pseudo is Ultrasoft, Zval =  6.0
     Generated by new atomic code, or converted to UPF format
     Using radial grid of  737 points,  4 beta functions with: 
                l(1) =   0
                l(2) =   0
                l(3) =   1
                l(4) =   1
     Q(r) pseudized with  8 coefficients,  rinner =    0.800   0.800   0.800


     atomic species   valence    mass     pseudopotential
     H                 1.00     1.00800     H ( 1.00)
     O                 6.00    16.00000     O ( 1.00)

      6 Sym. Ops., with inversion, found



   Cartesian axes

     site n.     atom                  positions (alat units)
         1        O      tau(   1) = (  -0.4847673  -0.5197781   0.3083633  )
         2        O      tau(   2) = (   0.4847673   0.5197782   0.4953638  )
         3        O      tau(   3) = (   0.6925247  -0.1599317   0.3083633  )
         4        O      tau(   4) = (  -0.6925248   0.1599317   0.4953638  )
         5        O      tau(   5) = (  -0.2077574   0.6797099   0.3083633  )
         6        O      tau(   6) = (   0.2077574  -0.6797099   0.4953638  )
         7        O      tau(   7) = (   0.1218176   0.3323883   0.4179381  )
         8        O      tau(   8) = (  -0.1218176  -0.3323883   0.3857890  )
         9        O      tau(   9) = (  -0.3487655  -0.0606970   0.4179381  )
        10        O      tau(  10) = (   0.3487655   0.0606970   0.3857890  )
        11        O      tau(  11) = (   0.2269479  -0.2716913   0.4179381  )
        12        O      tau(  12) = (  -0.2269479   0.2716912   0.3857890  )
        13        H      tau(  13) = (  -0.5381668  -0.4032014   0.2796970  )
        14        H      tau(  14) = (   0.5381668   0.4032014   0.5240301  )
        15        H      tau(  15) = (   0.6182661  -0.2644654   0.2796970  )
        16        H      tau(  16) = (  -0.6182661   0.2644654   0.5240301  )
        17        H      tau(  17) = (  -0.0800993   0.6676668   0.2796970  )
        18        H      tau(  18) = (   0.0800993  -0.6676668   0.5240301  )
        19        H      tau(  19) = (  -0.4872704  -0.4817221   0.4326731  )
        20        H      tau(  20) = (   0.4872704   0.4817221   0.3710540  )
        21        H      tau(  21) = (   0.6608188  -0.1811275   0.4326731  )
        22        H      tau(  22) = (  -0.6608188   0.1811275   0.3710540  )
        23        H      tau(  23) = (  -0.1735484   0.6628496   0.4326731  )
        24        H      tau(  24) = (   0.1735484  -0.6628496   0.3710540  )
        25        H      tau(  25) = (   0.2703349  -0.1502973   0.4058822  )
        26        H      tau(  26) = (  -0.2703350   0.1502973   0.3978449  )
        27        H      tau(  27) = (  -0.0050062   0.3092656   0.4058822  )
        28        H      tau(  28) = (   0.0050062  -0.3092656   0.3978449  )
        29        H      tau(  29) = (  -0.2653287  -0.1589683   0.4058822  )
        30        H      tau(  30) = (   0.2653287   0.1589683   0.3978449  )
        31        H      tau(  31) = (   0.3178939  -0.3347969   0.3493534  )
        32        H      tau(  32) = (  -0.3178939   0.3347969   0.4543737  )
        33        H      tau(  33) = (   0.1309957   0.4427026   0.3493534  )
        34        H      tau(  34) = (  -0.1309956  -0.4427026   0.4543737  )
        35        H      tau(  35) = (  -0.4488895  -0.1079057   0.3493534  )
        36        H      tau(  36) = (   0.4488895   0.1079057   0.4543737  )

     number of k points=    14
                       cart. coord. in units 2pi/alat
        k(    1) = (   0.0000000   0.0000000   0.0000000), wk =   0.0312500
        k(    2) = (  -0.1498141  -0.0864952   0.3110508), wk =   0.1875000
        k(    3) = (   0.2996283   0.1729905  -0.6221017), wk =   0.0937500
        k(    4) = (  -0.1498141   0.0864952   0.6221017), wk =   0.1875000
        k(    5) = (   0.2996283   0.3459809  -0.3110508), wk =   0.1875000
        k(    6) = (   0.1498141   0.2594857   0.0000000), wk =   0.1875000
        k(    7) = (   0.2996283  -0.1729905  -1.2442034), wk =   0.0937500
        k(    8) = (   0.0000000   0.0000000   0.9331525), wk =   0.0625000
        k(    9) = (   0.4494424   0.2594857   0.0000000), wk =   0.1875000
        k(   10) = (   0.2996283   0.1729905   0.3110508), wk =   0.1875000
        k(   11) = (   0.4494424  -0.2594857  -0.9331525), wk =   0.1875000
        k(   12) = (   0.2996283  -0.3459809  -0.6221017), wk =   0.1875000
        k(   13) = (   0.0000000   0.0000000  -1.8663050), wk =   0.0312500
        k(   14) = (   0.2996283  -0.3459809   0.3110508), wk =   0.1875000

     Dense  grid:    50169 G-vectors     FFT dimensions: (  54,  54,  54)

     Estimated max dynamical RAM per process >       6.53 MB

     Estimated total dynamical RAM >     750.33 MB

     Initial potential from superposition of free atoms

     starting charge      95.9998, renormalised to      96.0000
     Starting wfcs are   72 randomized atomic wfcs

     total cpu time spent up to now is        0.6 secs

     per-process dynamical memory:    11.5 Mb

     Self-consistent Calculation

     iteration #  1     ecut=    32.00 Ry     beta= 0.70
     Davidson diagonalization with overlap
     ethr =  1.00E-02,  avg # of iterations =  2.0

     total cpu time spent up to now is        0.8 secs

     total energy              =    -412.16281295 Ry
     estimated scf accuracy    <       3.69257040 Ry

     iteration #  2     ecut=    32.00 Ry     beta= 0.70
     Davidson diagonalization with overlap
     ethr =  3.85E-03,  avg # of iterations =  3.0

     total cpu time spent up to now is        1.1 secs

     total energy              =    -413.33804158 Ry
     estimated scf accuracy    <       2.33961302 Ry

     iteration #  3     ecut=    32.00 Ry     beta= 0.70
     Davidson diagonalization with overlap
     ethr =  2.44E-03,  avg # of iterations =  2.0

     total cpu time spent up to now is        1.3 secs

     total energy              =    -413.63316420 Ry
     estimated scf accuracy    <       0.08564321 Ry

     iteration #  4     ecut=    32.00 Ry     beta= 0.70
     Davidson diagonalization with overlap
     ethr =  8.92E-05,  avg # of iterations =  4.0

     total cpu time spent up to now is        1.6 secs

     total energy              =    -413.69764329 Ry
     estimated scf accuracy    <       0.12330532 Ry

     iteration #  5     ecut=    32.00 Ry     beta= 0.70
     Davidson diagonalization with overlap
     ethr =  8.92E-05,  avg # of iterations =  2.0

     total cpu time spent up to now is        1.8 secs

     total energy              =    -413.70222701 Ry
     estimated scf accuracy    <       0.02070850 Ry

     iteration #  6     ecut=    32.00 Ry     beta= 0.70
     Davidson diagonalization with overlap
     ethr =  2.16E-05,  avg # of iterations =  2.0

     total cpu time spent up to now is        2.0 secs

     total energy              =    -413.70127040 Ry
     estimated scf accuracy    <       0.00697728 Ry

     iteration #  7     ecut=    32.00 Ry     beta= 0.70
     Davidson diagonalization with overlap
     ethr =  7.27E-06,  avg # of iterations =  2.0

     total cpu time spent up to now is        2.2 secs

     total energy              =    -413.70266238 Ry
     estimated scf accuracy    <       0.00014551 Ry

     iteration #  8     ecut=    32.00 Ry     beta= 0.70
     Davidson diagonalization with overlap
     ethr =  1.52E-07,  avg # of iterations =  4.6

     total cpu time spent up to now is        2.4 secs

     total energy              =    -413.70277267 Ry
     estimated scf accuracy    <       0.00012386 Ry

     iteration #  9     ecut=    32.00 Ry     beta= 0.70
     Davidson diagonalization with overlap
     ethr =  1.29E-07,  avg # of iterations =  1.0

     total cpu time spent up to now is        2.6 secs

     total energy              =    -413.70275549 Ry
     estimated scf accuracy    <       0.00006186 Ry

     iteration # 10     ecut=    32.00 Ry     beta= 0.70
     Davidson diagonalization with overlap
     ethr =  6.44E-08,  avg # of iterations =  2.0

     total cpu time spent up to now is        2.8 secs

     total energy              =    -413.70275925 Ry
     estimated scf accuracy    <       0.00000972 Ry

     iteration # 11     ecut=    32.00 Ry     beta= 0.70
     Davidson diagonalization with overlap
     ethr =  1.01E-08,  avg # of iterations =  1.9

     total cpu time spent up to now is        2.9 secs

     total energy              =    -413.70275744 Ry
     estimated scf accuracy    <       0.00000517 Ry

     iteration # 12     ecut=    32.00 Ry     beta= 0.70
     Davidson diagonalization with overlap
     ethr =  5.39E-09,  avg # of iterations =  2.0

     total cpu time spent up to now is        3.2 secs

     End of self-consistent calculation

          k = 0.0000 0.0000 0.0000 (  6277 PWs)   bands (ev):

   -20.8886 -20.4273 -20.4273 -20.2027 -20.2027 -20.1756 -20.1756 -20.1594
   -20.1569 -19.8530 -19.8530 -19.5379  -8.2091  -8.0087  -7.9508  -7.9508
    -7.8654  -7.8654  -7.4474  -7.2918  -7.2918  -7.0743  -7.0743  -6.9406
    -6.8757  -5.9763  -5.9763  -5.3851  -5.3851  -5.3068  -5.3068  -5.0066
    -4.8178  -4.1719  -4.1719  -3.5058  -2.8039  -2.8039  -2.7026  -2.6240
    -2.5749  -2.5749  -2.4339  -2.4339  -2.4126  -2.3929  -2.3443  -2.3443

          k =-0.1498-0.0865 0.3111 (  6287 PWs)   bands (ev):

   -20.8142 -20.4683 -20.4151 -20.3480 -20.3241 -20.2495 -20.1047 -20.0614
   -20.0065 -19.8596 -19.8175 -19.5983  -8.1537  -8.0747  -7.9967  -7.9490
    -7.8478  -7.7854  -7.4445  -7.2620  -7.2478  -7.1095  -6.9803  -6.9441
    -6.7396  -6.1237  -5.9921  -5.7215  -5.3979  -5.2597  -5.1191  -4.8933
    -4.8373  -4.1623  -4.1008  -3.6393  -2.9224  -2.8487  -2.7279  -2.6695
    -2.6123  -2.5760  -2.5336  -2.4701  -2.4048  -2.3659  -2.3300  -2.2821

          k = 0.2996 0.1730-0.6221 (  6262 PWs)   bands (ev):

   -20.6216 -20.6195 -20.4499 -20.4337 -20.3241 -20.3192 -20.0485 -20.0382
   -19.8670 -19.8631 -19.7547 -19.7345  -8.1295  -8.0710  -7.9861  -7.9643
    -7.8524  -7.7902  -7.3902  -7.2648  -7.2235  -7.1196  -6.8960  -6.8954
    -6.4949  -6.3541  -6.0458  -5.8867  -5.3979  -5.3155  -5.1146  -4.9564
    -4.4205  -4.2997  -4.0388  -3.8096  -3.0294  -2.8697  -2.7539  -2.7249
    -2.6515  -2.6301  -2.5394  -2.4789  -2.4606  -2.3274  -2.3159  -2.2360

          k =-0.1498 0.0865 0.6221 (  6280 PWs)   bands (ev):

   -20.6631 -20.5259 -20.5159 -20.3960 -20.3738 -20.3078 -20.0542 -19.9724
   -19.9371 -19.8191 -19.8005 -19.7087  -8.1374  -8.0484  -8.0293  -7.9219
    -7.8700  -7.7760  -7.3951  -7.3030  -7.2500  -7.0144  -6.9460  -6.8912
    -6.5003  -6.2864  -6.1878  -5.7163  -5.5421  -5.3581  -5.0382  -4.8309
    -4.6265  -4.1278  -4.1027  -3.8239  -3.0062  -2.9137  -2.7422  -2.6948
    -2.6607  -2.6107  -2.5664  -2.4809  -2.4493  -2.3370  -2.3200  -2.2299

          k = 0.2996 0.3460-0.3111 (  6276 PWs)   bands (ev):

   -20.7166 -20.5593 -20.4504 -20.4275 -20.3437 -20.2746 -20.0579 -19.9559
   -19.9459 -19.8566 -19.7951 -19.6832  -8.1449  -8.1188  -7.9655  -7.9426
    -7.8820  -7.7856  -7.4280  -7.3655  -7.2387  -6.9820  -6.9502  -6.8789
    -6.6277  -6.3220  -6.0816  -5.7382  -5.6969  -5.1907  -5.0054  -4.7421
    -4.5136  -4.2853  -4.0831  -3.7972  -2.9158  -2.8453  -2.7588  -2.6870
    -2.6330  -2.5800  -2.5188  -2.5094  -2.4237  -2.3832  -2.3223  -2.2171

          k = 0.1498 0.2595 0.0000 (  6276 PWs)   bands (ev):

   -20.8348 -20.5026 -20.4465 -20.3146 -20.2865 -20.2045 -20.1257 -20.0529
   -20.0127 -19.8643 -19.8282 -19.5859  -8.1929  -8.0875  -7.9878  -7.9420
    -7.8227  -7.8164  -7.5009  -7.3576  -7.1690  -7.0779  -7.0097  -6.8973
    -6.8730  -6.1066  -5.9733  -5.7135  -5.6009  -5.1357  -5.0016  -4.8763
    -4.6909  -4.2417  -4.1498  -3.5977  -2.8055  -2.7847  -2.7407  -2.6530
    -2.6133  -2.5862  -2.4680  -2.4525  -2.4177  -2.4087  -2.3036  -2.2890

          k = 0.2996-0.1730-1.2442 (  6266 PWs)   bands (ev):

   -20.7056 -20.6678 -20.4616 -20.3646 -20.2863 -20.2279 -20.0702 -20.0346
   -19.9206 -19.8990 -19.7184 -19.7020  -8.1724  -8.1334  -7.9984  -7.9625
    -7.7971  -7.7916  -7.4981  -7.4271  -7.1520  -7.1027  -6.9199  -6.8741
    -6.5589  -6.5166  -6.0454  -5.8239  -5.5081  -5.2571  -4.8760  -4.6210
    -4.5118  -4.4466  -3.9989  -3.8104  -2.8222  -2.7714  -2.7536  -2.6872
    -2.6157  -2.5557  -2.5358  -2.4612  -2.4514  -2.4043  -2.2681  -2.2541

          k = 0.0000 0.0000 0.9332 (  6226 PWs)   bands (ev):

   -20.6084 -20.6084 -20.5282 -20.4830 -20.3037 -20.3037 -19.9821 -19.9821
   -19.8599 -19.8201 -19.7932 -19.7932  -8.1203  -8.1203  -7.9813  -7.8806
    -7.8806  -7.8715  -7.4366  -7.3334  -7.3334  -6.8877  -6.8877  -6.8493
    -6.4232  -6.4224  -6.4224  -5.7630  -5.4524  -5.4524  -4.7913  -4.6060
    -4.6060  -4.1489  -4.1489  -3.9801  -2.8579  -2.8579  -2.7336  -2.6721
    -2.6045  -2.6045  -2.5466  -2.4828  -2.4828  -2.3687  -2.3687  -2.1929

          k = 0.4494 0.2595 0.0000 (  6278 PWs)   bands (ev):

   -20.7353 -20.5679 -20.5616 -20.3663 -20.2311 -20.2201 -20.0852 -20.0779
   -19.9214 -19.8269 -19.7926 -19.6724  -8.1663  -8.1229  -8.0542  -7.8987
    -7.8389  -7.7747  -7.5153  -7.3766  -7.2463  -6.9972  -6.9441  -6.8964
    -6.6647  -6.2854  -6.2076  -5.7764  -5.5213  -5.2522  -4.8008  -4.7615
    -4.5554  -4.2525  -4.1123  -3.7834  -2.8038  -2.7962  -2.7415  -2.6920
    -2.6311  -2.5714  -2.5018  -2.4786  -2.4260  -2.3811  -2.3207  -2.2352

          k = 0.2996 0.1730 0.3111 (  6283 PWs)   bands (ev):

   -20.7639 -20.5140 -20.4243 -20.4117 -20.3232 -20.2651 -20.0723 -20.0428
   -19.9707 -19.8481 -19.7939 -19.6364  -8.1647  -8.1060  -8.0220  -7.8925
    -7.8868  -7.7346  -7.4640  -7.3333  -7.1514  -7.0770  -7.0300  -6.9300
    -6.6547  -6.1278  -5.9534  -5.8685  -5.6392  -5.2867  -4.9897  -4.7887
    -4.6313  -4.2286  -4.0922  -3.6821  -2.9343  -2.8582  -2.7812  -2.7270
    -2.6281  -2.5866  -2.5098  -2.4766  -2.3920  -2.3511  -2.2917  -2.2750

          k = 0.4494-0.2595-0.9332 (  6282 PWs)   bands (ev):

   -20.6334 -20.6309 -20.4929 -20.4374 -20.3109 -20.2348 -20.1115 -20.0274
   -19.8836 -19.8296 -19.7783 -19.6950  -8.1937  -8.0932  -8.0524  -7.8992
    -7.8521  -7.7152  -7.5099  -7.2916  -7.1704  -7.1138  -6.9662  -6.9359
    -6.3912  -6.3533  -6.0297  -5.8803  -5.6921  -5.3757  -4.9471  -4.6652
    -4.3603  -4.3213  -4.1345  -3.7524  -2.9331  -2.8782  -2.8404  -2.7273
    -2.6916  -2.6025  -2.4588  -2.4367  -2.4047  -2.3642  -2.2937  -2.2390

          k = 0.2996-0.3460-0.6221 (  6280 PWs)   bands (ev):

   -20.5884 -20.5821 -20.4813 -20.4704 -20.3429 -20.3410 -20.0313 -20.0238
   -19.8717 -19.8637 -19.7489 -19.7280  -8.2075  -8.0067  -7.9763  -7.9571
    -7.9211  -7.7188  -7.4222  -7.3015  -7.1478  -7.1012  -6.9445  -6.9392
    -6.3556  -6.2279  -6.0646  -5.9377  -5.6141  -5.5781  -4.8651  -4.7926
    -4.3675  -4.3246  -4.1427  -3.7360  -3.0601  -2.8929  -2.8379  -2.7671
    -2.7115  -2.5723  -2.5041  -2.4644  -2.4412  -2.3177  -2.3003  -2.2204

          k = 0.0000 0.0000-1.8663 (  6308 PWs)   bands (ev):

   -20.5565 -20.5376 -20.4441 -20.4441 -20.4424 -20.4424 -19.9565 -19.9565
   -19.9218 -19.9218 -19.7335 -19.7160  -8.2557  -7.9692  -7.9692  -7.9484
    -7.9484  -7.6878  -7.4726  -7.2989  -7.0514  -7.0514  -7.0200  -7.0200
    -6.1789  -5.9998  -5.9424  -5.9424  -5.9372  -5.9372  -4.6442  -4.6442
    -4.4063  -4.4063  -4.1604  -3.6857  -3.0916  -2.8957  -2.8957  -2.8052
    -2.8052  -2.5167  -2.4994  -2.3999  -2.3999  -2.3311  -2.3311  -2.1950

          k = 0.2996-0.3460 0.3111 (  6276 PWs)   bands (ev):

   -20.7165 -20.5582 -20.4577 -20.4225 -20.3407 -20.2753 -20.0591 -19.9702
   -19.9251 -19.8682 -19.7878 -19.6851  -8.1602  -8.0857  -8.0024  -7.9373
    -7.8547  -7.7925  -7.4758  -7.3340  -7.2140  -7.0206  -6.9139  -6.8999
    -6.6199  -6.2542  -6.1766  -5.7885  -5.5513  -5.2537  -5.0863  -4.6515
    -4.4913  -4.2729  -4.1540  -3.7750  -2.9238  -2.8164  -2.7751  -2.6840
    -2.6388  -2.5855  -2.5201  -2.5091  -2.4414  -2.3519  -2.3231  -2.2256

     highest occupied level (ev):    -2.1929

!    total energy              =    -413.70275875 Ry
     estimated scf accuracy    <       0.00000005 Ry

     The total energy is the sum of the following terms:
     one-electron contribution =    -290.72974648 Ry
     hartree contribution      =     179.78888182 Ry
     xc contribution           =    -101.21730192 Ry
     ewald contribution        =    -201.54459216 Ry

     convergence has been achieved in  12 iterations

     Forces acting on atoms (cartesian axes, Ry/au):

     atom    1 type  2   force =    -0.03431873    0.06345003    0.03038023
     atom    2 type  2   force =     0.03431873   -0.06345003   -0.03038023
     atom    3 type  2   force =    -0.03778997   -0.06144590    0.03038023
     atom    4 type  2   force =     0.03778997    0.06144590   -0.03038023
     atom    5 type  2   force =     0.07210870   -0.00200413    0.03038023
     atom    6 type  2   force =    -0.07210870    0.00200413   -0.03038023
     atom    7 type  2   force =    -0.03049164    0.02371753   -0.02129012
     atom    8 type  2   force =     0.03049164   -0.02371753    0.02129012
     atom    9 type  2   force =    -0.00529417   -0.03826530   -0.02129012
     atom   10 type  2   force =     0.00529417    0.03826530    0.02129012
     atom   11 type  2   force =     0.03578581    0.01454776   -0.02129012
     atom   12 type  2   force =    -0.03578581   -0.01454776    0.02129012
     atom   13 type  1   force =     0.00309792   -0.02574369   -0.05130680
     atom   14 type  1   force =    -0.00309792    0.02574369    0.05130680
     atom   15 type  1   force =     0.02074573    0.01555472   -0.05130680
     atom   16 type  1   force =    -0.02074573   -0.01555472    0.05130680
     atom   17 type  1   force =    -0.02384364    0.01018897   -0.05130680
     atom   18 type  1   force =     0.02384364   -0.01018897    0.05130680
     atom   19 type  1   force =     0.02973019   -0.04458977    0.01040271
     atom   20 type  1   force =    -0.02973019    0.04458977   -0.01040271
     atom   21 type  1   force =     0.02375078    0.04804199    0.01040271
     atom   22 type  1   force =    -0.02375078   -0.04804199   -0.01040271
     atom   23 type  1   force =    -0.05348097   -0.00345221    0.01040271
     atom   24 type  1   force =     0.05348097    0.00345221   -0.01040271
     atom   25 type  1   force =    -0.01355640   -0.00214391    0.01256957
     atom   26 type  1   force =     0.01355640    0.00214391   -0.01256957
     atom   27 type  1   force =     0.00863488   -0.01066823    0.01256957
     atom   28 type  1   force =    -0.00863488    0.01066823   -0.01256957
     atom   29 type  1   force =     0.00492152    0.01281215    0.01256957
     atom   30 type  1   force =    -0.00492152   -0.01281215   -0.01256957
     atom   31 type  1   force =    -0.02848324   -0.00948757    0.01608983
     atom   32 type  1   force =     0.02848324    0.00948757   -0.01608983
     atom   33 type  1   force =     0.02245810   -0.01992343    0.01608983
     atom   34 type  1   force =    -0.02245810    0.01992343   -0.01608983
     atom   35 type  1   force =     0.00602515    0.02941099    0.01608983
     atom   36 type  1   force =    -0.00602515   -0.02941099   -0.01608983

     Total force =     0.308517     Total SCF correction =     0.000297


     Computing stress (Cartesian axis) and pressure

          total   stress  (Ry/bohr**3)                   (kbar)     P=      -20.47
  -0.00021650   0.00000000   0.00000000          -31.85        0.00        0.00
  -0.00000000  -0.00021650  -0.00000000           -0.00      -31.85       -0.00
  -0.00000000  -0.00000000   0.00001556           -0.00       -0.00        2.29


     Writing all to output data dir ./iceII_2/iceII_2.save/ :
     XML data file, charge density, pseudopotentials, collected wavefunctions

     init_run     :      0.36s CPU      0.39s WALL (       1 calls)
     electrons    :      2.47s CPU      2.56s WALL (       1 calls)
     forces       :      0.03s CPU      0.05s WALL (       1 calls)
     stress       :      0.19s CPU      0.20s WALL (       1 calls)

     Called by init_run:
     wfcinit      :      0.08s CPU      0.09s WALL (       1 calls)
     potinit      :      0.02s CPU      0.03s WALL (       1 calls)
     hinit0       :      0.22s CPU      0.22s WALL (       1 calls)

     Called by electrons:
     c_bands      :      2.04s CPU      2.07s WALL (      12 calls)
     sum_band     :      0.27s CPU      0.30s WALL (      12 calls)
     v_of_rho     :      0.11s CPU      0.12s WALL (      13 calls)
     newd         :      0.02s CPU      0.03s WALL (      13 calls)
     mix_rho      :      0.02s CPU      0.02s WALL (      12 calls)

     Called by c_bands:
     init_us_2    :      0.02s CPU      0.03s WALL (      54 calls)
     cegterg      :      1.96s CPU      1.97s WALL (      24 calls)

     Called by *egterg:
     cdiaghg      :      0.29s CPU      0.30s WALL (      81 calls)
     h_psi        :      1.45s CPU      1.46s WALL (      83 calls)
     s_psi        :      0.06s CPU      0.06s WALL (      83 calls)
     g_psi        :      0.00s CPU      0.00s WALL (      57 calls)

     Called by h_psi:
     h_psi:calbec :      0.09s CPU      0.09s WALL (      83 calls)
     vloc_psi     :      1.28s CPU      1.29s WALL (      83 calls)
     add_vuspsi   :      0.06s CPU      0.06s WALL (      83 calls)

     General routines
     calbec       :      0.12s CPU      0.13s WALL (     117 calls)
     fft          :      0.25s CPU      0.26s WALL (     151 calls)
     ffts         :      0.00s CPU      0.00s WALL (      12 calls)
     fftw         :      1.36s CPU      1.38s WALL (    7888 calls)

     Parallel routines

     PWSCF        :      3.28s CPU      3.54s WALL


   This run was terminated on:  21:35:46  18Mar2026            

=------------------------------------------------------------------------------=
   JOB DONE.
=------------------------------------------------------------------------------=
