
     Program PWSCF v.7.3.1 starts on 18Mar2026 at 21:35:54 

     This program is part of the open-source Quantum ESPRESSO suite
     for quantum simulation of materials; please cite
         "P. Giannozzi et al., J. Phys.:Condens. Matter 21 395502 (2009);
         "P. Giannozzi et al., J. Phys.:Condens. Matter 29 465901 (2017);
         "P. Giannozzi et al., J. Chem. Phys. 152 154105 (2020);
          URL http://www.quantum-espresso.org", 
     in publications or presentations arising from this work. More details at
     http://www.quantum-espresso.org/quote

     Parallel version (MPI), running on   128 processors

     MPI processes distributed on     1 nodes
     243288 MiB available memory on the printing compute node when the environment starts

     Waiting for input...
     Reading input from standard input

     Current dimensions of program PWSCF are:
     Max number of different atomic species (ntypx) = 10
     Max number of k-points (npk) =  40000
     Max angular momentum in pseudopotentials (lmaxx) =  4

     K-points division:     npool     =       8
     R & G space division:  proc/nbgrp/npool/nimage =      16
     Subspace diagonalization in iterative solution of the eigenvalue problem:
     a serial algorithm will be used


     Parallelization info
     --------------------
     sticks:   dense  smooth     PW     G-vecs:    dense   smooth      PW
     Min         141     141     45                 3736     3736     679
     Max         142     142     46                 3738     3738     682
     Sum        2261    2261    723                59793    59793   10875

     Using Slab Decomposition



     bravais-lattice index     =            5
     lattice parameter (alat)  =      14.7021  a.u.
     unit-cell volume          =    2053.1832 (a.u.)^3
     number of atoms/cell      =           36
     number of atomic types    =            2
     number of electrons       =        96.00
     number of Kohn-Sham states=           48
     kinetic-energy cutoff     =      36.0000  Ry
     charge density cutoff     =     144.0000  Ry
     scf convergence threshold =      1.0E-07
     mixing beta               =       0.7000
     number of iterations used =            8  plain     mixing
     Exchange-correlation=  SLA  PW   PBE  PBE
                           (   1   4   3   4   0   0   0)

     celldm(1)=  14.702068  celldm(2)=   0.000000  celldm(3)=   0.000000
     celldm(4)=  -0.392337  celldm(5)=   0.000000  celldm(6)=   0.000000

     crystal axes: (cart. coord. in units of alat)
               a(1) = (   0.834367  -0.481722   0.267909 )  
               a(2) = (   0.000000   0.963444   0.267909 )  
               a(3) = (  -0.834367  -0.481722   0.267909 )  

     reciprocal axes: (cart. coord. in units 2 pi/alat)
               b(1) = (  0.599257 -0.345981  1.244203 )  
               b(2) = ( -0.000000  0.691962  1.244203 )  
               b(3) = ( -0.599257 -0.345981  1.244203 )  


     PseudoPot. # 1 for H  read from file:
     ./H.pbe-van_ak.UPF
     MD5 check sum: 077eb6d537518a38cb46c6de387227b7
     Pseudo is Ultrasoft, Zval =  1.0
     Generated by new atomic code, or converted to UPF format
     Using radial grid of  615 points,  1 beta functions with: 
                l(1) =   0
     Q(r) pseudized with  8 coefficients,  rinner =    0.800

     PseudoPot. # 2 for O  read from file:
     ./O.pbe-van_ak.UPF
     MD5 check sum: 78c19812648e8988a0fe644b0f25305e
     Pseudo is Ultrasoft, Zval =  6.0
     Generated by new atomic code, or converted to UPF format
     Using radial grid of  737 points,  4 beta functions with: 
                l(1) =   0
                l(2) =   0
                l(3) =   1
                l(4) =   1
     Q(r) pseudized with  8 coefficients,  rinner =    0.800   0.800   0.800


     atomic species   valence    mass     pseudopotential
     H                 1.00     1.00800     H ( 1.00)
     O                 6.00    16.00000     O ( 1.00)

      6 Sym. Ops., with inversion, found



   Cartesian axes

     site n.     atom                  positions (alat units)
         1        O      tau(   1) = (  -0.4847673  -0.5197781   0.3083633  )
         2        O      tau(   2) = (   0.4847673   0.5197782   0.4953638  )
         3        O      tau(   3) = (   0.6925247  -0.1599317   0.3083633  )
         4        O      tau(   4) = (  -0.6925248   0.1599317   0.4953638  )
         5        O      tau(   5) = (  -0.2077574   0.6797099   0.3083633  )
         6        O      tau(   6) = (   0.2077574  -0.6797099   0.4953638  )
         7        O      tau(   7) = (   0.1218176   0.3323883   0.4179381  )
         8        O      tau(   8) = (  -0.1218176  -0.3323883   0.3857890  )
         9        O      tau(   9) = (  -0.3487655  -0.0606970   0.4179381  )
        10        O      tau(  10) = (   0.3487655   0.0606970   0.3857890  )
        11        O      tau(  11) = (   0.2269479  -0.2716913   0.4179381  )
        12        O      tau(  12) = (  -0.2269479   0.2716912   0.3857890  )
        13        H      tau(  13) = (  -0.5381668  -0.4032014   0.2796970  )
        14        H      tau(  14) = (   0.5381668   0.4032014   0.5240301  )
        15        H      tau(  15) = (   0.6182661  -0.2644654   0.2796970  )
        16        H      tau(  16) = (  -0.6182661   0.2644654   0.5240301  )
        17        H      tau(  17) = (  -0.0800993   0.6676668   0.2796970  )
        18        H      tau(  18) = (   0.0800993  -0.6676668   0.5240301  )
        19        H      tau(  19) = (  -0.4872704  -0.4817221   0.4326731  )
        20        H      tau(  20) = (   0.4872704   0.4817221   0.3710540  )
        21        H      tau(  21) = (   0.6608188  -0.1811275   0.4326731  )
        22        H      tau(  22) = (  -0.6608188   0.1811275   0.3710540  )
        23        H      tau(  23) = (  -0.1735484   0.6628496   0.4326731  )
        24        H      tau(  24) = (   0.1735484  -0.6628496   0.3710540  )
        25        H      tau(  25) = (   0.2703349  -0.1502973   0.4058822  )
        26        H      tau(  26) = (  -0.2703350   0.1502973   0.3978449  )
        27        H      tau(  27) = (  -0.0050062   0.3092656   0.4058822  )
        28        H      tau(  28) = (   0.0050062  -0.3092656   0.3978449  )
        29        H      tau(  29) = (  -0.2653287  -0.1589683   0.4058822  )
        30        H      tau(  30) = (   0.2653287   0.1589683   0.3978449  )
        31        H      tau(  31) = (   0.3178939  -0.3347969   0.3493534  )
        32        H      tau(  32) = (  -0.3178939   0.3347969   0.4543737  )
        33        H      tau(  33) = (   0.1309957   0.4427026   0.3493534  )
        34        H      tau(  34) = (  -0.1309956  -0.4427026   0.4543737  )
        35        H      tau(  35) = (  -0.4488895  -0.1079057   0.3493534  )
        36        H      tau(  36) = (   0.4488895   0.1079057   0.4543737  )

     number of k points=    14
                       cart. coord. in units 2pi/alat
        k(    1) = (   0.0000000   0.0000000   0.0000000), wk =   0.0312500
        k(    2) = (  -0.1498141  -0.0864952   0.3110508), wk =   0.1875000
        k(    3) = (   0.2996283   0.1729905  -0.6221017), wk =   0.0937500
        k(    4) = (  -0.1498141   0.0864952   0.6221017), wk =   0.1875000
        k(    5) = (   0.2996283   0.3459809  -0.3110508), wk =   0.1875000
        k(    6) = (   0.1498141   0.2594857   0.0000000), wk =   0.1875000
        k(    7) = (   0.2996283  -0.1729905  -1.2442034), wk =   0.0937500
        k(    8) = (   0.0000000   0.0000000   0.9331525), wk =   0.0625000
        k(    9) = (   0.4494424   0.2594857   0.0000000), wk =   0.1875000
        k(   10) = (   0.2996283   0.1729905   0.3110508), wk =   0.1875000
        k(   11) = (   0.4494424  -0.2594857  -0.9331525), wk =   0.1875000
        k(   12) = (   0.2996283  -0.3459809  -0.6221017), wk =   0.1875000
        k(   13) = (   0.0000000   0.0000000  -1.8663050), wk =   0.0312500
        k(   14) = (   0.2996283  -0.3459809   0.3110508), wk =   0.1875000

     Dense  grid:    59793 G-vectors     FFT dimensions: (  60,  60,  60)

     Estimated max dynamical RAM per process >       7.66 MB

     Estimated total dynamical RAM >     878.26 MB

     Initial potential from superposition of free atoms

     starting charge      95.9998, renormalised to      96.0000
     Starting wfcs are   72 randomized atomic wfcs

     total cpu time spent up to now is        0.8 secs

     per-process dynamical memory:    11.7 Mb

     Self-consistent Calculation

     iteration #  1     ecut=    36.00 Ry     beta= 0.70
     Davidson diagonalization with overlap
     ethr =  1.00E-02,  avg # of iterations =  2.0

     total cpu time spent up to now is        1.1 secs

     total energy              =    -412.17043313 Ry
     estimated scf accuracy    <       3.69345811 Ry

     iteration #  2     ecut=    36.00 Ry     beta= 0.70
     Davidson diagonalization with overlap
     ethr =  3.85E-03,  avg # of iterations =  3.0

     total cpu time spent up to now is        1.4 secs

     total energy              =    -413.34487676 Ry
     estimated scf accuracy    <       2.33610173 Ry

     iteration #  3     ecut=    36.00 Ry     beta= 0.70
     Davidson diagonalization with overlap
     ethr =  2.43E-03,  avg # of iterations =  2.0

     total cpu time spent up to now is        1.6 secs

     total energy              =    -413.63541142 Ry
     estimated scf accuracy    <       0.09184876 Ry

     iteration #  4     ecut=    36.00 Ry     beta= 0.70
     Davidson diagonalization with overlap
     ethr =  9.57E-05,  avg # of iterations =  4.6

     total cpu time spent up to now is        1.9 secs

     total energy              =    -413.70727531 Ry
     estimated scf accuracy    <       0.12871583 Ry

     iteration #  5     ecut=    36.00 Ry     beta= 0.70
     Davidson diagonalization with overlap
     ethr =  9.57E-05,  avg # of iterations =  2.0

     total cpu time spent up to now is        2.2 secs

     total energy              =    -413.71290057 Ry
     estimated scf accuracy    <       0.02096114 Ry

     iteration #  6     ecut=    36.00 Ry     beta= 0.70
     Davidson diagonalization with overlap
     ethr =  2.18E-05,  avg # of iterations =  2.0

     total cpu time spent up to now is        2.4 secs

     total energy              =    -413.71323094 Ry
     estimated scf accuracy    <       0.00540173 Ry

     iteration #  7     ecut=    36.00 Ry     beta= 0.70
     Davidson diagonalization with overlap
     ethr =  5.63E-06,  avg # of iterations =  2.4

     total cpu time spent up to now is        2.6 secs

     total energy              =    -413.71435224 Ry
     estimated scf accuracy    <       0.00016673 Ry

     iteration #  8     ecut=    36.00 Ry     beta= 0.70
     Davidson diagonalization with overlap
     ethr =  1.74E-07,  avg # of iterations =  4.6

     total cpu time spent up to now is        2.9 secs

     total energy              =    -413.71451504 Ry
     estimated scf accuracy    <       0.00021402 Ry

     iteration #  9     ecut=    36.00 Ry     beta= 0.70
     Davidson diagonalization with overlap
     ethr =  1.74E-07,  avg # of iterations =  2.0

     total cpu time spent up to now is        3.1 secs

     total energy              =    -413.71450574 Ry
     estimated scf accuracy    <       0.00005591 Ry

     iteration # 10     ecut=    36.00 Ry     beta= 0.70
     Davidson diagonalization with overlap
     ethr =  5.82E-08,  avg # of iterations =  2.0

     total cpu time spent up to now is        3.4 secs

     total energy              =    -413.71451562 Ry
     estimated scf accuracy    <       0.00000244 Ry

     iteration # 11     ecut=    36.00 Ry     beta= 0.70
     Davidson diagonalization with overlap
     ethr =  2.54E-09,  avg # of iterations =  3.9

     total cpu time spent up to now is        3.6 secs

     total energy              =    -413.71451587 Ry
     estimated scf accuracy    <       0.00000052 Ry

     iteration # 12     ecut=    36.00 Ry     beta= 0.70
     Davidson diagonalization with overlap
     ethr =  5.45E-10,  avg # of iterations =  2.8

     total cpu time spent up to now is        3.9 secs

     End of self-consistent calculation

          k = 0.0000 0.0000 0.0000 (  7465 PWs)   bands (ev):

   -20.8867 -20.4252 -20.4252 -20.2008 -20.2008 -20.1736 -20.1736 -20.1573
   -20.1548 -19.8509 -19.8509 -19.5358  -8.2086  -8.0084  -7.9506  -7.9506
    -7.8653  -7.8653  -7.4475  -7.2915  -7.2915  -7.0741  -7.0741  -6.9403
    -6.8752  -5.9763  -5.9763  -5.3856  -5.3856  -5.3072  -5.3072  -5.0066
    -4.8184  -4.1725  -4.1725  -3.5063  -2.8048  -2.8048  -2.7025  -2.6247
    -2.5755  -2.5755  -2.4345  -2.4345  -2.4135  -2.3937  -2.3457  -2.3457

          k =-0.1498-0.0865 0.3111 (  7486 PWs)   bands (ev):

   -20.8123 -20.4662 -20.4130 -20.3461 -20.3221 -20.2475 -20.1026 -20.0594
   -20.0044 -19.8575 -19.8154 -19.5962  -8.1534  -8.0745  -7.9965  -7.9488
    -7.8476  -7.7854  -7.4444  -7.2617  -7.2476  -7.1091  -6.9800  -6.9439
    -6.7393  -6.1238  -5.9923  -5.7219  -5.3984  -5.2602  -5.1195  -4.8935
    -4.8378  -4.1629  -4.1014  -3.6400  -2.9230  -2.8495  -2.7279  -2.6704
    -2.6128  -2.5764  -2.5345  -2.4709  -2.4059  -2.3669  -2.3311  -2.2832

          k = 0.2996 0.1730-0.6221 (  7456 PWs)   bands (ev):

   -20.6195 -20.6176 -20.4477 -20.4318 -20.3220 -20.3173 -20.0464 -20.0363
   -19.8648 -19.8612 -19.7525 -19.7325  -8.1292  -8.0707  -7.9859  -7.9640
    -7.8521  -7.7901  -7.3898  -7.2645  -7.2233  -7.1191  -6.8958  -6.8952
    -6.4948  -6.3543  -6.0460  -5.8869  -5.3982  -5.3159  -5.1149  -4.9565
    -4.4211  -4.3002  -4.0393  -3.8103  -3.0299  -2.8702  -2.7547  -2.7252
    -2.6518  -2.6302  -2.5401  -2.4800  -2.4614  -2.3284  -2.3168  -2.2368

          k =-0.1498 0.0865 0.6221 (  7492 PWs)   bands (ev):

   -20.6612 -20.5238 -20.5138 -20.3939 -20.3718 -20.3057 -20.0522 -19.9703
   -19.9351 -19.8170 -19.7984 -19.7067  -8.1372  -8.0483  -8.0290  -7.9217
    -7.8699  -7.7759  -7.3950  -7.3026  -7.2497  -7.0141  -6.9458  -6.8910
    -6.5002  -6.2867  -6.1881  -5.7166  -5.5424  -5.3586  -5.0385  -4.8313
    -4.6271  -4.1285  -4.1034  -3.8246  -3.0067  -2.9143  -2.7431  -2.6949
    -2.6610  -2.6114  -2.5672  -2.4816  -2.4503  -2.3381  -2.3210  -2.2308

          k = 0.2996 0.3460-0.3111 (  7481 PWs)   bands (ev):

   -20.7146 -20.5572 -20.4486 -20.4254 -20.3417 -20.2725 -20.0558 -19.9537
   -19.9438 -19.8547 -19.7930 -19.6812  -8.1447  -8.1185  -7.9653  -7.9424
    -7.8818  -7.7855  -7.4277  -7.3652  -7.2384  -6.9818  -6.9500  -6.8786
    -6.6277  -6.3221  -6.0817  -5.7386  -5.6972  -5.1911  -5.0056  -4.7426
    -4.5143  -4.2858  -4.0837  -3.7979  -2.9164  -2.8460  -2.7593  -2.6871
    -2.6336  -2.5807  -2.5196  -2.5101  -2.4247  -2.3844  -2.3233  -2.2182

          k = 0.1498 0.2595 0.0000 (  7495 PWs)   bands (ev):

   -20.8329 -20.5006 -20.4445 -20.3126 -20.2845 -20.2025 -20.1237 -20.0508
   -20.0106 -19.8622 -19.8261 -19.5839  -8.1926  -8.0874  -7.9877  -7.9419
    -7.8226  -7.8163  -7.5007  -7.3573  -7.1688  -7.0776  -7.0096  -6.8973
    -6.8725  -6.1068  -5.9736  -5.7140  -5.6013  -5.1361  -5.0022  -4.8768
    -4.6916  -4.2422  -4.1504  -3.5985  -2.8063  -2.7856  -2.7412  -2.6533
    -2.6139  -2.5868  -2.4690  -2.4533  -2.4185  -2.4099  -2.3048  -2.2902

          k = 0.2996-0.1730-1.2442 (  7478 PWs)   bands (ev):

   -20.7036 -20.6658 -20.4596 -20.3627 -20.2843 -20.2259 -20.0681 -20.0325
   -19.9184 -19.8970 -19.7164 -19.7000  -8.1723  -8.1332  -7.9983  -7.9625
    -7.7969  -7.7914  -7.4977  -7.4267  -7.1517  -7.1023  -6.9197  -6.8738
    -6.5590  -6.5168  -6.0457  -5.8243  -5.5085  -5.2575  -4.8764  -4.6215
    -4.5123  -4.4473  -3.9996  -3.8110  -2.8228  -2.7720  -2.7544  -2.6872
    -2.6161  -2.5563  -2.5364  -2.4621  -2.4523  -2.4056  -2.2692  -2.2552

          k = 0.0000 0.0000 0.9332 (  7463 PWs)   bands (ev):

   -20.6064 -20.6064 -20.5263 -20.4811 -20.3016 -20.3016 -19.9801 -19.9801
   -19.8576 -19.8183 -19.7912 -19.7912  -8.1201  -8.1201  -7.9810  -7.8805
    -7.8805  -7.8714  -7.4362  -7.3331  -7.3331  -6.8875  -6.8875  -6.8491
    -6.4231  -6.4227  -6.4227  -5.7634  -5.4528  -5.4528  -4.7915  -4.6065
    -4.6065  -4.1495  -4.1495  -3.9807  -2.8585  -2.8585  -2.7334  -2.6729
    -2.6050  -2.6050  -2.5470  -2.4837  -2.4837  -2.3697  -2.3697  -2.1939

          k = 0.4494 0.2595 0.0000 (  7498 PWs)   bands (ev):

   -20.7333 -20.5660 -20.5597 -20.3643 -20.2290 -20.2181 -20.0830 -20.0759
   -19.9192 -19.8248 -19.7906 -19.6704  -8.1661  -8.1228  -8.0540  -7.8987
    -7.8389  -7.7746  -7.5149  -7.3763  -7.2460  -6.9970  -6.9439  -6.8961
    -6.6648  -6.2855  -6.2080  -5.7767  -5.5216  -5.2525  -4.8014  -4.7620
    -4.5559  -4.2532  -4.1129  -3.7841  -2.8045  -2.7970  -2.7423  -2.6919
    -2.6318  -2.5721  -2.5026  -2.4795  -2.4270  -2.3822  -2.3220  -2.2362

          k = 0.2996 0.1730 0.3111 (  7491 PWs)   bands (ev):

   -20.7620 -20.5119 -20.4223 -20.4097 -20.3212 -20.2631 -20.0702 -20.0407
   -19.9688 -19.8460 -19.7918 -19.6344  -8.1644  -8.1059  -8.0219  -7.8924
    -7.8867  -7.7345  -7.4637  -7.3331  -7.1510  -7.0767  -7.0298  -6.9298
    -6.6546  -6.1281  -5.9536  -5.8688  -5.6395  -5.2870  -4.9902  -4.7892
    -4.6319  -4.2291  -4.0929  -3.6829  -2.9349  -2.8589  -2.7817  -2.7275
    -2.6285  -2.5871  -2.5104  -2.4776  -2.3932  -2.3521  -2.2927  -2.2759

          k = 0.4494-0.2595-0.9332 (  7488 PWs)   bands (ev):

   -20.6314 -20.6289 -20.4908 -20.4354 -20.3089 -20.2327 -20.1095 -20.0254
   -19.8816 -19.8275 -19.7762 -19.6929  -8.1934  -8.0930  -8.0522  -7.8991
    -7.8520  -7.7150  -7.5094  -7.2913  -7.1700  -7.1136  -6.9660  -6.9356
    -6.3912  -6.3535  -6.0299  -5.8805  -5.6924  -5.3759  -4.9476  -4.6658
    -4.3610  -4.3219  -4.1352  -3.7530  -2.9336  -2.8787  -2.8410  -2.7278
    -2.6921  -2.6027  -2.4596  -2.4374  -2.4060  -2.3652  -2.2949  -2.2398

          k = 0.2996-0.3460-0.6221 (  7490 PWs)   bands (ev):

   -20.5862 -20.5803 -20.4791 -20.4684 -20.3408 -20.3390 -20.0292 -20.0218
   -19.8697 -19.8618 -19.7467 -19.7260  -8.2072  -8.0065  -7.9762  -7.9570
    -7.9210  -7.7186  -7.4220  -7.3009  -7.1476  -7.1009  -6.9443  -6.9389
    -6.3557  -6.2281  -6.0649  -5.9379  -5.6142  -5.5784  -4.8656  -4.7931
    -4.3682  -4.3252  -4.1432  -3.7367  -3.0604  -2.8935  -2.8386  -2.7675
    -2.7120  -2.5729  -2.5046  -2.4654  -2.4422  -2.3187  -2.3013  -2.2213

          k = 0.0000 0.0000-1.8663 (  7526 PWs)   bands (ev):

   -20.5542 -20.5358 -20.4422 -20.4422 -20.4402 -20.4402 -19.9542 -19.9542
   -19.9200 -19.9200 -19.7312 -19.7140  -8.2555  -7.9692  -7.9692  -7.9485
    -7.9485  -7.6875  -7.4723  -7.2983  -7.0512  -7.0512  -7.0197  -7.0197
    -6.1791  -5.9998  -5.9426  -5.9426  -5.9375  -5.9375  -4.6449  -4.6449
    -4.4070  -4.4070  -4.1611  -3.6863  -3.0917  -2.8964  -2.8964  -2.8057
    -2.8057  -2.5176  -2.4997  -2.4013  -2.4013  -2.3322  -2.3322  -2.1961

          k = 0.2996-0.3460 0.3111 (  7481 PWs)   bands (ev):

   -20.7146 -20.5562 -20.4556 -20.4206 -20.3386 -20.2732 -20.0570 -19.9680
   -19.9232 -19.8660 -19.7858 -19.6830  -8.1600  -8.0855  -8.0023  -7.9372
    -7.8546  -7.7923  -7.4754  -7.3338  -7.2136  -7.0204  -6.9137  -6.8997
    -6.6199  -6.2544  -6.1768  -5.7889  -5.5517  -5.2540  -5.0866  -4.6520
    -4.4918  -4.2734  -4.1546  -3.7757  -2.9244  -2.8169  -2.7757  -2.6843
    -2.6392  -2.5859  -2.5208  -2.5098  -2.4425  -2.3531  -2.3241  -2.2266

     highest occupied level (ev):    -2.1939

!    total energy              =    -413.71451602 Ry
     estimated scf accuracy    <          5.0E-09 Ry

     The total energy is the sum of the following terms:
     one-electron contribution =    -290.75086717 Ry
     hartree contribution      =     179.80291051 Ry
     xc contribution           =    -101.22196674 Ry
     ewald contribution        =    -201.54459263 Ry

     convergence has been achieved in  12 iterations

     Forces acting on atoms (cartesian axes, Ry/au):

     atom    1 type  2   force =    -0.03433703    0.06347908    0.03042286
     atom    2 type  2   force =     0.03433703   -0.06347908   -0.03042286
     atom    3 type  2   force =    -0.03780598   -0.06147629    0.03042286
     atom    4 type  2   force =     0.03780598    0.06147629   -0.03042286
     atom    5 type  2   force =     0.07214302   -0.00200280    0.03042286
     atom    6 type  2   force =    -0.07214302    0.00200280   -0.03042286
     atom    7 type  2   force =    -0.03050378    0.02378878   -0.02136460
     atom    8 type  2   force =     0.03050378   -0.02378878    0.02136460
     atom    9 type  2   force =    -0.00534980   -0.03831144   -0.02136460
     atom   10 type  2   force =     0.00534980    0.03831144    0.02136460
     atom   11 type  2   force =     0.03585358    0.01452265   -0.02136460
     atom   12 type  2   force =    -0.03585358   -0.01452265    0.02136460
     atom   13 type  1   force =     0.00314452   -0.02581353   -0.05127315
     atom   14 type  1   force =    -0.00314452    0.02581353    0.05127315
     atom   15 type  1   force =     0.02078291    0.01563000   -0.05127315
     atom   16 type  1   force =    -0.02078291   -0.01563000    0.05127315
     atom   17 type  1   force =    -0.02392743    0.01018353   -0.05127315
     atom   18 type  1   force =     0.02392743   -0.01018353    0.05127315
     atom   19 type  1   force =     0.02974271   -0.04461423    0.01029996
     atom   20 type  1   force =    -0.02974271    0.04461423   -0.01029996
     atom   21 type  1   force =     0.02376570    0.04806506    0.01029996
     atom   22 type  1   force =    -0.02376570   -0.04806506   -0.01029996
     atom   23 type  1   force =    -0.05350841   -0.00345083    0.01029996
     atom   24 type  1   force =     0.05350841    0.00345083   -0.01029996
     atom   25 type  1   force =    -0.01357938   -0.00228530    0.01257430
     atom   26 type  1   force =     0.01357938    0.00228530   -0.01257430
     atom   27 type  1   force =     0.00876882   -0.01061744    0.01257430
     atom   28 type  1   force =    -0.00876882    0.01061744   -0.01257430
     atom   29 type  1   force =     0.00481057    0.01290274    0.01257430
     atom   30 type  1   force =    -0.00481057   -0.01290274   -0.01257430
     atom   31 type  1   force =    -0.02856511   -0.00941786    0.01614138
     atom   32 type  1   force =     0.02856511    0.00941786   -0.01614138
     atom   33 type  1   force =     0.02243866   -0.02002918    0.01614138
     atom   34 type  1   force =    -0.02243866    0.02002918   -0.01614138
     atom   35 type  1   force =     0.00612645    0.02944704    0.01614138
     atom   36 type  1   force =    -0.00612645   -0.02944704   -0.01614138

     Total force =     0.308735     Total SCF correction =     0.000144


     Computing stress (Cartesian axis) and pressure

          total   stress  (Ry/bohr**3)                   (kbar)     P=      -25.94
  -0.00025359   0.00000000  -0.00000000          -37.31        0.00       -0.00
  -0.00000000  -0.00025359  -0.00000000           -0.00      -37.31       -0.00
   0.00000000  -0.00000000  -0.00002187            0.00       -0.00       -3.22


     Writing all to output data dir ./iceII_2/iceII_2.save/ :
     XML data file, charge density, pseudopotentials, collected wavefunctions

     init_run     :      0.60s CPU      0.63s WALL (       1 calls)
     electrons    :      2.91s CPU      3.03s WALL (       1 calls)
     forces       :      0.05s CPU      0.06s WALL (       1 calls)
     stress       :      0.22s CPU      0.23s WALL (       1 calls)

     Called by init_run:
     wfcinit      :      0.10s CPU      0.10s WALL (       1 calls)
     potinit      :      0.02s CPU      0.03s WALL (       1 calls)
     hinit0       :      0.43s CPU      0.44s WALL (       1 calls)

     Called by electrons:
     c_bands      :      2.35s CPU      2.42s WALL (      12 calls)
     sum_band     :      0.32s CPU      0.34s WALL (      12 calls)
     v_of_rho     :      0.17s CPU      0.19s WALL (      13 calls)
     newd         :      0.02s CPU      0.02s WALL (      13 calls)
     mix_rho      :      0.02s CPU      0.02s WALL (      12 calls)

     Called by c_bands:
     init_us_2    :      0.03s CPU      0.03s WALL (      54 calls)
     cegterg      :      2.27s CPU      2.32s WALL (      24 calls)

     Called by *egterg:
     cdiaghg      :      0.35s CPU      0.35s WALL (      94 calls)
     h_psi        :      1.64s CPU      1.68s WALL (      96 calls)
     s_psi        :      0.07s CPU      0.07s WALL (      96 calls)
     g_psi        :      0.00s CPU      0.00s WALL (      70 calls)

     Called by h_psi:
     h_psi:calbec :      0.12s CPU      0.12s WALL (      96 calls)
     vloc_psi     :      1.43s CPU      1.47s WALL (      96 calls)
     add_vuspsi   :      0.08s CPU      0.08s WALL (      96 calls)

     General routines
     calbec       :      0.16s CPU      0.16s WALL (     130 calls)
     fft          :      0.51s CPU      0.52s WALL (     151 calls)
     ffts         :      0.01s CPU      0.01s WALL (      12 calls)
     fftw         :      1.49s CPU      1.53s WALL (    8212 calls)

     Parallel routines

     PWSCF        :      3.97s CPU      4.27s WALL


   This run was terminated on:  21:35:59  18Mar2026            

=------------------------------------------------------------------------------=
   JOB DONE.
=------------------------------------------------------------------------------=
