
     Program PWSCF v.7.3.1 starts on 18Mar2026 at 21:35:36 

     This program is part of the open-source Quantum ESPRESSO suite
     for quantum simulation of materials; please cite
         "P. Giannozzi et al., J. Phys.:Condens. Matter 21 395502 (2009);
         "P. Giannozzi et al., J. Phys.:Condens. Matter 29 465901 (2017);
         "P. Giannozzi et al., J. Chem. Phys. 152 154105 (2020);
          URL http://www.quantum-espresso.org", 
     in publications or presentations arising from this work. More details at
     http://www.quantum-espresso.org/quote

     Parallel version (MPI), running on   128 processors

     MPI processes distributed on     1 nodes
     243454 MiB available memory on the printing compute node when the environment starts

     Waiting for input...
     Reading input from standard input

     Current dimensions of program PWSCF are:
     Max number of different atomic species (ntypx) = 10
     Max number of k-points (npk) =  40000
     Max angular momentum in pseudopotentials (lmaxx) =  4

     K-points division:     npool     =       8
     R & G space division:  proc/nbgrp/npool/nimage =      16
     Subspace diagonalization in iterative solution of the eigenvalue problem:
     a serial algorithm will be used


     Parallelization info
     --------------------
     sticks:   dense  smooth     PW     G-vecs:    dense   smooth      PW
     Min         118     118     39                 2845     2845     534
     Max         119     119     40                 2848     2848     536
     Sum        1895    1895    625                45547    45547    8551

     Using Slab Decomposition



     bravais-lattice index     =            5
     lattice parameter (alat)  =      14.7021  a.u.
     unit-cell volume          =    2053.1832 (a.u.)^3
     number of atoms/cell      =           36
     number of atomic types    =            2
     number of electrons       =        96.00
     number of Kohn-Sham states=           48
     kinetic-energy cutoff     =      30.0000  Ry
     charge density cutoff     =     120.0000  Ry
     scf convergence threshold =      1.0E-07
     mixing beta               =       0.7000
     number of iterations used =            8  plain     mixing
     Exchange-correlation=  SLA  PW   PBE  PBE
                           (   1   4   3   4   0   0   0)

     celldm(1)=  14.702068  celldm(2)=   0.000000  celldm(3)=   0.000000
     celldm(4)=  -0.392337  celldm(5)=   0.000000  celldm(6)=   0.000000

     crystal axes: (cart. coord. in units of alat)
               a(1) = (   0.834367  -0.481722   0.267909 )  
               a(2) = (   0.000000   0.963444   0.267909 )  
               a(3) = (  -0.834367  -0.481722   0.267909 )  

     reciprocal axes: (cart. coord. in units 2 pi/alat)
               b(1) = (  0.599257 -0.345981  1.244203 )  
               b(2) = ( -0.000000  0.691962  1.244203 )  
               b(3) = ( -0.599257 -0.345981  1.244203 )  


     PseudoPot. # 1 for H  read from file:
     ./H.pbe-van_ak.UPF
     MD5 check sum: 077eb6d537518a38cb46c6de387227b7
     Pseudo is Ultrasoft, Zval =  1.0
     Generated by new atomic code, or converted to UPF format
     Using radial grid of  615 points,  1 beta functions with: 
                l(1) =   0
     Q(r) pseudized with  8 coefficients,  rinner =    0.800

     PseudoPot. # 2 for O  read from file:
     ./O.pbe-van_ak.UPF
     MD5 check sum: 78c19812648e8988a0fe644b0f25305e
     Pseudo is Ultrasoft, Zval =  6.0
     Generated by new atomic code, or converted to UPF format
     Using radial grid of  737 points,  4 beta functions with: 
                l(1) =   0
                l(2) =   0
                l(3) =   1
                l(4) =   1
     Q(r) pseudized with  8 coefficients,  rinner =    0.800   0.800   0.800


     atomic species   valence    mass     pseudopotential
     H                 1.00     1.00800     H ( 1.00)
     O                 6.00    16.00000     O ( 1.00)

      6 Sym. Ops., with inversion, found



   Cartesian axes

     site n.     atom                  positions (alat units)
         1        O      tau(   1) = (  -0.4847673  -0.5197781   0.3083633  )
         2        O      tau(   2) = (   0.4847673   0.5197782   0.4953638  )
         3        O      tau(   3) = (   0.6925247  -0.1599317   0.3083633  )
         4        O      tau(   4) = (  -0.6925248   0.1599317   0.4953638  )
         5        O      tau(   5) = (  -0.2077574   0.6797099   0.3083633  )
         6        O      tau(   6) = (   0.2077574  -0.6797099   0.4953638  )
         7        O      tau(   7) = (   0.1218176   0.3323883   0.4179381  )
         8        O      tau(   8) = (  -0.1218176  -0.3323883   0.3857890  )
         9        O      tau(   9) = (  -0.3487655  -0.0606970   0.4179381  )
        10        O      tau(  10) = (   0.3487655   0.0606970   0.3857890  )
        11        O      tau(  11) = (   0.2269479  -0.2716913   0.4179381  )
        12        O      tau(  12) = (  -0.2269479   0.2716912   0.3857890  )
        13        H      tau(  13) = (  -0.5381668  -0.4032014   0.2796970  )
        14        H      tau(  14) = (   0.5381668   0.4032014   0.5240301  )
        15        H      tau(  15) = (   0.6182661  -0.2644654   0.2796970  )
        16        H      tau(  16) = (  -0.6182661   0.2644654   0.5240301  )
        17        H      tau(  17) = (  -0.0800993   0.6676668   0.2796970  )
        18        H      tau(  18) = (   0.0800993  -0.6676668   0.5240301  )
        19        H      tau(  19) = (  -0.4872704  -0.4817221   0.4326731  )
        20        H      tau(  20) = (   0.4872704   0.4817221   0.3710540  )
        21        H      tau(  21) = (   0.6608188  -0.1811275   0.4326731  )
        22        H      tau(  22) = (  -0.6608188   0.1811275   0.3710540  )
        23        H      tau(  23) = (  -0.1735484   0.6628496   0.4326731  )
        24        H      tau(  24) = (   0.1735484  -0.6628496   0.3710540  )
        25        H      tau(  25) = (   0.2703349  -0.1502973   0.4058822  )
        26        H      tau(  26) = (  -0.2703350   0.1502973   0.3978449  )
        27        H      tau(  27) = (  -0.0050062   0.3092656   0.4058822  )
        28        H      tau(  28) = (   0.0050062  -0.3092656   0.3978449  )
        29        H      tau(  29) = (  -0.2653287  -0.1589683   0.4058822  )
        30        H      tau(  30) = (   0.2653287   0.1589683   0.3978449  )
        31        H      tau(  31) = (   0.3178939  -0.3347969   0.3493534  )
        32        H      tau(  32) = (  -0.3178939   0.3347969   0.4543737  )
        33        H      tau(  33) = (   0.1309957   0.4427026   0.3493534  )
        34        H      tau(  34) = (  -0.1309956  -0.4427026   0.4543737  )
        35        H      tau(  35) = (  -0.4488895  -0.1079057   0.3493534  )
        36        H      tau(  36) = (   0.4488895   0.1079057   0.4543737  )

     number of k points=    14
                       cart. coord. in units 2pi/alat
        k(    1) = (   0.0000000   0.0000000   0.0000000), wk =   0.0312500
        k(    2) = (  -0.1498141  -0.0864952   0.3110508), wk =   0.1875000
        k(    3) = (   0.2996283   0.1729905  -0.6221017), wk =   0.0937500
        k(    4) = (  -0.1498141   0.0864952   0.6221017), wk =   0.1875000
        k(    5) = (   0.2996283   0.3459809  -0.3110508), wk =   0.1875000
        k(    6) = (   0.1498141   0.2594857   0.0000000), wk =   0.1875000
        k(    7) = (   0.2996283  -0.1729905  -1.2442034), wk =   0.0937500
        k(    8) = (   0.0000000   0.0000000   0.9331525), wk =   0.0625000
        k(    9) = (   0.4494424   0.2594857   0.0000000), wk =   0.1875000
        k(   10) = (   0.2996283   0.1729905   0.3110508), wk =   0.1875000
        k(   11) = (   0.4494424  -0.2594857  -0.9331525), wk =   0.1875000
        k(   12) = (   0.2996283  -0.3459809  -0.6221017), wk =   0.1875000
        k(   13) = (   0.0000000   0.0000000  -1.8663050), wk =   0.0312500
        k(   14) = (   0.2996283  -0.3459809   0.3110508), wk =   0.1875000

     Dense  grid:    45547 G-vectors     FFT dimensions: (  54,  54,  54)

     Estimated max dynamical RAM per process >       6.08 MB

     Estimated total dynamical RAM >     700.74 MB

     Initial potential from superposition of free atoms

     starting charge      95.9998, renormalised to      96.0000
     Starting wfcs are   72 randomized atomic wfcs

     total cpu time spent up to now is        0.6 secs

     per-process dynamical memory:    11.2 Mb

     Self-consistent Calculation

     iteration #  1     ecut=    30.00 Ry     beta= 0.70
     Davidson diagonalization with overlap
     ethr =  1.00E-02,  avg # of iterations =  2.0

     total cpu time spent up to now is        0.8 secs

     total energy              =    -412.16464863 Ry
     estimated scf accuracy    <       3.68639426 Ry

     iteration #  2     ecut=    30.00 Ry     beta= 0.70
     Davidson diagonalization with overlap
     ethr =  3.84E-03,  avg # of iterations =  3.0

     total cpu time spent up to now is        1.1 secs

     total energy              =    -413.34181891 Ry
     estimated scf accuracy    <       2.31742071 Ry

     iteration #  3     ecut=    30.00 Ry     beta= 0.70
     Davidson diagonalization with overlap
     ethr =  2.41E-03,  avg # of iterations =  2.0

     negative rho (up, down):  6.359E-08 0.000E+00

     total cpu time spent up to now is        1.3 secs

     total energy              =    -413.63297741 Ry
     estimated scf accuracy    <       0.08047098 Ry

     iteration #  4     ecut=    30.00 Ry     beta= 0.70
     Davidson diagonalization with overlap
     ethr =  8.38E-05,  avg # of iterations =  4.0

     negative rho (up, down):  1.405E-07 0.000E+00

     total cpu time spent up to now is        1.5 secs

     total energy              =    -413.69058357 Ry
     estimated scf accuracy    <       0.12619396 Ry

     iteration #  5     ecut=    30.00 Ry     beta= 0.70
     Davidson diagonalization with overlap
     ethr =  8.38E-05,  avg # of iterations =  2.0

     negative rho (up, down):  1.650E-07 0.000E+00

     total cpu time spent up to now is        1.7 secs

     total energy              =    -413.69674885 Ry
     estimated scf accuracy    <       0.02067456 Ry

     iteration #  6     ecut=    30.00 Ry     beta= 0.70
     Davidson diagonalization with overlap
     ethr =  2.15E-05,  avg # of iterations =  2.0

     negative rho (up, down):  2.053E-07 0.000E+00

     total cpu time spent up to now is        1.9 secs

     total energy              =    -413.69655265 Ry
     estimated scf accuracy    <       0.00636420 Ry

     iteration #  7     ecut=    30.00 Ry     beta= 0.70
     Davidson diagonalization with overlap
     ethr =  6.63E-06,  avg # of iterations =  2.0

     negative rho (up, down):  1.948E-07 0.000E+00

     total cpu time spent up to now is        2.1 secs

     total energy              =    -413.69715382 Ry
     estimated scf accuracy    <       0.00084264 Ry

     iteration #  8     ecut=    30.00 Ry     beta= 0.70
     Davidson diagonalization with overlap
     ethr =  8.78E-07,  avg # of iterations =  3.0

     negative rho (up, down):  1.855E-07 0.000E+00

     total cpu time spent up to now is        2.3 secs

     total energy              =    -413.69739642 Ry
     estimated scf accuracy    <       0.00001254 Ry

     iteration #  9     ecut=    30.00 Ry     beta= 0.70
     Davidson diagonalization with overlap
     ethr =  1.31E-08,  avg # of iterations =  3.8

     negative rho (up, down):  1.742E-07 0.000E+00

     total cpu time spent up to now is        2.6 secs

     total energy              =    -413.69740072 Ry
     estimated scf accuracy    <       0.00000833 Ry

     iteration # 10     ecut=    30.00 Ry     beta= 0.70
     Davidson diagonalization with overlap
     ethr =  8.68E-09,  avg # of iterations =  1.0

     negative rho (up, down):  1.742E-07 0.000E+00

     total cpu time spent up to now is        2.7 secs

     total energy              =    -413.69739955 Ry
     estimated scf accuracy    <       0.00000409 Ry

     iteration # 11     ecut=    30.00 Ry     beta= 0.70
     Davidson diagonalization with overlap
     ethr =  4.26E-09,  avg # of iterations =  2.0

     negative rho (up, down):  1.732E-07 0.000E+00

     total cpu time spent up to now is        2.9 secs

     total energy              =    -413.69739968 Ry
     estimated scf accuracy    <       0.00000070 Ry

     iteration # 12     ecut=    30.00 Ry     beta= 0.70
     Davidson diagonalization with overlap
     ethr =  7.27E-10,  avg # of iterations =  2.0

     negative rho (up, down):  1.734E-07 0.000E+00

     total cpu time spent up to now is        3.1 secs

     End of self-consistent calculation

          k = 0.0000 0.0000 0.0000 (  5701 PWs)   bands (ev):

   -20.8882 -20.4268 -20.4268 -20.2024 -20.2024 -20.1751 -20.1751 -20.1589
   -20.1566 -19.8526 -19.8526 -19.5375  -8.2082  -8.0078  -7.9499  -7.9499
    -7.8643  -7.8643  -7.4464  -7.2910  -7.2910  -7.0733  -7.0733  -6.9397
    -6.8746  -5.9748  -5.9748  -5.3836  -5.3836  -5.3055  -5.3055  -5.0051
    -4.8166  -4.1706  -4.1706  -3.5044  -2.8045  -2.8045  -2.7027  -2.6242
    -2.5752  -2.5752  -2.4341  -2.4341  -2.4131  -2.3934  -2.3448  -2.3448

          k =-0.1498-0.0865 0.3111 (  5698 PWs)   bands (ev):

   -20.8137 -20.4678 -20.4146 -20.3476 -20.3237 -20.2491 -20.1042 -20.0610
   -20.0061 -19.8592 -19.8170 -19.5978  -8.1528  -8.0737  -7.9957  -7.9480
    -7.8467  -7.7845  -7.4435  -7.2610  -7.2467  -7.1086  -6.9793  -6.9433
    -6.7385  -6.1223  -5.9907  -5.7201  -5.3966  -5.2582  -5.1178  -4.8917
    -4.8359  -4.1610  -4.0995  -3.6379  -2.9229  -2.8492  -2.7280  -2.6699
    -2.6126  -2.5762  -2.5341  -2.4703  -2.4052  -2.3662  -2.3304  -2.2825

          k = 0.2996 0.1730-0.6221 (  5694 PWs)   bands (ev):

   -20.6212 -20.6190 -20.4494 -20.4334 -20.3237 -20.3189 -20.0481 -20.0378
   -19.8665 -19.8628 -19.7542 -19.7341  -8.1286  -8.0701  -7.9850  -7.9633
    -7.8514  -7.7893  -7.3892  -7.2639  -7.2225  -7.1185  -6.8953  -6.8945
    -6.4937  -6.3529  -6.0445  -5.8854  -5.3965  -5.3143  -5.1131  -4.9548
    -4.4191  -4.2984  -4.0374  -3.8083  -3.0299  -2.8703  -2.7544  -2.7252
    -2.6518  -2.6303  -2.5398  -2.4795  -2.4608  -2.3278  -2.3162  -2.2364

          k =-0.1498 0.0865 0.6221 (  5705 PWs)   bands (ev):

   -20.6626 -20.5254 -20.5154 -20.3956 -20.3734 -20.3074 -20.0538 -19.9720
   -19.9367 -19.8186 -19.8001 -19.7083  -8.1365  -8.0475  -8.0283  -7.9209
    -7.8690  -7.7750  -7.3942  -7.3021  -7.2490  -7.0134  -6.9451  -6.8903
    -6.4991  -6.2852  -6.1864  -5.7150  -5.5407  -5.3568  -5.0366  -4.8294
    -4.6251  -4.1264  -4.1014  -3.8226  -3.0067  -2.9142  -2.7428  -2.6949
    -2.6609  -2.6110  -2.5669  -2.4812  -2.4497  -2.3375  -2.3201  -2.2302

          k = 0.2996 0.3460-0.3111 (  5700 PWs)   bands (ev):

   -20.7161 -20.5589 -20.4500 -20.4270 -20.3433 -20.2742 -20.0574 -19.9554
   -19.9454 -19.8562 -19.7947 -19.6827  -8.1439  -8.1180  -7.9644  -7.9417
    -7.8810  -7.7846  -7.4270  -7.3645  -7.2378  -6.9811  -6.9493  -6.8780
    -6.6266  -6.3207  -6.0803  -5.7370  -5.6955  -5.1893  -5.0038  -4.7408
    -4.5122  -4.2839  -4.0817  -3.7959  -2.9162  -2.8458  -2.7592  -2.6872
    -2.6332  -2.5804  -2.5192  -2.5097  -2.4242  -2.3837  -2.3225  -2.2175

          k = 0.1498 0.2595 0.0000 (  5689 PWs)   bands (ev):

   -20.8344 -20.5022 -20.4460 -20.3141 -20.2861 -20.2041 -20.1252 -20.0525
   -20.0122 -19.8639 -19.8278 -19.5855  -8.1920  -8.0864  -7.9869  -7.9409
    -7.8216  -7.8154  -7.4999  -7.3566  -7.1680  -7.0769  -7.0087  -6.8963
    -6.8718  -6.1051  -5.9719  -5.7122  -5.5996  -5.1342  -5.0001  -4.8748
    -4.6895  -4.2403  -4.1484  -3.5962  -2.8059  -2.7853  -2.7409  -2.6532
    -2.6135  -2.5864  -2.4684  -2.4527  -2.4180  -2.4092  -2.3040  -2.2894

          k = 0.2996-0.1730-1.2442 (  5690 PWs)   bands (ev):

   -20.7051 -20.6674 -20.4612 -20.3642 -20.2860 -20.2274 -20.0697 -20.0341
   -19.9201 -19.8986 -19.7179 -19.7016  -8.1714  -8.1325  -7.9974  -7.9615
    -7.7963  -7.7906  -7.4972  -7.4262  -7.1511  -7.1016  -6.9189  -6.8731
    -6.5577  -6.5151  -6.0441  -5.8227  -5.5068  -5.2555  -4.8744  -4.6195
    -4.5103  -4.4454  -3.9975  -3.8090  -2.8226  -2.7717  -2.7541  -2.6874
    -2.6159  -2.5559  -2.5362  -2.4614  -2.4518  -2.4048  -2.2684  -2.2544

          k = 0.0000 0.0000 0.9332 (  5695 PWs)   bands (ev):

   -20.6079 -20.6079 -20.5279 -20.4826 -20.3033 -20.3033 -19.9817 -19.9817
   -19.8595 -19.8198 -19.7928 -19.7928  -8.1195  -8.1195  -7.9805  -7.8796
    -7.8796  -7.8707  -7.4356  -7.3325  -7.3325  -6.8868  -6.8868  -6.8484
    -6.4221  -6.4211  -6.4211  -5.7618  -5.4511  -5.4511  -4.7895  -4.6047
    -4.6047  -4.1475  -4.1475  -3.9790  -2.8583  -2.8583  -2.7340  -2.6726
    -2.6048  -2.6048  -2.5468  -2.4832  -2.4832  -2.3690  -2.3690  -2.1932

          k = 0.4494 0.2595 0.0000 (  5702 PWs)   bands (ev):

   -20.7349 -20.5675 -20.5613 -20.3658 -20.2307 -20.2197 -20.0847 -20.0774
   -19.9209 -19.8265 -19.7922 -19.6720  -8.1654  -8.1220  -8.0533  -7.8978
    -7.8379  -7.7739  -7.5143  -7.3758  -7.2454  -6.9962  -6.9431  -6.8954
    -6.6634  -6.2840  -6.2063  -5.7751  -5.5199  -5.2507  -4.7993  -4.7601
    -4.5539  -4.2511  -4.1110  -3.7820  -2.8042  -2.7966  -2.7420  -2.6922
    -2.6314  -2.5717  -2.5020  -2.4790  -2.4264  -2.3815  -2.3212  -2.2355

          k = 0.2996 0.1730 0.3111 (  5687 PWs)   bands (ev):

   -20.7635 -20.5135 -20.4239 -20.4113 -20.3228 -20.2647 -20.0718 -20.0424
   -19.9703 -19.8477 -19.7935 -19.6360  -8.1637  -8.1051  -8.0210  -7.8914
    -7.8857  -7.7335  -7.4630  -7.3323  -7.1504  -7.0760  -7.0290  -6.9291
    -6.6535  -6.1264  -5.9519  -5.8671  -5.6379  -5.2851  -4.9883  -4.7871
    -4.6300  -4.2271  -4.0908  -3.6807  -2.9348  -2.8586  -2.7815  -2.7273
    -2.6283  -2.5869  -2.5100  -2.4771  -2.3925  -2.3515  -2.2920  -2.2752

          k = 0.4494-0.2595-0.9332 (  5701 PWs)   bands (ev):

   -20.6330 -20.6305 -20.4925 -20.4369 -20.3105 -20.2344 -20.1111 -20.0270
   -19.8832 -19.8292 -19.7777 -19.6946  -8.1928  -8.0922  -8.0514  -7.8982
    -7.8511  -7.7142  -7.5088  -7.2907  -7.1694  -7.1129  -6.9653  -6.9349
    -6.3899  -6.3519  -6.0283  -5.8790  -5.6908  -5.3742  -4.9456  -4.6637
    -4.3589  -4.3197  -4.1331  -3.7510  -2.9336  -2.8785  -2.8407  -2.7275
    -2.6918  -2.6028  -2.4592  -2.4370  -2.4053  -2.3646  -2.2941  -2.2390

          k = 0.2996-0.3460-0.6221 (  5690 PWs)   bands (ev):

   -20.5879 -20.5816 -20.4808 -20.4700 -20.3425 -20.3406 -20.0309 -20.0234
   -19.8712 -19.8633 -19.7485 -19.7275  -8.2065  -8.0056  -7.9752  -7.9562
    -7.9202  -7.7178  -7.4212  -7.3005  -7.1468  -7.1001  -6.9435  -6.9383
    -6.3544  -6.2266  -6.0632  -5.9364  -5.6126  -5.5768  -4.8635  -4.7911
    -4.3661  -4.3232  -4.1411  -3.7347  -3.0607  -2.8933  -2.8383  -2.7673
    -2.7117  -2.5728  -2.5043  -2.4648  -2.4417  -2.3181  -2.3006  -2.2205

          k = 0.0000 0.0000-1.8663 (  5694 PWs)   bands (ev):

   -20.5560 -20.5371 -20.4437 -20.4437 -20.4419 -20.4419 -19.9559 -19.9559
   -19.9214 -19.9214 -19.7331 -19.7154  -8.2546  -7.9682  -7.9682  -7.9473
    -7.9473  -7.6867  -7.4716  -7.2981  -7.0505  -7.0505  -7.0189  -7.0189
    -6.1774  -5.9983  -5.9409  -5.9409  -5.9358  -5.9358  -4.6425  -4.6425
    -4.4049  -4.4049  -4.1587  -3.6843  -3.0922  -2.8960  -2.8960  -2.8054
    -2.8054  -2.5173  -2.4993  -2.4005  -2.4005  -2.3313  -2.3313  -2.1948

          k = 0.2996-0.3460 0.3111 (  5700 PWs)   bands (ev):

   -20.7161 -20.5578 -20.4573 -20.4221 -20.3403 -20.2749 -20.0586 -19.9698
   -19.9247 -19.8678 -19.7874 -19.6846  -8.1592  -8.0847  -8.0016  -7.9363
    -7.8538  -7.7915  -7.4748  -7.3331  -7.2130  -7.0196  -6.9130  -6.8990
    -6.6187  -6.2529  -6.1754  -5.7872  -5.5501  -5.2522  -5.0848  -4.6500
    -4.4898  -4.2716  -4.1527  -3.7736  -2.9243  -2.8167  -2.7755  -2.6842
    -2.6391  -2.5857  -2.5204  -2.5095  -2.4420  -2.3523  -2.3233  -2.2259

     highest occupied level (ev):    -2.1932

!    total energy              =    -413.69739977 Ry
     estimated scf accuracy    <       0.00000007 Ry

     The total energy is the sum of the following terms:
     one-electron contribution =    -290.72162356 Ry
     hartree contribution      =     179.78399772 Ry
     xc contribution           =    -101.21518177 Ry
     ewald contribution        =    -201.54459216 Ry

     convergence has been achieved in  12 iterations

     Forces acting on atoms (cartesian axes, Ry/au):

     atom    1 type  2   force =    -0.03419868    0.06322405    0.03033668
     atom    2 type  2   force =     0.03419868   -0.06322405   -0.03033668
     atom    3 type  2   force =    -0.03765429   -0.06122895    0.03033668
     atom    4 type  2   force =     0.03765429    0.06122895   -0.03033668
     atom    5 type  2   force =     0.07185297   -0.00199510    0.03033668
     atom    6 type  2   force =    -0.07185297    0.00199510   -0.03033668
     atom    7 type  2   force =    -0.03028962    0.02373702   -0.02119666
     atom    8 type  2   force =     0.03028962   -0.02373702    0.02119666
     atom    9 type  2   force =    -0.00541205   -0.03810009   -0.02119666
     atom   10 type  2   force =     0.00541205    0.03810009    0.02119666
     atom   11 type  2   force =     0.03570167    0.01436307   -0.02119666
     atom   12 type  2   force =    -0.03570167   -0.01436307    0.02119666
     atom   13 type  1   force =     0.00305522   -0.02563417   -0.05129864
     atom   14 type  1   force =    -0.00305522    0.02563417    0.05129864
     atom   15 type  1   force =     0.02067223    0.01546299   -0.05129864
     atom   16 type  1   force =    -0.02067223   -0.01546299    0.05129864
     atom   17 type  1   force =    -0.02372746    0.01017118   -0.05129864
     atom   18 type  1   force =     0.02372746   -0.01017118    0.05129864
     atom   19 type  1   force =     0.02972984   -0.04455167    0.01051498
     atom   20 type  1   force =    -0.02972984    0.04455167   -0.01051498
     atom   21 type  1   force =     0.02371796    0.04802263    0.01051498
     atom   22 type  1   force =    -0.02371796   -0.04802263   -0.01051498
     atom   23 type  1   force =    -0.05344780   -0.00347096    0.01051498
     atom   24 type  1   force =     0.05344780    0.00347096   -0.01051498
     atom   25 type  1   force =    -0.01352495   -0.00202927    0.01256187
     atom   26 type  1   force =     0.01352495    0.00202927   -0.01256187
     atom   27 type  1   force =     0.00851988   -0.01069832    0.01256187
     atom   28 type  1   force =    -0.00851988    0.01069832   -0.01256187
     atom   29 type  1   force =     0.00500508    0.01272759    0.01256187
     atom   30 type  1   force =    -0.00500508   -0.01272759   -0.01256187
     atom   31 type  1   force =    -0.02840716   -0.00955264    0.01600796
     atom   32 type  1   force =     0.02840716    0.00955264   -0.01600796
     atom   33 type  1   force =     0.02247641   -0.01982501    0.01600796
     atom   34 type  1   force =    -0.02247641    0.01982501   -0.01600796
     atom   35 type  1   force =     0.00593076    0.02937764    0.01600796
     atom   36 type  1   force =    -0.00593076   -0.02937764   -0.01600796

     Total force =     0.307837     Total SCF correction =     0.000140


     Computing stress (Cartesian axis) and pressure

          total   stress  (Ry/bohr**3)                   (kbar)     P=      -23.84
  -0.00023919  -0.00000000  -0.00000000          -35.19       -0.00       -0.00
   0.00000000  -0.00023919  -0.00000000            0.00      -35.19       -0.00
   0.00000000  -0.00000000  -0.00000781            0.00       -0.00       -1.15


     Writing all to output data dir ./iceII_2/iceII_2.save/ :
     XML data file, charge density, pseudopotentials, collected wavefunctions

     init_run     :      0.35s CPU      0.39s WALL (       1 calls)
     electrons    :      2.38s CPU      2.48s WALL (       1 calls)
     forces       :      0.04s CPU      0.05s WALL (       1 calls)
     stress       :      0.17s CPU      0.18s WALL (       1 calls)

     Called by init_run:
     wfcinit      :      0.08s CPU      0.09s WALL (       1 calls)
     potinit      :      0.02s CPU      0.03s WALL (       1 calls)
     hinit0       :      0.21s CPU      0.22s WALL (       1 calls)

     Called by electrons:
     c_bands      :      1.95s CPU      2.00s WALL (      12 calls)
     sum_band     :      0.28s CPU      0.29s WALL (      12 calls)
     v_of_rho     :      0.11s CPU      0.12s WALL (      13 calls)
     newd         :      0.01s CPU      0.02s WALL (      13 calls)
     mix_rho      :      0.02s CPU      0.02s WALL (      12 calls)

     Called by c_bands:
     init_us_2    :      0.02s CPU      0.02s WALL (      54 calls)
     cegterg      :      1.91s CPU      1.94s WALL (      24 calls)

     Called by *egterg:
     cdiaghg      :      0.30s CPU      0.30s WALL (      82 calls)
     h_psi        :      1.42s CPU      1.45s WALL (      84 calls)
     s_psi        :      0.05s CPU      0.05s WALL (      84 calls)
     g_psi        :      0.00s CPU      0.00s WALL (      58 calls)

     Called by h_psi:
     h_psi:calbec :      0.08s CPU      0.09s WALL (      84 calls)
     vloc_psi     :      1.27s CPU      1.30s WALL (      84 calls)
     add_vuspsi   :      0.06s CPU      0.06s WALL (      84 calls)

     General routines
     calbec       :      0.11s CPU      0.12s WALL (     118 calls)
     fft          :      0.25s CPU      0.26s WALL (     151 calls)
     ffts         :      0.00s CPU      0.00s WALL (      12 calls)
     fftw         :      1.35s CPU      1.38s WALL (    7930 calls)

     Parallel routines

     PWSCF        :      3.13s CPU      3.40s WALL


   This run was terminated on:  21:35:40  18Mar2026            

=------------------------------------------------------------------------------=
   JOB DONE.
=------------------------------------------------------------------------------=
