
     Program PWSCF v.7.3.1 starts on 18Mar2026 at 21:43:24 

     This program is part of the open-source Quantum ESPRESSO suite
     for quantum simulation of materials; please cite
         "P. Giannozzi et al., J. Phys.:Condens. Matter 21 395502 (2009);
         "P. Giannozzi et al., J. Phys.:Condens. Matter 29 465901 (2017);
         "P. Giannozzi et al., J. Chem. Phys. 152 154105 (2020);
          URL http://www.quantum-espresso.org", 
     in publications or presentations arising from this work. More details at
     http://www.quantum-espresso.org/quote

     Parallel version (MPI), running on   128 processors

     MPI processes distributed on     1 nodes
     242926 MiB available memory on the printing compute node when the environment starts

     Waiting for input...
     Reading input from standard input

     Current dimensions of program PWSCF are:
     Max number of different atomic species (ntypx) = 10
     Max number of k-points (npk) =  40000
     Max angular momentum in pseudopotentials (lmaxx) =  4

     K-points division:     npool     =       4
     R & G space division:  proc/nbgrp/npool/nimage =      32
     Subspace diagonalization in iterative solution of the eigenvalue problem:
     a serial algorithm will be used


     Parallelization info
     --------------------
     sticks:   dense  smooth     PW     G-vecs:    dense   smooth      PW
     Min         193     193     56                 8406     8406    1323
     Max         194     194     57                 8409     8409    1324
     Sum        6203    6203   1807               269059   269059   42343

     Using Slab Decomposition



     bravais-lattice index     =            5
     lattice parameter (alat)  =      14.7021  a.u.
     unit-cell volume          =    2053.1832 (a.u.)^3
     number of atoms/cell      =           36
     number of atomic types    =            2
     number of electrons       =        96.00
     number of Kohn-Sham states=           48
     kinetic-energy cutoff     =      98.0000  Ry
     charge density cutoff     =     392.0000  Ry
     scf convergence threshold =      1.0E-07
     mixing beta               =       0.7000
     number of iterations used =            8  plain     mixing
     Exchange-correlation=  SLA  PW   PBE  PBE
                           (   1   4   3   4   0   0   0)

     celldm(1)=  14.702068  celldm(2)=   0.000000  celldm(3)=   0.000000
     celldm(4)=  -0.392337  celldm(5)=   0.000000  celldm(6)=   0.000000

     crystal axes: (cart. coord. in units of alat)
               a(1) = (   0.834367  -0.481722   0.267909 )  
               a(2) = (   0.000000   0.963444   0.267909 )  
               a(3) = (  -0.834367  -0.481722   0.267909 )  

     reciprocal axes: (cart. coord. in units 2 pi/alat)
               b(1) = (  0.599257 -0.345981  1.244203 )  
               b(2) = ( -0.000000  0.691962  1.244203 )  
               b(3) = ( -0.599257 -0.345981  1.244203 )  


     PseudoPot. # 1 for H  read from file:
     ./H.pbe-van_ak.UPF
     MD5 check sum: 077eb6d537518a38cb46c6de387227b7
     Pseudo is Ultrasoft, Zval =  1.0
     Generated by new atomic code, or converted to UPF format
     Using radial grid of  615 points,  1 beta functions with: 
                l(1) =   0
     Q(r) pseudized with  8 coefficients,  rinner =    0.800

     PseudoPot. # 2 for O  read from file:
     ./O.pbe-van_ak.UPF
     MD5 check sum: 78c19812648e8988a0fe644b0f25305e
     Pseudo is Ultrasoft, Zval =  6.0
     Generated by new atomic code, or converted to UPF format
     Using radial grid of  737 points,  4 beta functions with: 
                l(1) =   0
                l(2) =   0
                l(3) =   1
                l(4) =   1
     Q(r) pseudized with  8 coefficients,  rinner =    0.800   0.800   0.800


     atomic species   valence    mass     pseudopotential
     H                 1.00     1.00800     H ( 1.00)
     O                 6.00    16.00000     O ( 1.00)

      6 Sym. Ops., with inversion, found



   Cartesian axes

     site n.     atom                  positions (alat units)
         1        O      tau(   1) = (  -0.4847673  -0.5197781   0.3083633  )
         2        O      tau(   2) = (   0.4847673   0.5197782   0.4953638  )
         3        O      tau(   3) = (   0.6925247  -0.1599317   0.3083633  )
         4        O      tau(   4) = (  -0.6925248   0.1599317   0.4953638  )
         5        O      tau(   5) = (  -0.2077574   0.6797099   0.3083633  )
         6        O      tau(   6) = (   0.2077574  -0.6797099   0.4953638  )
         7        O      tau(   7) = (   0.1218176   0.3323883   0.4179381  )
         8        O      tau(   8) = (  -0.1218176  -0.3323883   0.3857890  )
         9        O      tau(   9) = (  -0.3487655  -0.0606970   0.4179381  )
        10        O      tau(  10) = (   0.3487655   0.0606970   0.3857890  )
        11        O      tau(  11) = (   0.2269479  -0.2716913   0.4179381  )
        12        O      tau(  12) = (  -0.2269479   0.2716912   0.3857890  )
        13        H      tau(  13) = (  -0.5381668  -0.4032014   0.2796970  )
        14        H      tau(  14) = (   0.5381668   0.4032014   0.5240301  )
        15        H      tau(  15) = (   0.6182661  -0.2644654   0.2796970  )
        16        H      tau(  16) = (  -0.6182661   0.2644654   0.5240301  )
        17        H      tau(  17) = (  -0.0800993   0.6676668   0.2796970  )
        18        H      tau(  18) = (   0.0800993  -0.6676668   0.5240301  )
        19        H      tau(  19) = (  -0.4872704  -0.4817221   0.4326731  )
        20        H      tau(  20) = (   0.4872704   0.4817221   0.3710540  )
        21        H      tau(  21) = (   0.6608188  -0.1811275   0.4326731  )
        22        H      tau(  22) = (  -0.6608188   0.1811275   0.3710540  )
        23        H      tau(  23) = (  -0.1735484   0.6628496   0.4326731  )
        24        H      tau(  24) = (   0.1735484  -0.6628496   0.3710540  )
        25        H      tau(  25) = (   0.2703349  -0.1502973   0.4058822  )
        26        H      tau(  26) = (  -0.2703350   0.1502973   0.3978449  )
        27        H      tau(  27) = (  -0.0050062   0.3092656   0.4058822  )
        28        H      tau(  28) = (   0.0050062  -0.3092656   0.3978449  )
        29        H      tau(  29) = (  -0.2653287  -0.1589683   0.4058822  )
        30        H      tau(  30) = (   0.2653287   0.1589683   0.3978449  )
        31        H      tau(  31) = (   0.3178939  -0.3347969   0.3493534  )
        32        H      tau(  32) = (  -0.3178939   0.3347969   0.4543737  )
        33        H      tau(  33) = (   0.1309957   0.4427026   0.3493534  )
        34        H      tau(  34) = (  -0.1309956  -0.4427026   0.4543737  )
        35        H      tau(  35) = (  -0.4488895  -0.1079057   0.3493534  )
        36        H      tau(  36) = (   0.4488895   0.1079057   0.4543737  )

     number of k points=    14
                       cart. coord. in units 2pi/alat
        k(    1) = (   0.0000000   0.0000000   0.0000000), wk =   0.0312500
        k(    2) = (  -0.1498141  -0.0864952   0.3110508), wk =   0.1875000
        k(    3) = (   0.2996283   0.1729905  -0.6221017), wk =   0.0937500
        k(    4) = (  -0.1498141   0.0864952   0.6221017), wk =   0.1875000
        k(    5) = (   0.2996283   0.3459809  -0.3110508), wk =   0.1875000
        k(    6) = (   0.1498141   0.2594857   0.0000000), wk =   0.1875000
        k(    7) = (   0.2996283  -0.1729905  -1.2442034), wk =   0.0937500
        k(    8) = (   0.0000000   0.0000000   0.9331525), wk =   0.0625000
        k(    9) = (   0.4494424   0.2594857   0.0000000), wk =   0.1875000
        k(   10) = (   0.2996283   0.1729905   0.3110508), wk =   0.1875000
        k(   11) = (   0.4494424  -0.2594857  -0.9331525), wk =   0.1875000
        k(   12) = (   0.2996283  -0.3459809  -0.6221017), wk =   0.1875000
        k(   13) = (   0.0000000   0.0000000  -1.8663050), wk =   0.0312500
        k(   14) = (   0.2996283  -0.3459809   0.3110508), wk =   0.1875000

     Dense  grid:   269059 G-vectors     FFT dimensions: (  96,  96,  96)

     Estimated max dynamical RAM per process >      17.46 MB

     Estimated total dynamical RAM >       1.99 GB

     Initial potential from superposition of free atoms

     starting charge      95.9998, renormalised to      96.0000
     Starting wfcs are   72 randomized atomic wfcs

     total cpu time spent up to now is        1.6 secs

     per-process dynamical memory:    21.1 Mb

     Self-consistent Calculation

     iteration #  1     ecut=    98.00 Ry     beta= 0.70
     Davidson diagonalization with overlap
     ethr =  1.00E-02,  avg # of iterations =  2.0

     total cpu time spent up to now is        2.5 secs

     total energy              =    -412.28806302 Ry
     estimated scf accuracy    <       3.74300344 Ry

     iteration #  2     ecut=    98.00 Ry     beta= 0.70
     Davidson diagonalization with overlap
     ethr =  3.90E-03,  avg # of iterations =  3.0

     total cpu time spent up to now is        3.6 secs

     total energy              =    -413.47181567 Ry
     estimated scf accuracy    <       2.35541141 Ry

     iteration #  3     ecut=    98.00 Ry     beta= 0.70
     Davidson diagonalization with overlap
     ethr =  2.45E-03,  avg # of iterations =  2.0

     total cpu time spent up to now is        4.5 secs

     total energy              =    -413.77131645 Ry
     estimated scf accuracy    <       0.10094616 Ry

     iteration #  4     ecut=    98.00 Ry     beta= 0.70
     Davidson diagonalization with overlap
     ethr =  1.05E-04,  avg # of iterations =  4.0

     total cpu time spent up to now is        5.7 secs

     total energy              =    -413.85010778 Ry
     estimated scf accuracy    <       0.11902093 Ry

     iteration #  5     ecut=    98.00 Ry     beta= 0.70
     Davidson diagonalization with overlap
     ethr =  1.05E-04,  avg # of iterations =  2.0

     total cpu time spent up to now is        6.5 secs

     total energy              =    -413.85366629 Ry
     estimated scf accuracy    <       0.02024554 Ry

     iteration #  6     ecut=    98.00 Ry     beta= 0.70
     Davidson diagonalization with overlap
     ethr =  2.11E-05,  avg # of iterations =  2.0

     total cpu time spent up to now is        7.3 secs

     total energy              =    -413.85296988 Ry
     estimated scf accuracy    <       0.00695248 Ry

     iteration #  7     ecut=    98.00 Ry     beta= 0.70
     Davidson diagonalization with overlap
     ethr =  7.24E-06,  avg # of iterations =  3.0

     total cpu time spent up to now is        8.2 secs

     total energy              =    -413.85459625 Ry
     estimated scf accuracy    <       0.00014440 Ry

     iteration #  8     ecut=    98.00 Ry     beta= 0.70
     Davidson diagonalization with overlap
     ethr =  1.50E-07,  avg # of iterations =  6.0

     total cpu time spent up to now is        9.8 secs

     total energy              =    -413.85464650 Ry
     estimated scf accuracy    <       0.00105733 Ry

     iteration #  9     ecut=    98.00 Ry     beta= 0.70
     Davidson diagonalization with overlap
     ethr =  1.50E-07,  avg # of iterations =  4.0

     total cpu time spent up to now is       11.0 secs

     total energy              =    -413.85469363 Ry
     estimated scf accuracy    <       0.00010571 Ry

     iteration # 10     ecut=    98.00 Ry     beta= 0.70
     Davidson diagonalization with overlap
     ethr =  1.10E-07,  avg # of iterations =  2.0

     total cpu time spent up to now is       11.9 secs

     total energy              =    -413.85471947 Ry
     estimated scf accuracy    <       0.00000038 Ry

     iteration # 11     ecut=    98.00 Ry     beta= 0.70
     Davidson diagonalization with overlap
     ethr =  3.96E-10,  avg # of iterations =  5.7

     total cpu time spent up to now is       13.3 secs

     total energy              =    -413.85472036 Ry
     estimated scf accuracy    <       0.00000014 Ry

     iteration # 12     ecut=    98.00 Ry     beta= 0.70
     Davidson diagonalization with overlap
     ethr =  1.44E-10,  avg # of iterations =  2.0

     total cpu time spent up to now is       14.1 secs

     total energy              =    -413.85472028 Ry
     estimated scf accuracy    <       0.00000022 Ry

     iteration # 13     ecut=    98.00 Ry     beta= 0.70
     Davidson diagonalization with overlap
     ethr =  1.44E-10,  avg # of iterations =  2.0

     total cpu time spent up to now is       15.0 secs

     End of self-consistent calculation

          k = 0.0000 0.0000 0.0000 ( 33661 PWs)   bands (ev):

   -20.8664 -20.4043 -20.4043 -20.1795 -20.1795 -20.1524 -20.1524 -20.1360
   -20.1336 -19.8292 -19.8292 -19.5137  -8.2121  -8.0119  -7.9538  -7.9538
    -7.8692  -7.8692  -7.4480  -7.2954  -7.2954  -7.0783  -7.0783  -6.9445
    -6.8801  -5.9792  -5.9792  -5.3889  -5.3889  -5.3112  -5.3112  -5.0115
    -4.8236  -4.1791  -4.1791  -3.5154  -2.8117  -2.8117  -2.7104  -2.6318
    -2.5831  -2.5831  -2.4423  -2.4423  -2.4217  -2.4019  -2.3535  -2.3535

          k =-0.1498-0.0865 0.3111 ( 33640 PWs)   bands (ev):

   -20.7919 -20.4453 -20.3921 -20.3250 -20.3011 -20.2264 -20.0813 -20.0380
   -19.9830 -19.8359 -19.7936 -19.5742  -8.1569  -8.0775  -7.9998  -7.9523
    -7.8515  -7.7892  -7.4463  -7.2654  -7.2505  -7.1134  -6.9846  -6.9484
    -6.7433  -6.1265  -5.9953  -5.7248  -5.4020  -5.2638  -5.1237  -4.8984
    -4.8426  -4.1695  -4.1082  -3.6481  -2.9297  -2.8563  -2.7356  -2.6773
    -2.6204  -2.5843  -2.5421  -2.4785  -2.4136  -2.3746  -2.3390  -2.2913

          k = 0.2996 0.1730-0.6221 ( 33588 PWs)   bands (ev):

   -20.5990 -20.5969 -20.4270 -20.4108 -20.3011 -20.2962 -20.0251 -20.0147
   -19.8432 -19.8395 -19.7308 -19.7106  -8.1323  -8.0741  -7.9895  -7.9677
    -7.8561  -7.7939  -7.3927  -7.2681  -7.2264  -7.1233  -6.9008  -6.9001
    -6.4978  -6.3569  -6.0493  -5.8899  -5.4019  -5.3196  -5.1190  -4.9611
    -4.4271  -4.3060  -4.0464  -3.8175  -3.0364  -2.8772  -2.7617  -2.7325
    -2.6594  -2.6382  -2.5478  -2.4876  -2.4690  -2.3363  -2.3249  -2.2452

          k =-0.1498 0.0865 0.6221 ( 33600 PWs)   bands (ev):

   -20.6406 -20.5031 -20.4930 -20.3730 -20.3508 -20.2847 -20.0308 -19.9488
   -19.9135 -19.7953 -19.7767 -19.6848  -8.1402  -8.0515  -8.0327  -7.9253
    -7.8737  -7.7797  -7.3974  -7.3060  -7.2532  -7.0185  -6.9504  -6.8958
    -6.5032  -6.2892  -6.1909  -5.7199  -5.5458  -5.3622  -5.0428  -4.8359
    -4.6320  -4.1350  -4.1101  -3.8318  -3.0133  -2.9210  -2.7500  -2.7026
    -2.6686  -2.6188  -2.5748  -2.4893  -2.4579  -2.3459  -2.3288  -2.2391

          k = 0.2996 0.3460-0.3111 ( 33645 PWs)   bands (ev):

   -20.6941 -20.5366 -20.4275 -20.4046 -20.3206 -20.2514 -20.0344 -19.9322
   -19.9223 -19.8329 -19.7713 -19.6592  -8.1477  -8.1220  -7.9689  -7.9459
    -7.8855  -7.7891  -7.4306  -7.3687  -7.2419  -6.9859  -6.9547  -6.8836
    -6.6305  -6.3246  -6.0844  -5.7417  -5.7008  -5.1954  -5.0098  -4.7476
    -4.5199  -4.2917  -4.0906  -3.8053  -2.9232  -2.8528  -2.7665  -2.6946
    -2.6410  -2.5884  -2.5271  -2.5178  -2.4326  -2.3920  -2.3312  -2.2265

          k = 0.1498 0.2595 0.0000 ( 33671 PWs)   bands (ev):

   -20.8126 -20.4798 -20.4236 -20.2915 -20.2634 -20.1812 -20.1024 -20.0295
   -19.9891 -19.8405 -19.8044 -19.5619  -8.1960  -8.0904  -7.9910  -7.9454
    -7.8263  -7.8201  -7.5030  -7.3608  -7.1720  -7.0818  -7.0137  -6.9007
    -6.8774  -6.1094  -5.9764  -5.7171  -5.6045  -5.1405  -5.0066  -4.8813
    -4.6969  -4.2486  -4.1569  -3.6069  -2.8132  -2.7927  -2.7483  -2.6607
    -2.6212  -2.5943  -2.4767  -2.4611  -2.4264  -2.4176  -2.3128  -2.2982

          k = 0.2996-0.1730-1.2442 ( 33652 PWs)   bands (ev):

   -20.6831 -20.6453 -20.4388 -20.3416 -20.2632 -20.2046 -20.0468 -20.0110
   -19.8969 -19.8753 -19.6945 -19.6781  -8.1754  -8.1364  -8.0017  -7.9660
    -7.8006  -7.7953  -7.5009  -7.4299  -7.1555  -7.1063  -6.9243  -6.8788
    -6.5614  -6.5189  -6.0483  -5.8276  -5.5120  -5.2618  -4.8813  -4.6271
    -4.5178  -4.4528  -4.0066  -3.8186  -2.8297  -2.7791  -2.7616  -2.6947
    -2.6237  -2.5641  -2.5441  -2.4698  -2.4599  -2.4132  -2.2774  -2.2633

          k = 0.0000 0.0000 0.9332 ( 33600 PWs)   bands (ev):

   -20.5858 -20.5858 -20.5056 -20.4602 -20.2805 -20.2805 -19.9586 -19.9586
   -19.8362 -19.7964 -19.7695 -19.7695  -8.1234  -8.1234  -7.9850  -7.8841
    -7.8841  -7.8748  -7.4395  -7.3365  -7.3365  -6.8925  -6.8925  -6.8542
    -6.4253  -6.4248  -6.4248  -5.7668  -5.4567  -5.4567  -4.7961  -4.6119
    -4.6119  -4.1561  -4.1561  -3.9875  -2.8654  -2.8654  -2.7414  -2.6803
    -2.6126  -2.6126  -2.5550  -2.4912  -2.4912  -2.3775  -2.3775  -2.2023

          k = 0.4494 0.2595 0.0000 ( 33632 PWs)   bands (ev):

   -20.7129 -20.5453 -20.5390 -20.3432 -20.2078 -20.1969 -20.0617 -20.0545
   -19.8977 -19.8031 -19.7688 -19.6484  -8.1694  -8.1259  -8.0573  -7.9023
    -7.8425  -7.7783  -7.5180  -7.3795  -7.2496  -7.0012  -6.9485  -6.9009
    -6.6672  -6.2879  -6.2103  -5.7801  -5.5252  -5.2568  -4.8063  -4.7669
    -4.5613  -4.2593  -4.1195  -3.7917  -2.8113  -2.8038  -2.7496  -2.6995
    -2.6391  -2.5796  -2.5101  -2.4871  -2.4348  -2.3900  -2.3299  -2.2445

          k = 0.2996 0.1730 0.3111 ( 33640 PWs)   bands (ev):

   -20.7415 -20.4912 -20.4014 -20.3888 -20.3001 -20.2420 -20.0488 -20.0194
   -19.9471 -19.8243 -19.7700 -19.6124  -8.1675  -8.1091  -8.0252  -7.8960
    -7.8904  -7.7384  -7.4665  -7.3360  -7.1550  -7.0807  -7.0338  -6.9346
    -6.6580  -6.1309  -5.9566  -5.8717  -5.6427  -5.2908  -4.9948  -4.7941
    -4.6370  -4.2355  -4.0995  -3.6908  -2.9417  -2.8655  -2.7887  -2.7345
    -2.6361  -2.5947  -2.5182  -2.4853  -2.4010  -2.3601  -2.3008  -2.2840

          k = 0.4494-0.2595-0.9332 ( 33664 PWs)   bands (ev):

   -20.6108 -20.6083 -20.4701 -20.4144 -20.2878 -20.2116 -20.0881 -20.0040
   -19.8599 -19.8058 -19.7544 -19.6710  -8.1963  -8.0965  -8.0556  -7.9028
    -7.8557  -7.7189  -7.5125  -7.2947  -7.1737  -7.1175  -6.9704  -6.9403
    -6.3944  -6.3558  -6.0326  -5.8840  -5.6957  -5.3796  -4.9523  -4.6709
    -4.3667  -4.3279  -4.1416  -3.7607  -2.9407  -2.8853  -2.8477  -2.7349
    -2.6993  -2.6104  -2.4675  -2.4454  -2.4137  -2.3732  -2.3029  -2.2481

          k = 0.2996-0.3460-0.6221 ( 33642 PWs)   bands (ev):

   -20.5657 -20.5594 -20.4584 -20.4475 -20.3199 -20.3180 -20.0078 -20.0003
   -19.8480 -19.8400 -19.7250 -19.7040  -8.2100  -8.0100  -7.9797  -7.9606
    -7.9246  -7.7226  -7.4248  -7.3045  -7.1511  -7.1049  -6.9489  -6.9437
    -6.3588  -6.2309  -6.0680  -5.9411  -5.6174  -5.5816  -4.8703  -4.7979
    -4.3738  -4.3309  -4.1498  -3.7443  -3.0671  -2.9001  -2.8453  -2.7745
    -2.7192  -2.5806  -2.5125  -2.4730  -2.4500  -2.3267  -2.3094  -2.2296

          k = 0.0000 0.0000-1.8663 ( 33678 PWs)   bands (ev):

   -20.5337 -20.5147 -20.4212 -20.4212 -20.4195 -20.4195 -19.9328 -19.9328
   -19.8982 -19.8982 -19.7095 -19.6919  -8.2580  -7.9728  -7.9728  -7.9518
    -7.9518  -7.6915  -7.4751  -7.3021  -7.0551  -7.0551  -7.0241  -7.0241
    -6.1828  -6.0034  -5.9455  -5.9455  -5.9399  -5.9399  -4.6500  -4.6500
    -4.4124  -4.4124  -4.1674  -3.6942  -3.0985  -2.9028  -2.9028  -2.8125
    -2.8125  -2.5252  -2.5077  -2.4090  -2.4090  -2.3401  -2.3401  -2.2042

          k = 0.2996-0.3460 0.3111 ( 33645 PWs)   bands (ev):

   -20.6941 -20.5355 -20.4349 -20.3996 -20.3176 -20.2522 -20.0356 -19.9466
   -19.9015 -19.8445 -19.7640 -19.6611  -8.1631  -8.0888  -8.0057  -7.9409
    -7.8581  -7.7961  -7.4784  -7.3371  -7.2174  -7.0243  -6.9184  -6.9045
    -6.6228  -6.2568  -6.1794  -5.7922  -5.5552  -5.2582  -5.0907  -4.6571
    -4.4976  -4.2797  -4.1608  -3.7833  -2.9311  -2.8239  -2.7828  -2.6917
    -2.6466  -2.5937  -2.5283  -2.5177  -2.4502  -2.3608  -2.3320  -2.2349

     highest occupied level (ev):    -2.2023

!    total energy              =    -413.85472029 Ry
     estimated scf accuracy    <       0.00000002 Ry

     The total energy is the sum of the following terms:
     one-electron contribution =    -291.01024841 Ry
     hartree contribution      =     179.96615827 Ry
     xc contribution           =    -101.26603800 Ry
     ewald contribution        =    -201.54459216 Ry

     convergence has been achieved in  13 iterations

     Forces acting on atoms (cartesian axes, Ry/au):

     atom    1 type  2   force =    -0.03452443    0.06354620    0.03053811
     atom    2 type  2   force =     0.03452443   -0.06354620   -0.03053811
     atom    3 type  2   force =    -0.03777041   -0.06167213    0.03053811
     atom    4 type  2   force =     0.03777041    0.06167213   -0.03053811
     atom    5 type  2   force =     0.07229484   -0.00187407    0.03053811
     atom    6 type  2   force =    -0.07229484    0.00187407   -0.03053811
     atom    7 type  2   force =    -0.03067473    0.02375818   -0.02130970
     atom    8 type  2   force =     0.03067473   -0.02375818    0.02130970
     atom    9 type  2   force =    -0.00523782   -0.03844418   -0.02130970
     atom   10 type  2   force =     0.00523782    0.03844418    0.02130970
     atom   11 type  2   force =     0.03591255    0.01468600   -0.02130970
     atom   12 type  2   force =    -0.03591255   -0.01468600    0.02130970
     atom   13 type  1   force =     0.00318887   -0.02588517   -0.05127292
     atom   14 type  1   force =    -0.00318887    0.02588517    0.05127292
     atom   15 type  1   force =     0.02082278    0.01570422   -0.05127292
     atom   16 type  1   force =    -0.02082278   -0.01570422    0.05127292
     atom   17 type  1   force =    -0.02401165    0.01018094   -0.05127292
     atom   18 type  1   force =     0.02401165   -0.01018094    0.05127292
     atom   19 type  1   force =     0.02973692   -0.04469018    0.01017349
     atom   20 type  1   force =    -0.02973692    0.04469018   -0.01017349
     atom   21 type  1   force =     0.02383437    0.04809802    0.01017349
     atom   22 type  1   force =    -0.02383437   -0.04809802   -0.01017349
     atom   23 type  1   force =    -0.05357129   -0.00340784    0.01017349
     atom   24 type  1   force =     0.05357129    0.00340784   -0.01017349
     atom   25 type  1   force =    -0.01367154   -0.00240064    0.01260983
     atom   26 type  1   force =     0.01367154    0.00240064   -0.01260983
     atom   27 type  1   force =     0.00891479   -0.01063958    0.01260983
     atom   28 type  1   force =    -0.00891479    0.01063958   -0.01260983
     atom   29 type  1   force =     0.00475676    0.01304022    0.01260983
     atom   30 type  1   force =    -0.00475676   -0.01304022   -0.01260983
     atom   31 type  1   force =    -0.02870060   -0.00934116    0.01625607
     atom   32 type  1   force =     0.02870060    0.00934116   -0.01625607
     atom   33 type  1   force =     0.02243998   -0.02018487    0.01625607
     atom   34 type  1   force =    -0.02243998    0.02018487   -0.01625607
     atom   35 type  1   force =     0.00626062    0.02952603    0.01625607
     atom   36 type  1   force =    -0.00626062   -0.02952603   -0.01625607

     Total force =     0.309288     Total SCF correction =     0.000142


     Computing stress (Cartesian axis) and pressure

          total   stress  (Ry/bohr**3)                   (kbar)     P=      -18.44
  -0.00020273   0.00000000  -0.00000000          -29.82        0.00       -0.00
  -0.00000000  -0.00020273  -0.00000000           -0.00      -29.82       -0.00
  -0.00000000  -0.00000000   0.00002936           -0.00       -0.00        4.32


     Writing all to output data dir ./iceII_2/iceII_2.save/ :
     XML data file, charge density, pseudopotentials, collected wavefunctions

     init_run     :      1.27s CPU      1.34s WALL (       1 calls)
     electrons    :     13.23s CPU     13.50s WALL (       1 calls)
     forces       :      0.16s CPU      0.16s WALL (       1 calls)
     stress       :      0.99s CPU      1.00s WALL (       1 calls)

     Called by init_run:
     wfcinit      :      0.37s CPU      0.39s WALL (       1 calls)
     potinit      :      0.04s CPU      0.06s WALL (       1 calls)
     hinit0       :      0.67s CPU      0.69s WALL (       1 calls)

     Called by electrons:
     c_bands      :     11.16s CPU     11.29s WALL (      13 calls)
     sum_band     :      1.51s CPU      1.54s WALL (      13 calls)
     v_of_rho     :      0.35s CPU      0.40s WALL (      14 calls)
     newd         :      0.09s CPU      0.11s WALL (      14 calls)
     mix_rho      :      0.06s CPU      0.06s WALL (      13 calls)

     Called by c_bands:
     init_us_2    :      0.19s CPU      0.20s WALL (     116 calls)
     cegterg      :     10.73s CPU     10.83s WALL (      52 calls)

     Called by *egterg:
     cdiaghg      :      0.81s CPU      0.81s WALL (     209 calls)
     h_psi        :      8.27s CPU      8.34s WALL (     213 calls)
     s_psi        :      0.38s CPU      0.39s WALL (     213 calls)
     g_psi        :      0.02s CPU      0.02s WALL (     157 calls)

     Called by h_psi:
     h_psi:calbec :      0.62s CPU      0.62s WALL (     213 calls)
     vloc_psi     :      7.21s CPU      7.28s WALL (     213 calls)
     add_vuspsi   :      0.38s CPU      0.38s WALL (     213 calls)

     General routines
     calbec       :      0.84s CPU      0.85s WALL (     285 calls)
     fft          :      0.87s CPU      0.92s WALL (     162 calls)
     ffts         :      0.02s CPU      0.02s WALL (      13 calls)
     fftw         :      7.43s CPU      7.50s WALL (   19046 calls)

     Parallel routines

     PWSCF        :     15.94s CPU     16.72s WALL


   This run was terminated on:  21:43:41  18Mar2026            

=------------------------------------------------------------------------------=
   JOB DONE.
=------------------------------------------------------------------------------=
