
     Program PWSCF v.7.3.1 starts on 18Mar2026 at 21:39:29 

     This program is part of the open-source Quantum ESPRESSO suite
     for quantum simulation of materials; please cite
         "P. Giannozzi et al., J. Phys.:Condens. Matter 21 395502 (2009);
         "P. Giannozzi et al., J. Phys.:Condens. Matter 29 465901 (2017);
         "P. Giannozzi et al., J. Chem. Phys. 152 154105 (2020);
          URL http://www.quantum-espresso.org", 
     in publications or presentations arising from this work. More details at
     http://www.quantum-espresso.org/quote

     Parallel version (MPI), running on   128 processors

     MPI processes distributed on     1 nodes
     243203 MiB available memory on the printing compute node when the environment starts

     Waiting for input...
     Reading input from standard input

     Current dimensions of program PWSCF are:
     Max number of different atomic species (ntypx) = 10
     Max number of k-points (npk) =  40000
     Max angular momentum in pseudopotentials (lmaxx) =  4

     K-points division:     npool     =       4
     R & G space division:  proc/nbgrp/npool/nimage =      32
     Subspace diagonalization in iterative solution of the eigenvalue problem:
     a serial algorithm will be used


     Parallelization info
     --------------------
     sticks:   dense  smooth     PW     G-vecs:    dense   smooth      PW
     Min         142     142     42                 5294     5294     867
     Max         143     143     43                 5298     5298     870
     Sum        4553    4553   1359               169461   169461   27773

     Using Slab Decomposition



     bravais-lattice index     =            5
     lattice parameter (alat)  =      14.7021  a.u.
     unit-cell volume          =    2053.1832 (a.u.)^3
     number of atoms/cell      =           36
     number of atomic types    =            2
     number of electrons       =        96.00
     number of Kohn-Sham states=           48
     kinetic-energy cutoff     =      72.0000  Ry
     charge density cutoff     =     288.0000  Ry
     scf convergence threshold =      1.0E-07
     mixing beta               =       0.7000
     number of iterations used =            8  plain     mixing
     Exchange-correlation=  SLA  PW   PBE  PBE
                           (   1   4   3   4   0   0   0)

     celldm(1)=  14.702068  celldm(2)=   0.000000  celldm(3)=   0.000000
     celldm(4)=  -0.392337  celldm(5)=   0.000000  celldm(6)=   0.000000

     crystal axes: (cart. coord. in units of alat)
               a(1) = (   0.834367  -0.481722   0.267909 )  
               a(2) = (   0.000000   0.963444   0.267909 )  
               a(3) = (  -0.834367  -0.481722   0.267909 )  

     reciprocal axes: (cart. coord. in units 2 pi/alat)
               b(1) = (  0.599257 -0.345981  1.244203 )  
               b(2) = ( -0.000000  0.691962  1.244203 )  
               b(3) = ( -0.599257 -0.345981  1.244203 )  


     PseudoPot. # 1 for H  read from file:
     ./H.pbe-van_ak.UPF
     MD5 check sum: 077eb6d537518a38cb46c6de387227b7
     Pseudo is Ultrasoft, Zval =  1.0
     Generated by new atomic code, or converted to UPF format
     Using radial grid of  615 points,  1 beta functions with: 
                l(1) =   0
     Q(r) pseudized with  8 coefficients,  rinner =    0.800

     PseudoPot. # 2 for O  read from file:
     ./O.pbe-van_ak.UPF
     MD5 check sum: 78c19812648e8988a0fe644b0f25305e
     Pseudo is Ultrasoft, Zval =  6.0
     Generated by new atomic code, or converted to UPF format
     Using radial grid of  737 points,  4 beta functions with: 
                l(1) =   0
                l(2) =   0
                l(3) =   1
                l(4) =   1
     Q(r) pseudized with  8 coefficients,  rinner =    0.800   0.800   0.800


     atomic species   valence    mass     pseudopotential
     H                 1.00     1.00800     H ( 1.00)
     O                 6.00    16.00000     O ( 1.00)

      6 Sym. Ops., with inversion, found



   Cartesian axes

     site n.     atom                  positions (alat units)
         1        O      tau(   1) = (  -0.4847673  -0.5197781   0.3083633  )
         2        O      tau(   2) = (   0.4847673   0.5197782   0.4953638  )
         3        O      tau(   3) = (   0.6925247  -0.1599317   0.3083633  )
         4        O      tau(   4) = (  -0.6925248   0.1599317   0.4953638  )
         5        O      tau(   5) = (  -0.2077574   0.6797099   0.3083633  )
         6        O      tau(   6) = (   0.2077574  -0.6797099   0.4953638  )
         7        O      tau(   7) = (   0.1218176   0.3323883   0.4179381  )
         8        O      tau(   8) = (  -0.1218176  -0.3323883   0.3857890  )
         9        O      tau(   9) = (  -0.3487655  -0.0606970   0.4179381  )
        10        O      tau(  10) = (   0.3487655   0.0606970   0.3857890  )
        11        O      tau(  11) = (   0.2269479  -0.2716913   0.4179381  )
        12        O      tau(  12) = (  -0.2269479   0.2716912   0.3857890  )
        13        H      tau(  13) = (  -0.5381668  -0.4032014   0.2796970  )
        14        H      tau(  14) = (   0.5381668   0.4032014   0.5240301  )
        15        H      tau(  15) = (   0.6182661  -0.2644654   0.2796970  )
        16        H      tau(  16) = (  -0.6182661   0.2644654   0.5240301  )
        17        H      tau(  17) = (  -0.0800993   0.6676668   0.2796970  )
        18        H      tau(  18) = (   0.0800993  -0.6676668   0.5240301  )
        19        H      tau(  19) = (  -0.4872704  -0.4817221   0.4326731  )
        20        H      tau(  20) = (   0.4872704   0.4817221   0.3710540  )
        21        H      tau(  21) = (   0.6608188  -0.1811275   0.4326731  )
        22        H      tau(  22) = (  -0.6608188   0.1811275   0.3710540  )
        23        H      tau(  23) = (  -0.1735484   0.6628496   0.4326731  )
        24        H      tau(  24) = (   0.1735484  -0.6628496   0.3710540  )
        25        H      tau(  25) = (   0.2703349  -0.1502973   0.4058822  )
        26        H      tau(  26) = (  -0.2703350   0.1502973   0.3978449  )
        27        H      tau(  27) = (  -0.0050062   0.3092656   0.4058822  )
        28        H      tau(  28) = (   0.0050062  -0.3092656   0.3978449  )
        29        H      tau(  29) = (  -0.2653287  -0.1589683   0.4058822  )
        30        H      tau(  30) = (   0.2653287   0.1589683   0.3978449  )
        31        H      tau(  31) = (   0.3178939  -0.3347969   0.3493534  )
        32        H      tau(  32) = (  -0.3178939   0.3347969   0.4543737  )
        33        H      tau(  33) = (   0.1309957   0.4427026   0.3493534  )
        34        H      tau(  34) = (  -0.1309956  -0.4427026   0.4543737  )
        35        H      tau(  35) = (  -0.4488895  -0.1079057   0.3493534  )
        36        H      tau(  36) = (   0.4488895   0.1079057   0.4543737  )

     number of k points=    14
                       cart. coord. in units 2pi/alat
        k(    1) = (   0.0000000   0.0000000   0.0000000), wk =   0.0312500
        k(    2) = (  -0.1498141  -0.0864952   0.3110508), wk =   0.1875000
        k(    3) = (   0.2996283   0.1729905  -0.6221017), wk =   0.0937500
        k(    4) = (  -0.1498141   0.0864952   0.6221017), wk =   0.1875000
        k(    5) = (   0.2996283   0.3459809  -0.3110508), wk =   0.1875000
        k(    6) = (   0.1498141   0.2594857   0.0000000), wk =   0.1875000
        k(    7) = (   0.2996283  -0.1729905  -1.2442034), wk =   0.0937500
        k(    8) = (   0.0000000   0.0000000   0.9331525), wk =   0.0625000
        k(    9) = (   0.4494424   0.2594857   0.0000000), wk =   0.1875000
        k(   10) = (   0.2996283   0.1729905   0.3110508), wk =   0.1875000
        k(   11) = (   0.4494424  -0.2594857  -0.9331525), wk =   0.1875000
        k(   12) = (   0.2996283  -0.3459809  -0.6221017), wk =   0.1875000
        k(   13) = (   0.0000000   0.0000000  -1.8663050), wk =   0.0312500
        k(   14) = (   0.2996283  -0.3459809   0.3110508), wk =   0.1875000

     Dense  grid:   169461 G-vectors     FFT dimensions: (  80,  80,  80)

     Estimated max dynamical RAM per process >      11.51 MB

     Estimated total dynamical RAM >       1.32 GB

     Initial potential from superposition of free atoms

     starting charge      95.9998, renormalised to      96.0000
     Starting wfcs are   72 randomized atomic wfcs

     total cpu time spent up to now is        1.2 secs

     per-process dynamical memory:    16.7 Mb

     Self-consistent Calculation

     iteration #  1     ecut=    72.00 Ry     beta= 0.70
     Davidson diagonalization with overlap
     ethr =  1.00E-02,  avg # of iterations =  2.0

     total cpu time spent up to now is        1.8 secs

     total energy              =    -412.26507293 Ry
     estimated scf accuracy    <       3.72406997 Ry

     iteration #  2     ecut=    72.00 Ry     beta= 0.70
     Davidson diagonalization with overlap
     ethr =  3.88E-03,  avg # of iterations =  3.0

     total cpu time spent up to now is        2.6 secs

     total energy              =    -413.44226217 Ry
     estimated scf accuracy    <       2.34043207 Ry

     iteration #  3     ecut=    72.00 Ry     beta= 0.70
     Davidson diagonalization with overlap
     ethr =  2.44E-03,  avg # of iterations =  2.0

     total cpu time spent up to now is        3.2 secs

     total energy              =    -413.74006001 Ry
     estimated scf accuracy    <       0.09919492 Ry

     iteration #  4     ecut=    72.00 Ry     beta= 0.70
     Davidson diagonalization with overlap
     ethr =  1.03E-04,  avg # of iterations =  4.0

     total cpu time spent up to now is        4.1 secs

     total energy              =    -413.81776077 Ry
     estimated scf accuracy    <       0.11763003 Ry

     iteration #  5     ecut=    72.00 Ry     beta= 0.70
     Davidson diagonalization with overlap
     ethr =  1.03E-04,  avg # of iterations =  2.0

     total cpu time spent up to now is        4.6 secs

     total energy              =    -413.82137544 Ry
     estimated scf accuracy    <       0.01990992 Ry

     iteration #  6     ecut=    72.00 Ry     beta= 0.70
     Davidson diagonalization with overlap
     ethr =  2.07E-05,  avg # of iterations =  2.0

     total cpu time spent up to now is        5.2 secs

     total energy              =    -413.82059545 Ry
     estimated scf accuracy    <       0.00696646 Ry

     iteration #  7     ecut=    72.00 Ry     beta= 0.70
     Davidson diagonalization with overlap
     ethr =  7.26E-06,  avg # of iterations =  3.0

     total cpu time spent up to now is        5.8 secs

     total energy              =    -413.82223837 Ry
     estimated scf accuracy    <       0.00013690 Ry

     iteration #  8     ecut=    72.00 Ry     beta= 0.70
     Davidson diagonalization with overlap
     ethr =  1.43E-07,  avg # of iterations =  6.0

     total cpu time spent up to now is        6.9 secs

     total energy              =    -413.82227819 Ry
     estimated scf accuracy    <       0.00107355 Ry

     iteration #  9     ecut=    72.00 Ry     beta= 0.70
     Davidson diagonalization with overlap
     ethr =  1.43E-07,  avg # of iterations =  4.0

     total cpu time spent up to now is        7.7 secs

     total energy              =    -413.82233588 Ry
     estimated scf accuracy    <       0.00009465 Ry

     iteration # 10     ecut=    72.00 Ry     beta= 0.70
     Davidson diagonalization with overlap
     ethr =  9.86E-08,  avg # of iterations =  2.0

     total cpu time spent up to now is        8.4 secs

     total energy              =    -413.82235809 Ry
     estimated scf accuracy    <       0.00000036 Ry

     iteration # 11     ecut=    72.00 Ry     beta= 0.70
     Davidson diagonalization with overlap
     ethr =  3.70E-10,  avg # of iterations =  6.0

     total cpu time spent up to now is        9.4 secs

     total energy              =    -413.82235898 Ry
     estimated scf accuracy    <       0.00000051 Ry

     iteration # 12     ecut=    72.00 Ry     beta= 0.70
     Davidson diagonalization with overlap
     ethr =  3.70E-10,  avg # of iterations =  1.0

     total cpu time spent up to now is        9.9 secs

     total energy              =    -413.82235883 Ry
     estimated scf accuracy    <       0.00000030 Ry

     iteration # 13     ecut=    72.00 Ry     beta= 0.70
     Davidson diagonalization with overlap
     ethr =  3.14E-10,  avg # of iterations =  2.0

     total cpu time spent up to now is       10.5 secs

     End of self-consistent calculation

          k = 0.0000 0.0000 0.0000 ( 21125 PWs)   bands (ev):

   -20.8708 -20.4088 -20.4088 -20.1842 -20.1842 -20.1570 -20.1570 -20.1407
   -20.1382 -19.8340 -19.8340 -19.5186  -8.2105  -8.0104  -7.9522  -7.9522
    -7.8675  -7.8675  -7.4474  -7.2939  -7.2939  -7.0765  -7.0765  -6.9427
    -6.8780  -5.9781  -5.9781  -5.3879  -5.3879  -5.3099  -5.3099  -5.0102
    -4.8221  -4.1775  -4.1775  -3.5133  -2.8106  -2.8106  -2.7086  -2.6305
    -2.5817  -2.5817  -2.4408  -2.4408  -2.4202  -2.4005  -2.3521  -2.3521

          k =-0.1498-0.0865 0.3111 ( 21181 PWs)   bands (ev):

   -20.7963 -20.4499 -20.3966 -20.3296 -20.3057 -20.2310 -20.0860 -20.0427
   -19.9877 -19.8407 -19.7984 -19.5791  -8.1552  -8.0760  -7.9982  -7.9507
    -7.8498  -7.7875  -7.4452  -7.2639  -7.2493  -7.1116  -6.9827  -6.9465
    -6.7417  -6.1255  -5.9942  -5.7238  -5.4009  -5.2626  -5.1225  -4.8971
    -4.8413  -4.1679  -4.1065  -3.6462  -2.9287  -2.8553  -2.7340  -2.6760
    -2.6189  -2.5828  -2.5408  -2.4771  -2.4122  -2.3732  -2.3377  -2.2899

          k = 0.2996 0.1730-0.6221 ( 21214 PWs)   bands (ev):

   -20.6034 -20.6014 -20.4315 -20.4155 -20.3056 -20.3008 -20.0297 -20.0195
   -19.8480 -19.8443 -19.7356 -19.7156  -8.1307  -8.0725  -7.9879  -7.9661
    -7.8544  -7.7923  -7.3914  -7.2666  -7.2250  -7.1216  -6.8988  -6.8981
    -6.4966  -6.3558  -6.0483  -5.8888  -5.4007  -5.3185  -5.1178  -4.9598
    -4.4256  -4.3046  -4.0447  -3.8159  -3.0354  -2.8762  -2.7605  -2.7312
    -2.6581  -2.6365  -2.5465  -2.4864  -2.4676  -2.3349  -2.3235  -2.2438

          k =-0.1498 0.0865 0.6221 ( 21188 PWs)   bands (ev):

   -20.6450 -20.5076 -20.4976 -20.3775 -20.3554 -20.2893 -20.0355 -19.9535
   -19.9183 -19.8001 -19.7815 -19.6897  -8.1386  -8.0499  -8.0310  -7.9237
    -7.8720  -7.7781  -7.3962  -7.3045  -7.2517  -7.0167  -6.9485  -6.8938
    -6.5019  -6.2882  -6.1899  -5.7188  -5.5447  -5.3611  -5.0415  -4.8346
    -4.6307  -4.1334  -4.1084  -3.8301  -3.0123  -2.9199  -2.7488  -2.7011
    -2.6670  -2.6174  -2.5734  -2.4879  -2.4566  -2.3446  -2.3273  -2.2377

          k = 0.2996 0.3460-0.3111 ( 21205 PWs)   bands (ev):

   -20.6985 -20.5410 -20.4322 -20.4091 -20.3252 -20.2560 -20.0391 -19.9370
   -19.9270 -19.8378 -19.7761 -19.6641  -8.1462  -8.1204  -7.9673  -7.9443
    -7.8839  -7.7875  -7.4293  -7.3672  -7.2403  -6.9841  -6.9527  -6.8816
    -6.6293  -6.3237  -6.0834  -5.7407  -5.6995  -5.1941  -5.0086  -4.7463
    -4.5184  -4.2903  -4.0889  -3.8036  -2.9221  -2.8518  -2.7653  -2.6931
    -2.6396  -2.5870  -2.5257  -2.5165  -2.4312  -2.3906  -2.3298  -2.2251

          k = 0.1498 0.2595 0.0000 ( 21175 PWs)   bands (ev):

   -20.8170 -20.4843 -20.4281 -20.2961 -20.2680 -20.1859 -20.1070 -20.0342
   -19.9938 -19.8453 -19.8092 -19.5668  -8.1944  -8.0889  -7.9894  -7.9438
    -7.8247  -7.8184  -7.5018  -7.3593  -7.1705  -7.0800  -7.0120  -6.8992
    -6.8754  -6.1084  -5.9754  -5.7160  -5.6034  -5.1392  -5.0053  -4.8800
    -4.6954  -4.2471  -4.1553  -3.6050  -2.8121  -2.7915  -2.7469  -2.6592
    -2.6198  -2.5928  -2.4753  -2.4597  -2.4250  -2.4162  -2.3114  -2.2968

          k = 0.2996-0.1730-1.2442 ( 21182 PWs)   bands (ev):

   -20.6875 -20.6497 -20.4433 -20.3462 -20.2678 -20.2093 -20.0514 -20.0158
   -19.9017 -19.8802 -19.6994 -19.6829  -8.1739  -8.1349  -8.0001  -7.9644
    -7.7991  -7.7936  -7.4994  -7.4285  -7.1538  -7.1046  -6.9224  -6.8768
    -6.5604  -6.5180  -6.0473  -5.8264  -5.5108  -5.2605  -4.8800  -4.6256
    -4.5163  -4.4514  -4.0049  -3.8168  -2.8285  -2.7779  -2.7604  -2.6931
    -2.6223  -2.5628  -2.5429  -2.4683  -2.4585  -2.4119  -2.2760  -2.2619

          k = 0.0000 0.0000 0.9332 ( 21224 PWs)   bands (ev):

   -20.5903 -20.5903 -20.5101 -20.4648 -20.2852 -20.2852 -19.9633 -19.9633
   -19.8408 -19.8014 -19.7743 -19.7743  -8.1219  -8.1219  -7.9833  -7.8825
    -7.8825  -7.8734  -7.4380  -7.3350  -7.3350  -6.8905  -6.8905  -6.8522
    -6.4244  -6.4240  -6.4240  -5.7656  -5.4555  -5.4555  -4.7947  -4.6105
    -4.6105  -4.1545  -4.1545  -3.9860  -2.8643  -2.8643  -2.7399  -2.6790
    -2.6113  -2.6113  -2.5535  -2.4899  -2.4899  -2.3761  -2.3761  -2.2009

          k = 0.4494 0.2595 0.0000 ( 21175 PWs)   bands (ev):

   -20.7173 -20.5498 -20.5434 -20.3478 -20.2124 -20.2016 -20.0664 -20.0592
   -19.9024 -19.8080 -19.7736 -19.6533  -8.1678  -8.1244  -8.0557  -7.9006
    -7.8409  -7.7767  -7.5165  -7.3781  -7.2480  -6.9994  -6.9466  -6.8990
    -6.6661  -6.2869  -6.2094  -5.7788  -5.5240  -5.2555  -4.8049  -4.7655
    -4.5599  -4.2578  -4.1179  -3.7900  -2.8101  -2.8026  -2.7484  -2.6979
    -2.6377  -2.5783  -2.5088  -2.4858  -2.4334  -2.3886  -2.3285  -2.2430

          k = 0.2996 0.1730 0.3111 ( 21159 PWs)   bands (ev):

   -20.7459 -20.4957 -20.4059 -20.3934 -20.3047 -20.2466 -20.0535 -20.0240
   -19.9519 -19.8291 -19.7749 -19.6173  -8.1660  -8.1075  -8.0236  -7.8944
    -7.8887  -7.7367  -7.4652  -7.3346  -7.1532  -7.0790  -7.0321  -6.9326
    -6.6566  -6.1298  -5.9555  -5.8706  -5.6417  -5.2896  -4.9935  -4.7927
    -4.6357  -4.2339  -4.0979  -3.6890  -2.9406  -2.8644  -2.7874  -2.7332
    -2.6346  -2.5933  -2.5167  -2.4840  -2.3996  -2.3587  -2.2994  -2.2825

          k = 0.4494-0.2595-0.9332 ( 21195 PWs)   bands (ev):

   -20.6153 -20.6128 -20.4746 -20.4190 -20.2924 -20.2162 -20.0928 -20.0087
   -19.8648 -19.8106 -19.7593 -19.6759  -8.1948  -8.0948  -8.0540  -7.9012
    -7.8541  -7.7173  -7.5111  -7.2932  -7.1721  -7.1158  -6.9686  -6.9384
    -6.3932  -6.3548  -6.0316  -5.8828  -5.6946  -5.3785  -4.9510  -4.6695
    -4.3653  -4.3264  -4.1401  -3.7589  -2.9396  -2.8842  -2.8466  -2.7335
    -2.6980  -2.6089  -2.4662  -2.4440  -2.4124  -2.3718  -2.3014  -2.2466

          k = 0.2996-0.3460-0.6221 ( 21204 PWs)   bands (ev):

   -20.5701 -20.5640 -20.4629 -20.4521 -20.3244 -20.3226 -20.0125 -20.0051
   -19.8528 -19.8449 -19.7297 -19.7090  -8.2085  -8.0084  -7.9781  -7.9590
    -7.9230  -7.7210  -7.4235  -7.3030  -7.1495  -7.1032  -6.9470  -6.9417
    -6.3576  -6.2298  -6.0669  -5.9399  -5.6164  -5.5806  -4.8689  -4.7966
    -4.3724  -4.3295  -4.1482  -3.7426  -3.0661  -2.8990  -2.8441  -2.7732
    -2.7178  -2.5793  -2.5109  -2.4716  -2.4487  -2.3254  -2.3080  -2.2281

          k = 0.0000 0.0000-1.8663 ( 21148 PWs)   bands (ev):

   -20.5381 -20.5194 -20.4259 -20.4259 -20.4239 -20.4239 -19.9374 -19.9374
   -19.9031 -19.9031 -19.7142 -19.6969  -8.2565  -7.9711  -7.9711  -7.9502
    -7.9502  -7.6900  -7.4737  -7.3006  -7.0534  -7.0534  -7.0222  -7.0222
    -6.1814  -6.0021  -5.9444  -5.9444  -5.9391  -5.9391  -4.6484  -4.6484
    -4.4111  -4.4111  -4.1658  -3.6923  -3.0974  -2.9017  -2.9017  -2.8112
    -2.8112  -2.5240  -2.5059  -2.4077  -2.4077  -2.3386  -2.3386  -2.2025

          k = 0.2996-0.3460 0.3111 ( 21205 PWs)   bands (ev):

   -20.6985 -20.5400 -20.4393 -20.4043 -20.3222 -20.2568 -20.0403 -19.9513
   -19.9064 -19.8492 -19.7689 -19.6660  -8.1616  -8.0872  -8.0041  -7.9392
    -7.8566  -7.7944  -7.4770  -7.3356  -7.2158  -7.0226  -6.9164  -6.9026
    -6.6216  -6.2559  -6.1784  -5.7910  -5.5541  -5.2570  -5.0895  -4.6557
    -4.4961  -4.2782  -4.1594  -3.7816  -2.9301  -2.8227  -2.7817  -2.6903
    -2.6453  -2.5923  -2.5269  -2.5163  -2.4489  -2.3594  -2.3306  -2.2335

     highest occupied level (ev):    -2.2009

!    total energy              =    -413.82235890 Ry
     estimated scf accuracy    <          1.7E-09 Ry

     The total energy is the sum of the following terms:
     one-electron contribution =    -290.94565449 Ry
     hartree contribution      =     179.92807319 Ry
     xc contribution           =    -101.26018544 Ry
     ewald contribution        =    -201.54459216 Ry

     convergence has been achieved in  13 iterations

     Forces acting on atoms (cartesian axes, Ry/au):

     atom    1 type  2   force =    -0.03450177    0.06361543    0.03052069
     atom    2 type  2   force =     0.03450177   -0.06361543   -0.03052069
     atom    3 type  2   force =    -0.03784170   -0.06168712    0.03052069
     atom    4 type  2   force =     0.03784170    0.06168712   -0.03052069
     atom    5 type  2   force =     0.07234347   -0.00192831    0.03052069
     atom    6 type  2   force =    -0.07234347    0.00192831   -0.03052069
     atom    7 type  2   force =    -0.03075924    0.02385779   -0.02141233
     atom    8 type  2   force =     0.03075924   -0.02385779    0.02141233
     atom    9 type  2   force =    -0.00528183   -0.03856718   -0.02141233
     atom   10 type  2   force =     0.00528183    0.03856718    0.02141233
     atom   11 type  2   force =     0.03604108    0.01470939   -0.02141233
     atom   12 type  2   force =    -0.03604108   -0.01470939    0.02141233
     atom   13 type  1   force =     0.00321704   -0.02594101   -0.05124598
     atom   14 type  1   force =    -0.00321704    0.02594101    0.05124598
     atom   15 type  1   force =     0.02085706    0.01575654   -0.05124598
     atom   16 type  1   force =    -0.02085706   -0.01575654    0.05124598
     atom   17 type  1   force =    -0.02407409    0.01018447   -0.05124598
     atom   18 type  1   force =     0.02407409   -0.01018447    0.05124598
     atom   19 type  1   force =     0.02974142   -0.04469840    0.01010590
     atom   20 type  1   force =    -0.02974142    0.04469840   -0.01010590
     atom   21 type  1   force =     0.02383924    0.04810603    0.01010590
     atom   22 type  1   force =    -0.02383924   -0.04810603   -0.01010590
     atom   23 type  1   force =    -0.05358066   -0.00340763    0.01010590
     atom   24 type  1   force =     0.05358066    0.00340763   -0.01010590
     atom   25 type  1   force =    -0.01367235   -0.00247183    0.01259356
     atom   26 type  1   force =     0.01367235    0.00247183   -0.01259356
     atom   27 type  1   force =     0.00897684   -0.01060469    0.01259356
     atom   28 type  1   force =    -0.00897684    0.01060469   -0.01259356
     atom   29 type  1   force =     0.00469551    0.01307652    0.01259356
     atom   30 type  1   force =    -0.00469551   -0.01307652   -0.01259356
     atom   31 type  1   force =    -0.02873913   -0.00930269    0.01627379
     atom   32 type  1   force =     0.02873913    0.00930269   -0.01627379
     atom   33 type  1   force =     0.02242593   -0.02023747    0.01627379
     atom   34 type  1   force =    -0.02242593    0.02023747   -0.01627379
     atom   35 type  1   force =     0.00631320    0.02954016    0.01627379
     atom   36 type  1   force =    -0.00631320   -0.02954016   -0.01627379

     Total force =     0.309506     Total SCF correction =     0.000093


     Computing stress (Cartesian axis) and pressure

          total   stress  (Ry/bohr**3)                   (kbar)     P=      -22.29
  -0.00022875  -0.00000000   0.00000000          -33.65       -0.00        0.00
   0.00000000  -0.00022875  -0.00000000            0.00      -33.65       -0.00
  -0.00000000  -0.00000000   0.00000299           -0.00       -0.00        0.44


     Writing all to output data dir ./iceII_2/iceII_2.save/ :
     XML data file, charge density, pseudopotentials, collected wavefunctions

     init_run     :      0.94s CPU      1.00s WALL (       1 calls)
     electrons    :      9.07s CPU      9.34s WALL (       1 calls)
     forces       :      0.09s CPU      0.10s WALL (       1 calls)
     stress       :      0.61s CPU      0.62s WALL (       1 calls)

     Called by init_run:
     wfcinit      :      0.26s CPU      0.27s WALL (       1 calls)
     potinit      :      0.01s CPU      0.04s WALL (       1 calls)
     hinit0       :      0.57s CPU      0.57s WALL (       1 calls)

     Called by electrons:
     c_bands      :      7.80s CPU      7.98s WALL (      13 calls)
     sum_band     :      0.98s CPU      0.99s WALL (      13 calls)
     v_of_rho     :      0.19s CPU      0.22s WALL (      14 calls)
     newd         :      0.04s CPU      0.04s WALL (      14 calls)
     mix_rho      :      0.03s CPU      0.03s WALL (      13 calls)

     Called by c_bands:
     init_us_2    :      0.09s CPU      0.11s WALL (     116 calls)
     cegterg      :      7.66s CPU      7.78s WALL (      52 calls)

     Called by *egterg:
     cdiaghg      :      0.82s CPU      0.82s WALL (     208 calls)
     h_psi        :      5.84s CPU      5.92s WALL (     212 calls)
     s_psi        :      0.22s CPU      0.23s WALL (     212 calls)
     g_psi        :      0.02s CPU      0.02s WALL (     156 calls)

     Called by h_psi:
     h_psi:calbec :      0.41s CPU      0.41s WALL (     212 calls)
     vloc_psi     :      5.14s CPU      5.21s WALL (     212 calls)
     add_vuspsi   :      0.25s CPU      0.25s WALL (     212 calls)

     General routines
     calbec       :      0.53s CPU      0.53s WALL (     284 calls)
     fft          :      0.64s CPU      0.65s WALL (     162 calls)
     ffts         :      0.01s CPU      0.01s WALL (      13 calls)
     fftw         :      5.33s CPU      5.40s WALL (   19222 calls)

     Parallel routines

     PWSCF        :     10.94s CPU     11.61s WALL


   This run was terminated on:  21:39:41  18Mar2026            

=------------------------------------------------------------------------------=
   JOB DONE.
=------------------------------------------------------------------------------=
