
     Program PWSCF v.7.3.1 starts on 18Mar2026 at 21:38:18 

     This program is part of the open-source Quantum ESPRESSO suite
     for quantum simulation of materials; please cite
         "P. Giannozzi et al., J. Phys.:Condens. Matter 21 395502 (2009);
         "P. Giannozzi et al., J. Phys.:Condens. Matter 29 465901 (2017);
         "P. Giannozzi et al., J. Chem. Phys. 152 154105 (2020);
          URL http://www.quantum-espresso.org", 
     in publications or presentations arising from this work. More details at
     http://www.quantum-espresso.org/quote

     Parallel version (MPI), running on   128 processors

     MPI processes distributed on     1 nodes
     243167 MiB available memory on the printing compute node when the environment starts

     Waiting for input...
     Reading input from standard input

     Current dimensions of program PWSCF are:
     Max number of different atomic species (ntypx) = 10
     Max number of k-points (npk) =  40000
     Max angular momentum in pseudopotentials (lmaxx) =  4

     K-points division:     npool     =       4
     R & G space division:  proc/nbgrp/npool/nimage =      32
     Subspace diagonalization in iterative solution of the eigenvalue problem:
     a serial algorithm will be used


     Parallelization info
     --------------------
     sticks:   dense  smooth     PW     G-vecs:    dense   smooth      PW
     Min         122     122     37                 4232     4232     707
     Max         123     123     38                 4234     4234     709
     Sum        3925    3925   1195               135451   135451   22649

     Using Slab Decomposition



     bravais-lattice index     =            5
     lattice parameter (alat)  =      14.7021  a.u.
     unit-cell volume          =    2053.1832 (a.u.)^3
     number of atoms/cell      =           36
     number of atomic types    =            2
     number of electrons       =        96.00
     number of Kohn-Sham states=           48
     kinetic-energy cutoff     =      62.0000  Ry
     charge density cutoff     =     248.0000  Ry
     scf convergence threshold =      1.0E-07
     mixing beta               =       0.7000
     number of iterations used =            8  plain     mixing
     Exchange-correlation=  SLA  PW   PBE  PBE
                           (   1   4   3   4   0   0   0)

     celldm(1)=  14.702068  celldm(2)=   0.000000  celldm(3)=   0.000000
     celldm(4)=  -0.392337  celldm(5)=   0.000000  celldm(6)=   0.000000

     crystal axes: (cart. coord. in units of alat)
               a(1) = (   0.834367  -0.481722   0.267909 )  
               a(2) = (   0.000000   0.963444   0.267909 )  
               a(3) = (  -0.834367  -0.481722   0.267909 )  

     reciprocal axes: (cart. coord. in units 2 pi/alat)
               b(1) = (  0.599257 -0.345981  1.244203 )  
               b(2) = ( -0.000000  0.691962  1.244203 )  
               b(3) = ( -0.599257 -0.345981  1.244203 )  


     PseudoPot. # 1 for H  read from file:
     ./H.pbe-van_ak.UPF
     MD5 check sum: 077eb6d537518a38cb46c6de387227b7
     Pseudo is Ultrasoft, Zval =  1.0
     Generated by new atomic code, or converted to UPF format
     Using radial grid of  615 points,  1 beta functions with: 
                l(1) =   0
     Q(r) pseudized with  8 coefficients,  rinner =    0.800

     PseudoPot. # 2 for O  read from file:
     ./O.pbe-van_ak.UPF
     MD5 check sum: 78c19812648e8988a0fe644b0f25305e
     Pseudo is Ultrasoft, Zval =  6.0
     Generated by new atomic code, or converted to UPF format
     Using radial grid of  737 points,  4 beta functions with: 
                l(1) =   0
                l(2) =   0
                l(3) =   1
                l(4) =   1
     Q(r) pseudized with  8 coefficients,  rinner =    0.800   0.800   0.800


     atomic species   valence    mass     pseudopotential
     H                 1.00     1.00800     H ( 1.00)
     O                 6.00    16.00000     O ( 1.00)

      6 Sym. Ops., with inversion, found



   Cartesian axes

     site n.     atom                  positions (alat units)
         1        O      tau(   1) = (  -0.4847673  -0.5197781   0.3083633  )
         2        O      tau(   2) = (   0.4847673   0.5197782   0.4953638  )
         3        O      tau(   3) = (   0.6925247  -0.1599317   0.3083633  )
         4        O      tau(   4) = (  -0.6925248   0.1599317   0.4953638  )
         5        O      tau(   5) = (  -0.2077574   0.6797099   0.3083633  )
         6        O      tau(   6) = (   0.2077574  -0.6797099   0.4953638  )
         7        O      tau(   7) = (   0.1218176   0.3323883   0.4179381  )
         8        O      tau(   8) = (  -0.1218176  -0.3323883   0.3857890  )
         9        O      tau(   9) = (  -0.3487655  -0.0606970   0.4179381  )
        10        O      tau(  10) = (   0.3487655   0.0606970   0.3857890  )
        11        O      tau(  11) = (   0.2269479  -0.2716913   0.4179381  )
        12        O      tau(  12) = (  -0.2269479   0.2716912   0.3857890  )
        13        H      tau(  13) = (  -0.5381668  -0.4032014   0.2796970  )
        14        H      tau(  14) = (   0.5381668   0.4032014   0.5240301  )
        15        H      tau(  15) = (   0.6182661  -0.2644654   0.2796970  )
        16        H      tau(  16) = (  -0.6182661   0.2644654   0.5240301  )
        17        H      tau(  17) = (  -0.0800993   0.6676668   0.2796970  )
        18        H      tau(  18) = (   0.0800993  -0.6676668   0.5240301  )
        19        H      tau(  19) = (  -0.4872704  -0.4817221   0.4326731  )
        20        H      tau(  20) = (   0.4872704   0.4817221   0.3710540  )
        21        H      tau(  21) = (   0.6608188  -0.1811275   0.4326731  )
        22        H      tau(  22) = (  -0.6608188   0.1811275   0.3710540  )
        23        H      tau(  23) = (  -0.1735484   0.6628496   0.4326731  )
        24        H      tau(  24) = (   0.1735484  -0.6628496   0.3710540  )
        25        H      tau(  25) = (   0.2703349  -0.1502973   0.4058822  )
        26        H      tau(  26) = (  -0.2703350   0.1502973   0.3978449  )
        27        H      tau(  27) = (  -0.0050062   0.3092656   0.4058822  )
        28        H      tau(  28) = (   0.0050062  -0.3092656   0.3978449  )
        29        H      tau(  29) = (  -0.2653287  -0.1589683   0.4058822  )
        30        H      tau(  30) = (   0.2653287   0.1589683   0.3978449  )
        31        H      tau(  31) = (   0.3178939  -0.3347969   0.3493534  )
        32        H      tau(  32) = (  -0.3178939   0.3347969   0.4543737  )
        33        H      tau(  33) = (   0.1309957   0.4427026   0.3493534  )
        34        H      tau(  34) = (  -0.1309956  -0.4427026   0.4543737  )
        35        H      tau(  35) = (  -0.4488895  -0.1079057   0.3493534  )
        36        H      tau(  36) = (   0.4488895   0.1079057   0.4543737  )

     number of k points=    14
                       cart. coord. in units 2pi/alat
        k(    1) = (   0.0000000   0.0000000   0.0000000), wk =   0.0312500
        k(    2) = (  -0.1498141  -0.0864952   0.3110508), wk =   0.1875000
        k(    3) = (   0.2996283   0.1729905  -0.6221017), wk =   0.0937500
        k(    4) = (  -0.1498141   0.0864952   0.6221017), wk =   0.1875000
        k(    5) = (   0.2996283   0.3459809  -0.3110508), wk =   0.1875000
        k(    6) = (   0.1498141   0.2594857   0.0000000), wk =   0.1875000
        k(    7) = (   0.2996283  -0.1729905  -1.2442034), wk =   0.0937500
        k(    8) = (   0.0000000   0.0000000   0.9331525), wk =   0.0625000
        k(    9) = (   0.4494424   0.2594857   0.0000000), wk =   0.1875000
        k(   10) = (   0.2996283   0.1729905   0.3110508), wk =   0.1875000
        k(   11) = (   0.4494424  -0.2594857  -0.9331525), wk =   0.1875000
        k(   12) = (   0.2996283  -0.3459809  -0.6221017), wk =   0.1875000
        k(   13) = (   0.0000000   0.0000000  -1.8663050), wk =   0.0312500
        k(   14) = (   0.2996283  -0.3459809   0.3110508), wk =   0.1875000

     Dense  grid:   135451 G-vectors     FFT dimensions: (  75,  75,  75)

     Estimated max dynamical RAM per process >       9.50 MB

     Estimated total dynamical RAM >       1.09 GB

     Initial potential from superposition of free atoms

     starting charge      95.9998, renormalised to      96.0000
     Starting wfcs are   72 randomized atomic wfcs

     total cpu time spent up to now is        0.8 secs

     per-process dynamical memory:    15.1 Mb

     Self-consistent Calculation

     iteration #  1     ecut=    62.00 Ry     beta= 0.70
     Davidson diagonalization with overlap
     ethr =  1.00E-02,  avg # of iterations =  2.0

     total cpu time spent up to now is        1.5 secs

     total energy              =    -412.26029113 Ry
     estimated scf accuracy    <       3.72204289 Ry

     iteration #  2     ecut=    62.00 Ry     beta= 0.70
     Davidson diagonalization with overlap
     ethr =  3.88E-03,  avg # of iterations =  3.0

     total cpu time spent up to now is        2.3 secs

     total energy              =    -413.43805189 Ry
     estimated scf accuracy    <       2.33401373 Ry

     iteration #  3     ecut=    62.00 Ry     beta= 0.70
     Davidson diagonalization with overlap
     ethr =  2.43E-03,  avg # of iterations =  2.0

     negative rho (up, down):  3.130E-07 0.000E+00

     total cpu time spent up to now is        2.9 secs

     total energy              =    -413.73423008 Ry
     estimated scf accuracy    <       0.09892155 Ry

     iteration #  4     ecut=    62.00 Ry     beta= 0.70
     Davidson diagonalization with overlap
     ethr =  1.03E-04,  avg # of iterations =  4.0

     negative rho (up, down):  5.620E-07 0.000E+00

     total cpu time spent up to now is        3.8 secs

     total energy              =    -413.81177872 Ry
     estimated scf accuracy    <       0.11717194 Ry

     iteration #  5     ecut=    62.00 Ry     beta= 0.70
     Davidson diagonalization with overlap
     ethr =  1.03E-04,  avg # of iterations =  2.0

     negative rho (up, down):  6.409E-07 0.000E+00

     total cpu time spent up to now is        4.3 secs

     total energy              =    -413.81539585 Ry
     estimated scf accuracy    <       0.01978545 Ry

     iteration #  6     ecut=    62.00 Ry     beta= 0.70
     Davidson diagonalization with overlap
     ethr =  2.06E-05,  avg # of iterations =  2.0

     negative rho (up, down):  7.217E-07 0.000E+00

     total cpu time spent up to now is        4.9 secs

     total energy              =    -413.81468108 Ry
     estimated scf accuracy    <       0.00687640 Ry

     iteration #  7     ecut=    62.00 Ry     beta= 0.70
     Davidson diagonalization with overlap
     ethr =  7.16E-06,  avg # of iterations =  3.0

     negative rho (up, down):  7.434E-07 0.000E+00

     total cpu time spent up to now is        5.6 secs

     total energy              =    -413.81627973 Ry
     estimated scf accuracy    <       0.00013956 Ry

     iteration #  8     ecut=    62.00 Ry     beta= 0.70
     Davidson diagonalization with overlap
     ethr =  1.45E-07,  avg # of iterations =  6.0

     negative rho (up, down):  7.361E-07 0.000E+00

     total cpu time spent up to now is        6.7 secs

     total energy              =    -413.81633222 Ry
     estimated scf accuracy    <       0.00098439 Ry

     iteration #  9     ecut=    62.00 Ry     beta= 0.70
     Davidson diagonalization with overlap
     ethr =  1.45E-07,  avg # of iterations =  4.0

     negative rho (up, down):  7.014E-07 0.000E+00

     total cpu time spent up to now is        7.5 secs

     total energy              =    -413.81637907 Ry
     estimated scf accuracy    <       0.00009515 Ry

     iteration # 10     ecut=    62.00 Ry     beta= 0.70
     Davidson diagonalization with overlap
     ethr =  9.91E-08,  avg # of iterations =  2.0

     negative rho (up, down):  7.017E-07 0.000E+00

     total cpu time spent up to now is        8.2 secs

     total energy              =    -413.81640282 Ry
     estimated scf accuracy    <       0.00000031 Ry

     iteration # 11     ecut=    62.00 Ry     beta= 0.70
     Davidson diagonalization with overlap
     ethr =  3.19E-10,  avg # of iterations =  5.6

     negative rho (up, down):  7.009E-07 0.000E+00

     total cpu time spent up to now is        9.2 secs

     total energy              =    -413.81640359 Ry
     estimated scf accuracy    <       0.00000011 Ry

     iteration # 12     ecut=    62.00 Ry     beta= 0.70
     Davidson diagonalization with overlap
     ethr =  1.14E-10,  avg # of iterations =  2.0

     negative rho (up, down):  7.017E-07 0.000E+00

     total cpu time spent up to now is        9.8 secs

     total energy              =    -413.81640352 Ry
     estimated scf accuracy    <       0.00000021 Ry

     iteration # 13     ecut=    62.00 Ry     beta= 0.70
     Davidson diagonalization with overlap
     ethr =  1.14E-10,  avg # of iterations =  2.0

     negative rho (up, down):  7.021E-07 0.000E+00

     total cpu time spent up to now is       10.4 secs

     End of self-consistent calculation

          k = 0.0000 0.0000 0.0000 ( 16947 PWs)   bands (ev):

   -20.8711 -20.4092 -20.4092 -20.1845 -20.1845 -20.1573 -20.1573 -20.1410
   -20.1386 -19.8343 -19.8343 -19.5190  -8.2116  -8.0112  -7.9531  -7.9531
    -7.8684  -7.8684  -7.4482  -7.2946  -7.2946  -7.0773  -7.0773  -6.9436
    -6.8790  -5.9791  -5.9791  -5.3888  -5.3888  -5.3108  -5.3108  -5.0112
    -4.8231  -4.1784  -4.1784  -3.5144  -2.8101  -2.8101  -2.7092  -2.6301
    -2.5815  -2.5815  -2.4405  -2.4405  -2.4198  -2.4001  -2.3516  -2.3516

          k =-0.1498-0.0865 0.3111 ( 16941 PWs)   bands (ev):

   -20.7966 -20.4502 -20.3969 -20.3299 -20.3060 -20.2313 -20.0863 -20.0431
   -19.9880 -19.8410 -19.7988 -19.5795  -8.1563  -8.0769  -7.9991  -7.9515
    -7.8507  -7.7884  -7.4460  -7.2647  -7.2500  -7.1124  -6.9835  -6.9474
    -6.7425  -6.1263  -5.9951  -5.7246  -5.4018  -5.2636  -5.1234  -4.8981
    -4.8422  -4.1688  -4.1075  -3.6472  -2.9282  -2.8547  -2.7343  -2.6756
    -2.6188  -2.5828  -2.5404  -2.4768  -2.4118  -2.3727  -2.3371  -2.2894

          k = 0.2996 0.1730-0.6221 ( 16936 PWs)   bands (ev):

   -20.6038 -20.6017 -20.4318 -20.4157 -20.3060 -20.3011 -20.0301 -20.0198
   -19.8483 -19.8447 -19.7359 -19.7159  -8.1317  -8.0735  -7.9887  -7.9670
    -7.8552  -7.7931  -7.3922  -7.2674  -7.2257  -7.1224  -6.8996  -6.8989
    -6.4974  -6.3566  -6.0491  -5.8897  -5.4017  -5.3194  -5.1188  -4.9609
    -4.4265  -4.3056  -4.0457  -3.8168  -3.0351  -2.8757  -2.7601  -2.7312
    -2.6579  -2.6368  -2.5462  -2.4859  -2.4673  -2.3344  -2.3230  -2.2433

          k =-0.1498 0.0865 0.6221 ( 16939 PWs)   bands (ev):

   -20.6454 -20.5079 -20.4979 -20.3779 -20.3557 -20.2896 -20.0358 -19.9538
   -19.9186 -19.8004 -19.7819 -19.6900  -8.1396  -8.0508  -8.0320  -7.9245
    -7.8729  -7.7789  -7.3970  -7.3053  -7.2524  -7.0175  -6.9493  -6.8947
    -6.5028  -6.2890  -6.1907  -5.7197  -5.5457  -5.3620  -5.0425  -4.8357
    -4.6317  -4.1344  -4.1094  -3.8311  -3.0119  -2.9195  -2.7484  -2.7013
    -2.6672  -2.6172  -2.5731  -2.4877  -2.4561  -2.3440  -2.3269  -2.2372

          k = 0.2996 0.3460-0.3111 ( 16918 PWs)   bands (ev):

   -20.6989 -20.5414 -20.4325 -20.4094 -20.3255 -20.2563 -20.0394 -19.9373
   -19.9273 -19.8381 -19.7764 -19.6644  -8.1471  -8.1214  -7.9681  -7.9452
    -7.8847  -7.7883  -7.4301  -7.3679  -7.2411  -6.9849  -6.9536  -6.8824
    -6.6302  -6.3245  -6.0843  -5.7415  -5.7004  -5.1950  -5.0097  -4.7472
    -4.5193  -4.2913  -4.0899  -3.8045  -2.9217  -2.8513  -2.7649  -2.6934
    -2.6393  -2.5867  -2.5255  -2.5161  -2.4308  -2.3901  -2.3294  -2.2245

          k = 0.1498 0.2595 0.0000 ( 16949 PWs)   bands (ev):

   -20.8173 -20.4847 -20.4285 -20.2964 -20.2683 -20.1862 -20.1074 -20.0345
   -19.9942 -19.8457 -19.8096 -19.5671  -8.1954  -8.0898  -7.9903  -7.9447
    -7.8255  -7.8193  -7.5026  -7.3601  -7.1714  -7.0808  -7.0128  -6.9000
    -6.8763  -6.1093  -5.9763  -5.7169  -5.6043  -5.1402  -5.0063  -4.8811
    -4.6963  -4.2480  -4.1563  -3.6060  -2.8116  -2.7910  -2.7468  -2.6593
    -2.6196  -2.5926  -2.4749  -2.4593  -2.4246  -2.4157  -2.3109  -2.2963

          k = 0.2996-0.1730-1.2442 ( 16914 PWs)   bands (ev):

   -20.6879 -20.6501 -20.4436 -20.3465 -20.2681 -20.2096 -20.0518 -20.0161
   -19.9020 -19.8805 -19.6997 -19.6833  -8.1748  -8.1359  -8.0010  -7.9652
    -7.7997  -7.7945  -7.5003  -7.4292  -7.1546  -7.1054  -6.9232  -6.8777
    -6.5613  -6.5188  -6.0482  -5.8273  -5.5117  -5.2614  -4.8810  -4.6266
    -4.5174  -4.4523  -4.0059  -3.8178  -2.8281  -2.7775  -2.7600  -2.6937
    -2.6220  -2.5623  -2.5424  -2.4680  -2.4581  -2.4114  -2.2755  -2.2614

          k = 0.0000 0.0000 0.9332 ( 16918 PWs)   bands (ev):

   -20.5906 -20.5906 -20.5104 -20.4651 -20.2855 -20.2855 -19.9637 -19.9637
   -19.8412 -19.8016 -19.7746 -19.7746  -8.1227  -8.1227  -7.9843  -7.8833
    -7.8833  -7.8740  -7.4389  -7.3357  -7.3357  -6.8913  -6.8913  -6.8530
    -6.4254  -6.4247  -6.4247  -5.7664  -5.4564  -5.4564  -4.7961  -4.6115
    -4.6115  -4.1555  -4.1555  -3.9868  -2.8639  -2.8639  -2.7403  -2.6787
    -2.6109  -2.6109  -2.5535  -2.4895  -2.4895  -2.3756  -2.3756  -2.2003

          k = 0.4494 0.2595 0.0000 ( 16896 PWs)   bands (ev):

   -20.7176 -20.5501 -20.5438 -20.3481 -20.2128 -20.2019 -20.0667 -20.0595
   -19.9028 -19.8083 -19.7739 -19.6537  -8.1687  -8.1253  -8.0567  -7.9015
    -7.8417  -7.7774  -7.5173  -7.3788  -7.2488  -7.0002  -6.9474  -6.8998
    -6.6670  -6.2879  -6.2102  -5.7797  -5.5249  -5.2564  -4.8059  -4.7665
    -4.5610  -4.2587  -4.1189  -3.7909  -2.8097  -2.8022  -2.7480  -2.6984
    -2.6374  -2.5779  -2.5084  -2.4853  -2.4330  -2.3882  -2.3279  -2.2426

          k = 0.2996 0.1730 0.3111 ( 16936 PWs)   bands (ev):

   -20.7463 -20.4960 -20.4062 -20.3937 -20.3051 -20.2469 -20.0538 -20.0244
   -19.9522 -19.8295 -19.7752 -19.6177  -8.1671  -8.1084  -8.0244  -7.8952
    -7.8896  -7.7375  -7.4660  -7.3354  -7.1541  -7.0798  -7.0328  -6.9334
    -6.6575  -6.1307  -5.9564  -5.8716  -5.6425  -5.2906  -4.9945  -4.7937
    -4.6366  -4.2349  -4.0989  -3.6900  -2.9402  -2.8640  -2.7873  -2.7330
    -2.6345  -2.5932  -2.5166  -2.4835  -2.3991  -2.3582  -2.2989  -2.2821

          k = 0.4494-0.2595-0.9332 ( 16905 PWs)   bands (ev):

   -20.6156 -20.6131 -20.4749 -20.4193 -20.2928 -20.2166 -20.0931 -20.0090
   -19.8651 -19.8109 -19.7596 -19.6762  -8.1959  -8.0957  -8.0549  -7.9020
    -7.8549  -7.7180  -7.5119  -7.2939  -7.1729  -7.1166  -6.9693  -6.9392
    -6.3941  -6.3557  -6.0325  -5.8837  -5.6955  -5.3795  -4.9519  -4.6705
    -4.3662  -4.3275  -4.1410  -3.7599  -2.9392  -2.8839  -2.8461  -2.7333
    -2.6977  -2.6092  -2.4657  -2.4436  -2.4119  -2.3713  -2.3009  -2.2462

          k = 0.2996-0.3460-0.6221 ( 16938 PWs)   bands (ev):

   -20.5705 -20.5643 -20.4632 -20.4524 -20.3248 -20.3229 -20.0129 -20.0054
   -19.8531 -19.8452 -19.7301 -19.7093  -8.2096  -8.0093  -7.9789  -7.9598
    -7.9238  -7.7217  -7.4242  -7.3038  -7.1503  -7.1040  -6.9478  -6.9425
    -6.3584  -6.2307  -6.0677  -5.9409  -5.6174  -5.5815  -4.8699  -4.7976
    -4.3733  -4.3305  -4.1492  -3.7435  -3.0658  -2.8986  -2.8438  -2.7730
    -2.7176  -2.5790  -2.5111  -2.4712  -2.4482  -2.3248  -2.3075  -2.2277

          k = 0.0000 0.0000-1.8663 ( 16954 PWs)   bands (ev):

   -20.5385 -20.5197 -20.4261 -20.4261 -20.4243 -20.4243 -19.9378 -19.9378
   -19.9034 -19.9034 -19.7147 -19.6972  -8.2577  -7.9720  -7.9720  -7.9510
    -7.9510  -7.6906  -7.4745  -7.3013  -7.0542  -7.0542  -7.0230  -7.0230
    -6.1823  -6.0031  -5.9453  -5.9453  -5.9399  -5.9399  -4.6495  -4.6495
    -4.4119  -4.4119  -4.1669  -3.6933  -3.0973  -2.9013  -2.9013  -2.8109
    -2.8109  -2.5237  -2.5064  -2.4071  -2.4071  -2.3382  -2.3382  -2.2023

          k = 0.2996-0.3460 0.3111 ( 16918 PWs)   bands (ev):

   -20.6989 -20.5403 -20.4397 -20.4045 -20.3225 -20.2571 -20.0406 -19.9516
   -19.9066 -19.8495 -19.7692 -19.6663  -8.1626  -8.0881  -8.0050  -7.9401
    -7.8573  -7.7952  -7.4778  -7.3364  -7.2166  -7.0235  -6.9173  -6.9034
    -6.6225  -6.2568  -6.1792  -5.7919  -5.5549  -5.2579  -5.0906  -4.6568
    -4.4971  -4.2791  -4.1603  -3.7825  -2.9297  -2.8224  -2.7813  -2.6902
    -2.6451  -2.5921  -2.5266  -2.5160  -2.4484  -2.3589  -2.3302  -2.2330

     highest occupied level (ev):    -2.2003

!    total energy              =    -413.81640353 Ry
     estimated scf accuracy    <       0.00000002 Ry

     The total energy is the sum of the following terms:
     one-electron contribution =    -290.93176470 Ry
     hartree contribution      =     179.92163290 Ry
     xc contribution           =    -101.26167956 Ry
     ewald contribution        =    -201.54459217 Ry

     convergence has been achieved in  13 iterations

     Forces acting on atoms (cartesian axes, Ry/au):

     atom    1 type  2   force =    -0.03439308    0.06349635    0.03050512
     atom    2 type  2   force =     0.03439308   -0.06349635   -0.03050512
     atom    3 type  2   force =    -0.03779292   -0.06153346    0.03050512
     atom    4 type  2   force =     0.03779292    0.06153346   -0.03050512
     atom    5 type  2   force =     0.07218600   -0.00196290    0.03050512
     atom    6 type  2   force =    -0.07218600    0.00196290   -0.03050512
     atom    7 type  2   force =    -0.03071851    0.02385356   -0.02136444
     atom    8 type  2   force =     0.03071851   -0.02385356    0.02136444
     atom    9 type  2   force =    -0.00529854   -0.03852979   -0.02136444
     atom   10 type  2   force =     0.00529854    0.03852979    0.02136444
     atom   11 type  2   force =     0.03601705    0.01467623   -0.02136444
     atom   12 type  2   force =    -0.03601705   -0.01467623    0.02136444
     atom   13 type  1   force =     0.00318018   -0.02591377   -0.05126109
     atom   14 type  1   force =    -0.00318018    0.02591377    0.05126109
     atom   15 type  1   force =     0.02085190    0.01571100   -0.05126109
     atom   16 type  1   force =    -0.02085190   -0.01571100    0.05126109
     atom   17 type  1   force =    -0.02403208    0.01020277   -0.05126109
     atom   18 type  1   force =     0.02403208   -0.01020277    0.05126109
     atom   19 type  1   force =     0.02973466   -0.04468859    0.01018457
     atom   20 type  1   force =    -0.02973466    0.04468859   -0.01018457
     atom   21 type  1   force =     0.02383413    0.04809527    0.01018457
     atom   22 type  1   force =    -0.02383413   -0.04809527   -0.01018457
     atom   23 type  1   force =    -0.05356879   -0.00340667    0.01018457
     atom   24 type  1   force =     0.05356879    0.00340667   -0.01018457
     atom   25 type  1   force =    -0.01367029   -0.00240540    0.01259839
     atom   26 type  1   force =     0.01367029    0.00240540   -0.01259839
     atom   27 type  1   force =     0.00891828   -0.01063612    0.01259839
     atom   28 type  1   force =    -0.00891828    0.01063612   -0.01259839
     atom   29 type  1   force =     0.00475201    0.01304152    0.01259839
     atom   30 type  1   force =    -0.00475201   -0.01304152   -0.01259839
     atom   31 type  1   force =    -0.02871461   -0.00932766    0.01624669
     atom   32 type  1   force =     0.02871461    0.00932766   -0.01624669
     atom   33 type  1   force =     0.02243529   -0.02020376    0.01624669
     atom   34 type  1   force =    -0.02243529    0.02020376   -0.01624669
     atom   35 type  1   force =     0.00627932    0.02953141    0.01624669
     atom   36 type  1   force =    -0.00627932   -0.02953141   -0.01624669

     Total force =     0.309213     Total SCF correction =     0.000138


     Computing stress (Cartesian axis) and pressure

          total   stress  (Ry/bohr**3)                   (kbar)     P=      -19.69
  -0.00021120  -0.00000000  -0.00000000          -31.07       -0.00       -0.00
   0.00000000  -0.00021120  -0.00000000            0.00      -31.07       -0.00
   0.00000000  -0.00000000   0.00002079            0.00       -0.00        3.06


     Writing all to output data dir ./iceII_2/iceII_2.save/ :
     XML data file, charge density, pseudopotentials, collected wavefunctions

     init_run     :      0.54s CPU      0.59s WALL (       1 calls)
     electrons    :      9.50s CPU      9.64s WALL (       1 calls)
     forces       :      0.08s CPU      0.08s WALL (       1 calls)
     stress       :      0.49s CPU      0.50s WALL (       1 calls)

     Called by init_run:
     wfcinit      :      0.27s CPU      0.29s WALL (       1 calls)
     potinit      :      0.03s CPU      0.04s WALL (       1 calls)
     hinit0       :      0.15s CPU      0.17s WALL (       1 calls)

     Called by electrons:
     c_bands      :      8.19s CPU      8.27s WALL (      13 calls)
     sum_band     :      1.04s CPU      1.06s WALL (      13 calls)
     v_of_rho     :      0.19s CPU      0.20s WALL (      14 calls)
     newd         :      0.03s CPU      0.04s WALL (      14 calls)
     mix_rho      :      0.03s CPU      0.03s WALL (      13 calls)

     Called by c_bands:
     init_us_2    :      0.07s CPU      0.08s WALL (     116 calls)
     cegterg      :      8.01s CPU      8.06s WALL (      52 calls)

     Called by *egterg:
     cdiaghg      :      0.82s CPU      0.82s WALL (     209 calls)
     h_psi        :      6.43s CPU      6.47s WALL (     213 calls)
     s_psi        :      0.18s CPU      0.19s WALL (     213 calls)
     g_psi        :      0.01s CPU      0.01s WALL (     157 calls)

     Called by h_psi:
     h_psi:calbec :      0.34s CPU      0.34s WALL (     213 calls)
     vloc_psi     :      5.86s CPU      5.90s WALL (     213 calls)
     add_vuspsi   :      0.20s CPU      0.21s WALL (     213 calls)

     General routines
     calbec       :      0.44s CPU      0.44s WALL (     285 calls)
     fft          :      0.25s CPU      0.26s WALL (     162 calls)
     ffts         :      0.01s CPU      0.01s WALL (      13 calls)
     fftw         :      6.21s CPU      6.25s WALL (   19158 calls)

     Parallel routines

     PWSCF        :     10.85s CPU     11.36s WALL


   This run was terminated on:  21:38:29  18Mar2026            

=------------------------------------------------------------------------------=
   JOB DONE.
=------------------------------------------------------------------------------=
