
     Program PWSCF v.7.3.1 starts on 18Mar2026 at 21:43:43 

     This program is part of the open-source Quantum ESPRESSO suite
     for quantum simulation of materials; please cite
         "P. Giannozzi et al., J. Phys.:Condens. Matter 21 395502 (2009);
         "P. Giannozzi et al., J. Phys.:Condens. Matter 29 465901 (2017);
         "P. Giannozzi et al., J. Chem. Phys. 152 154105 (2020);
          URL http://www.quantum-espresso.org", 
     in publications or presentations arising from this work. More details at
     http://www.quantum-espresso.org/quote

     Parallel version (MPI), running on   128 processors

     MPI processes distributed on     1 nodes
     243020 MiB available memory on the printing compute node when the environment starts

     Waiting for input...
     Reading input from standard input

     Current dimensions of program PWSCF are:
     Max number of different atomic species (ntypx) = 10
     Max number of k-points (npk) =  40000
     Max angular momentum in pseudopotentials (lmaxx) =  4

     K-points division:     npool     =       4
     R & G space division:  proc/nbgrp/npool/nimage =      32
     Subspace diagonalization in iterative solution of the eigenvalue problem:
     a serial algorithm will be used


     Parallelization info
     --------------------
     sticks:   dense  smooth     PW     G-vecs:    dense   smooth      PW
     Min         197     197     57                 8668     8668    1362
     Max         198     198     58                 8671     8671    1365
     Sum        6321    6321   1845               277417   277417   43633

     Using Slab Decomposition



     bravais-lattice index     =            5
     lattice parameter (alat)  =      14.7021  a.u.
     unit-cell volume          =    2053.1832 (a.u.)^3
     number of atoms/cell      =           36
     number of atomic types    =            2
     number of electrons       =        96.00
     number of Kohn-Sham states=           48
     kinetic-energy cutoff     =     100.0000  Ry
     charge density cutoff     =     400.0000  Ry
     scf convergence threshold =      1.0E-07
     mixing beta               =       0.7000
     number of iterations used =            8  plain     mixing
     Exchange-correlation=  SLA  PW   PBE  PBE
                           (   1   4   3   4   0   0   0)

     celldm(1)=  14.702068  celldm(2)=   0.000000  celldm(3)=   0.000000
     celldm(4)=  -0.392337  celldm(5)=   0.000000  celldm(6)=   0.000000

     crystal axes: (cart. coord. in units of alat)
               a(1) = (   0.834367  -0.481722   0.267909 )  
               a(2) = (   0.000000   0.963444   0.267909 )  
               a(3) = (  -0.834367  -0.481722   0.267909 )  

     reciprocal axes: (cart. coord. in units 2 pi/alat)
               b(1) = (  0.599257 -0.345981  1.244203 )  
               b(2) = ( -0.000000  0.691962  1.244203 )  
               b(3) = ( -0.599257 -0.345981  1.244203 )  


     PseudoPot. # 1 for H  read from file:
     ./H.pbe-van_ak.UPF
     MD5 check sum: 077eb6d537518a38cb46c6de387227b7
     Pseudo is Ultrasoft, Zval =  1.0
     Generated by new atomic code, or converted to UPF format
     Using radial grid of  615 points,  1 beta functions with: 
                l(1) =   0
     Q(r) pseudized with  8 coefficients,  rinner =    0.800

     PseudoPot. # 2 for O  read from file:
     ./O.pbe-van_ak.UPF
     MD5 check sum: 78c19812648e8988a0fe644b0f25305e
     Pseudo is Ultrasoft, Zval =  6.0
     Generated by new atomic code, or converted to UPF format
     Using radial grid of  737 points,  4 beta functions with: 
                l(1) =   0
                l(2) =   0
                l(3) =   1
                l(4) =   1
     Q(r) pseudized with  8 coefficients,  rinner =    0.800   0.800   0.800


     atomic species   valence    mass     pseudopotential
     H                 1.00     1.00800     H ( 1.00)
     O                 6.00    16.00000     O ( 1.00)

      6 Sym. Ops., with inversion, found



   Cartesian axes

     site n.     atom                  positions (alat units)
         1        O      tau(   1) = (  -0.4847673  -0.5197781   0.3083633  )
         2        O      tau(   2) = (   0.4847673   0.5197782   0.4953638  )
         3        O      tau(   3) = (   0.6925247  -0.1599317   0.3083633  )
         4        O      tau(   4) = (  -0.6925248   0.1599317   0.4953638  )
         5        O      tau(   5) = (  -0.2077574   0.6797099   0.3083633  )
         6        O      tau(   6) = (   0.2077574  -0.6797099   0.4953638  )
         7        O      tau(   7) = (   0.1218176   0.3323883   0.4179381  )
         8        O      tau(   8) = (  -0.1218176  -0.3323883   0.3857890  )
         9        O      tau(   9) = (  -0.3487655  -0.0606970   0.4179381  )
        10        O      tau(  10) = (   0.3487655   0.0606970   0.3857890  )
        11        O      tau(  11) = (   0.2269479  -0.2716913   0.4179381  )
        12        O      tau(  12) = (  -0.2269479   0.2716912   0.3857890  )
        13        H      tau(  13) = (  -0.5381668  -0.4032014   0.2796970  )
        14        H      tau(  14) = (   0.5381668   0.4032014   0.5240301  )
        15        H      tau(  15) = (   0.6182661  -0.2644654   0.2796970  )
        16        H      tau(  16) = (  -0.6182661   0.2644654   0.5240301  )
        17        H      tau(  17) = (  -0.0800993   0.6676668   0.2796970  )
        18        H      tau(  18) = (   0.0800993  -0.6676668   0.5240301  )
        19        H      tau(  19) = (  -0.4872704  -0.4817221   0.4326731  )
        20        H      tau(  20) = (   0.4872704   0.4817221   0.3710540  )
        21        H      tau(  21) = (   0.6608188  -0.1811275   0.4326731  )
        22        H      tau(  22) = (  -0.6608188   0.1811275   0.3710540  )
        23        H      tau(  23) = (  -0.1735484   0.6628496   0.4326731  )
        24        H      tau(  24) = (   0.1735484  -0.6628496   0.3710540  )
        25        H      tau(  25) = (   0.2703349  -0.1502973   0.4058822  )
        26        H      tau(  26) = (  -0.2703350   0.1502973   0.3978449  )
        27        H      tau(  27) = (  -0.0050062   0.3092656   0.4058822  )
        28        H      tau(  28) = (   0.0050062  -0.3092656   0.3978449  )
        29        H      tau(  29) = (  -0.2653287  -0.1589683   0.4058822  )
        30        H      tau(  30) = (   0.2653287   0.1589683   0.3978449  )
        31        H      tau(  31) = (   0.3178939  -0.3347969   0.3493534  )
        32        H      tau(  32) = (  -0.3178939   0.3347969   0.4543737  )
        33        H      tau(  33) = (   0.1309957   0.4427026   0.3493534  )
        34        H      tau(  34) = (  -0.1309956  -0.4427026   0.4543737  )
        35        H      tau(  35) = (  -0.4488895  -0.1079057   0.3493534  )
        36        H      tau(  36) = (   0.4488895   0.1079057   0.4543737  )

     number of k points=    14
                       cart. coord. in units 2pi/alat
        k(    1) = (   0.0000000   0.0000000   0.0000000), wk =   0.0312500
        k(    2) = (  -0.1498141  -0.0864952   0.3110508), wk =   0.1875000
        k(    3) = (   0.2996283   0.1729905  -0.6221017), wk =   0.0937500
        k(    4) = (  -0.1498141   0.0864952   0.6221017), wk =   0.1875000
        k(    5) = (   0.2996283   0.3459809  -0.3110508), wk =   0.1875000
        k(    6) = (   0.1498141   0.2594857   0.0000000), wk =   0.1875000
        k(    7) = (   0.2996283  -0.1729905  -1.2442034), wk =   0.0937500
        k(    8) = (   0.0000000   0.0000000   0.9331525), wk =   0.0625000
        k(    9) = (   0.4494424   0.2594857   0.0000000), wk =   0.1875000
        k(   10) = (   0.2996283   0.1729905   0.3110508), wk =   0.1875000
        k(   11) = (   0.4494424  -0.2594857  -0.9331525), wk =   0.1875000
        k(   12) = (   0.2996283  -0.3459809  -0.6221017), wk =   0.1875000
        k(   13) = (   0.0000000   0.0000000  -1.8663050), wk =   0.0312500
        k(   14) = (   0.2996283  -0.3459809   0.3110508), wk =   0.1875000

     Dense  grid:   277417 G-vectors     FFT dimensions: (  96,  96,  96)

     Estimated max dynamical RAM per process >      17.90 MB

     Estimated total dynamical RAM >       2.04 GB

     Initial potential from superposition of free atoms

     starting charge      95.9998, renormalised to      96.0000
     Starting wfcs are   72 randomized atomic wfcs

     total cpu time spent up to now is        1.6 secs

     per-process dynamical memory:    21.4 Mb

     Self-consistent Calculation

     iteration #  1     ecut=   100.00 Ry     beta= 0.70
     Davidson diagonalization with overlap
     ethr =  1.00E-02,  avg # of iterations =  2.0

     total cpu time spent up to now is        2.5 secs

     total energy              =    -412.28715009 Ry
     estimated scf accuracy    <       3.74428717 Ry

     iteration #  2     ecut=   100.00 Ry     beta= 0.70
     Davidson diagonalization with overlap
     ethr =  3.90E-03,  avg # of iterations =  3.0

     total cpu time spent up to now is        3.6 secs

     total energy              =    -413.47087188 Ry
     estimated scf accuracy    <       2.35933166 Ry

     iteration #  3     ecut=   100.00 Ry     beta= 0.70
     Davidson diagonalization with overlap
     ethr =  2.46E-03,  avg # of iterations =  2.0

     total cpu time spent up to now is        4.5 secs

     total energy              =    -413.77125331 Ry
     estimated scf accuracy    <       0.10101142 Ry

     iteration #  4     ecut=   100.00 Ry     beta= 0.70
     Davidson diagonalization with overlap
     ethr =  1.05E-04,  avg # of iterations =  4.0

     total cpu time spent up to now is        5.8 secs

     total energy              =    -413.85004479 Ry
     estimated scf accuracy    <       0.11921248 Ry

     iteration #  5     ecut=   100.00 Ry     beta= 0.70
     Davidson diagonalization with overlap
     ethr =  1.05E-04,  avg # of iterations =  2.0

     total cpu time spent up to now is        6.5 secs

     total energy              =    -413.85362026 Ry
     estimated scf accuracy    <       0.02019340 Ry

     iteration #  6     ecut=   100.00 Ry     beta= 0.70
     Davidson diagonalization with overlap
     ethr =  2.10E-05,  avg # of iterations =  2.0

     total cpu time spent up to now is        7.4 secs

     total energy              =    -413.85298317 Ry
     estimated scf accuracy    <       0.00678996 Ry

     iteration #  7     ecut=   100.00 Ry     beta= 0.70
     Davidson diagonalization with overlap
     ethr =  7.07E-06,  avg # of iterations =  3.0

     total cpu time spent up to now is        8.4 secs

     total energy              =    -413.85461948 Ry
     estimated scf accuracy    <       0.00012495 Ry

     iteration #  8     ecut=   100.00 Ry     beta= 0.70
     Davidson diagonalization with overlap
     ethr =  1.30E-07,  avg # of iterations =  6.0

     total cpu time spent up to now is        9.9 secs

     total energy              =    -413.85465059 Ry
     estimated scf accuracy    <       0.00100585 Ry

     iteration #  9     ecut=   100.00 Ry     beta= 0.70
     Davidson diagonalization with overlap
     ethr =  1.30E-07,  avg # of iterations =  4.0

     total cpu time spent up to now is       11.1 secs

     total energy              =    -413.85469098 Ry
     estimated scf accuracy    <       0.00010730 Ry

     iteration # 10     ecut=   100.00 Ry     beta= 0.70
     Davidson diagonalization with overlap
     ethr =  1.12E-07,  avg # of iterations =  2.0

     total cpu time spent up to now is       12.1 secs

     total energy              =    -413.85471348 Ry
     estimated scf accuracy    <       0.00000105 Ry

     iteration # 11     ecut=   100.00 Ry     beta= 0.70
     Davidson diagonalization with overlap
     ethr =  1.09E-09,  avg # of iterations =  5.0

     total cpu time spent up to now is       13.4 secs

     total energy              =    -413.85471462 Ry
     estimated scf accuracy    <       0.00000017 Ry

     iteration # 12     ecut=   100.00 Ry     beta= 0.70
     Davidson diagonalization with overlap
     ethr =  1.76E-10,  avg # of iterations =  2.0

     total cpu time spent up to now is       14.2 secs

     total energy              =    -413.85471456 Ry
     estimated scf accuracy    <       0.00000017 Ry

     iteration # 13     ecut=   100.00 Ry     beta= 0.70
     Davidson diagonalization with overlap
     ethr =  1.76E-10,  avg # of iterations =  2.0

     total cpu time spent up to now is       15.0 secs

     End of self-consistent calculation

          k = 0.0000 0.0000 0.0000 ( 34639 PWs)   bands (ev):

   -20.8664 -20.4043 -20.4043 -20.1795 -20.1795 -20.1524 -20.1524 -20.1360
   -20.1335 -19.8292 -19.8292 -19.5137  -8.2118  -8.0117  -7.9535  -7.9535
    -7.8689  -7.8689  -7.4478  -7.2951  -7.2951  -7.0780  -7.0780  -6.9442
    -6.8797  -5.9789  -5.9789  -5.3887  -5.3887  -5.3110  -5.3110  -5.0112
    -4.8234  -4.1789  -4.1789  -3.5151  -2.8117  -2.8117  -2.7100  -2.6317
    -2.5830  -2.5830  -2.4421  -2.4421  -2.4216  -2.4018  -2.3535  -2.3535

          k =-0.1498-0.0865 0.3111 ( 34684 PWs)   bands (ev):

   -20.7919 -20.4453 -20.3920 -20.3250 -20.3011 -20.2264 -20.0813 -20.0380
   -19.9830 -19.8359 -19.7936 -19.5742  -8.1565  -8.0773  -7.9995  -7.9520
    -7.8513  -7.7889  -7.4460  -7.2651  -7.2503  -7.1130  -6.9843  -6.9481
    -6.7430  -6.1262  -5.9951  -5.7245  -5.4018  -5.2635  -5.1234  -4.8981
    -4.8423  -4.1692  -4.1079  -3.6478  -2.9297  -2.8563  -2.7353  -2.6772
    -2.6202  -2.5841  -2.5421  -2.4784  -2.4135  -2.3745  -2.3390  -2.2912

          k = 0.2996 0.1730-0.6221 ( 34688 PWs)   bands (ev):

   -20.5990 -20.5969 -20.4269 -20.4108 -20.3010 -20.2962 -20.0250 -20.0148
   -19.8432 -19.8395 -19.7308 -19.7107  -8.1320  -8.0738  -7.9892  -7.9675
    -7.8558  -7.7937  -7.3924  -7.2678  -7.2261  -7.1230  -6.9005  -6.8998
    -6.4975  -6.3566  -6.0491  -5.8896  -5.4016  -5.3193  -5.1187  -4.9608
    -4.4268  -4.3057  -4.0462  -3.8173  -3.0364  -2.8772  -2.7616  -2.7323
    -2.6593  -2.6379  -2.5478  -2.4877  -2.4689  -2.3362  -2.3248  -2.2452

          k =-0.1498 0.0865 0.6221 ( 34685 PWs)   bands (ev):

   -20.6406 -20.5031 -20.4930 -20.3730 -20.3508 -20.2847 -20.0307 -19.9487
   -19.9135 -19.7953 -19.7767 -19.6848  -8.1399  -8.0512  -8.0324  -7.9250
    -7.8734  -7.7795  -7.3972  -7.3057  -7.2529  -7.0182  -6.9501  -6.8955
    -6.5029  -6.2889  -6.1907  -5.7196  -5.5456  -5.3619  -5.0425  -4.8356
    -4.6318  -4.1347  -4.1098  -3.8316  -3.0133  -2.9209  -2.7499  -2.7024
    -2.6683  -2.6187  -2.5747  -2.4892  -2.4579  -2.3459  -2.3287  -2.2390

          k = 0.2996 0.3460-0.3111 ( 34666 PWs)   bands (ev):

   -20.6941 -20.5365 -20.4276 -20.4046 -20.3206 -20.2514 -20.0344 -19.9322
   -19.9222 -19.8329 -19.7712 -19.6593  -8.1474  -8.1217  -7.9686  -7.9457
    -7.8852  -7.7889  -7.4304  -7.3684  -7.2416  -6.9855  -6.9544  -6.8833
    -6.6302  -6.3243  -6.0841  -5.7415  -5.7005  -5.1951  -5.0095  -4.7473
    -4.5196  -4.2915  -4.0903  -3.8051  -2.9231  -2.8528  -2.7664  -2.6943
    -2.6408  -2.5883  -2.5270  -2.5178  -2.4325  -2.3919  -2.3311  -2.2264

          k = 0.1498 0.2595 0.0000 ( 34699 PWs)   bands (ev):

   -20.8126 -20.4798 -20.4236 -20.2915 -20.2634 -20.1812 -20.1024 -20.0295
   -19.9891 -19.8405 -19.8044 -19.5619  -8.1957  -8.0902  -7.9907  -7.9452
    -7.8261  -7.8198  -7.5027  -7.3605  -7.1717  -7.0815  -7.0134  -6.9004
    -6.8771  -6.1091  -5.9761  -5.7169  -5.6043  -5.1402  -5.0063  -4.8810
    -4.6966  -4.2484  -4.1567  -3.6066  -2.8132  -2.7926  -2.7481  -2.6605
    -2.6210  -2.5942  -2.4766  -2.4610  -2.4263  -2.4176  -2.3128  -2.2982

          k = 0.2996-0.1730-1.2442 ( 34696 PWs)   bands (ev):

   -20.6831 -20.6453 -20.4388 -20.3416 -20.2632 -20.2046 -20.0468 -20.0111
   -19.8969 -19.8754 -19.6945 -19.6781  -8.1751  -8.1361  -8.0014  -7.9657
    -7.8003  -7.7950  -7.5006  -7.4297  -7.1552  -7.1060  -6.9240  -6.8784
    -6.5611  -6.5186  -6.0480  -5.8273  -5.5117  -5.2615  -4.8810  -4.6268
    -4.5174  -4.4526  -4.0063  -3.8184  -2.8296  -2.7790  -2.7616  -2.6943
    -2.6235  -2.5640  -2.5441  -2.4697  -2.4598  -2.4132  -2.2774  -2.2633

          k = 0.0000 0.0000 0.9332 ( 34684 PWs)   bands (ev):

   -20.5858 -20.5858 -20.5056 -20.4602 -20.2805 -20.2805 -19.9586 -19.9586
   -19.8361 -19.7965 -19.7695 -19.7695  -8.1231  -8.1231  -7.9847  -7.8838
    -7.8838  -7.8746  -7.4392  -7.3362  -7.3362  -6.8922  -6.8922  -6.8538
    -6.4250  -6.4246  -6.4246  -5.7665  -5.4564  -5.4564  -4.7956  -4.6116
    -4.6116  -4.1558  -4.1558  -3.9873  -2.8654  -2.8654  -2.7411  -2.6802
    -2.6125  -2.6125  -2.5548  -2.4911  -2.4911  -2.3774  -2.3774  -2.2022

          k = 0.4494 0.2595 0.0000 ( 34654 PWs)   bands (ev):

   -20.7128 -20.5453 -20.5389 -20.3432 -20.2078 -20.1969 -20.0617 -20.0545
   -19.8977 -19.8031 -19.7688 -19.6485  -8.1691  -8.1257  -8.0570  -7.9020
    -7.8423  -7.7780  -7.5177  -7.3792  -7.2493  -7.0009  -6.9482  -6.9006
    -6.6669  -6.2876  -6.2101  -5.7798  -5.5250  -5.2565  -4.8061  -4.7666
    -4.5610  -4.2591  -4.1193  -3.7915  -2.8113  -2.8037  -2.7496  -2.6991
    -2.6389  -2.5795  -2.5101  -2.4870  -2.4347  -2.3900  -2.3298  -2.2444

          k = 0.2996 0.1730 0.3111 ( 34693 PWs)   bands (ev):

   -20.7415 -20.4911 -20.4013 -20.3888 -20.3001 -20.2419 -20.0488 -20.0194
   -19.9472 -19.8243 -19.7700 -19.6124  -8.1672  -8.1088  -8.0249  -7.8957
    -7.8902  -7.7381  -7.4662  -7.3357  -7.1547  -7.0804  -7.0335  -6.9342
    -6.6577  -6.1306  -5.9563  -5.8715  -5.6425  -5.2905  -4.9945  -4.7938
    -4.6368  -4.2352  -4.0993  -3.6906  -2.9417  -2.8654  -2.7886  -2.7344
    -2.6359  -2.5945  -2.5181  -2.4853  -2.4009  -2.3600  -2.3007  -2.2839

          k = 0.4494-0.2595-0.9332 ( 34671 PWs)   bands (ev):

   -20.6108 -20.6083 -20.4701 -20.4144 -20.2878 -20.2116 -20.0881 -20.0039
   -19.8600 -19.8058 -19.7544 -19.6710  -8.1960  -8.0962  -8.0553  -7.9026
    -7.8555  -7.7187  -7.5122  -7.2944  -7.1734  -7.1172  -6.9701  -6.9400
    -6.3941  -6.3555  -6.0323  -5.8837  -5.6954  -5.3793  -4.9520  -4.6707
    -4.3665  -4.3276  -4.1414  -3.7605  -2.9406  -2.8852  -2.8476  -2.7347
    -2.6991  -2.6102  -2.4675  -2.4453  -2.4137  -2.3732  -2.3028  -2.2479

          k = 0.2996-0.3460-0.6221 ( 34676 PWs)   bands (ev):

   -20.5657 -20.5595 -20.4584 -20.4475 -20.3199 -20.3180 -20.0078 -20.0003
   -19.8480 -19.8401 -19.7249 -19.7041  -8.2097  -8.0098  -7.9795  -7.9603
    -7.9244  -7.7224  -7.4245  -7.3042  -7.1508  -7.1046  -6.9486  -6.9433
    -6.3585  -6.2306  -6.0677  -5.9408  -5.6172  -5.5813  -4.8700  -4.7977
    -4.3736  -4.3307  -4.1495  -3.7441  -3.0670  -2.9000  -2.8452  -2.7743
    -2.7190  -2.5805  -2.5123  -2.4729  -2.4500  -2.3267  -2.3093  -2.2295

          k = 0.0000 0.0000-1.8663 ( 34626 PWs)   bands (ev):

   -20.5336 -20.5148 -20.4213 -20.4213 -20.4194 -20.4194 -19.9328 -19.9328
   -19.8983 -19.8983 -19.7094 -19.6920  -8.2577  -7.9725  -7.9725  -7.9516
    -7.9516  -7.6912  -7.4748  -7.3018  -7.0548  -7.0548  -7.0238  -7.0238
    -6.1825  -6.0031  -5.9452  -5.9452  -5.9397  -5.9397  -4.6497  -4.6497
    -4.4122  -4.4122  -4.1671  -3.6940  -3.0985  -2.9027  -2.9027  -2.8123
    -2.8123  -2.5252  -2.5073  -2.4089  -2.4089  -2.3400  -2.3400  -2.2040

          k = 0.2996-0.3460 0.3111 ( 34666 PWs)   bands (ev):

   -20.6941 -20.5355 -20.4348 -20.3997 -20.3176 -20.2521 -20.0356 -19.9466
   -19.9015 -19.8444 -19.7640 -19.6611  -8.1628  -8.0885  -8.0054  -7.9406
    -7.8579  -7.7958  -7.4781  -7.3368  -7.2171  -7.0240  -6.9181  -6.9042
    -6.6226  -6.2566  -6.1791  -5.7920  -5.5549  -5.2579  -5.0904  -4.6568
    -4.4973  -4.2795  -4.1606  -3.7831  -2.9311  -2.8238  -2.7828  -2.6915
    -2.6464  -2.5935  -2.5282  -2.5176  -2.4502  -2.3607  -2.3319  -2.2348

     highest occupied level (ev):    -2.2022

!    total energy              =    -413.85471457 Ry
     estimated scf accuracy    <       0.00000002 Ry

     The total energy is the sum of the following terms:
     one-electron contribution =    -291.01146897 Ry
     hartree contribution      =     179.96708177 Ry
     xc contribution           =    -101.26573521 Ry
     ewald contribution        =    -201.54459216 Ry

     convergence has been achieved in  13 iterations

     Forces acting on atoms (cartesian axes, Ry/au):

     atom    1 type  2   force =    -0.03451781    0.06354880    0.03049854
     atom    2 type  2   force =     0.03451781   -0.06354880   -0.03049854
     atom    3 type  2   force =    -0.03777597   -0.06166770    0.03049854
     atom    4 type  2   force =     0.03777597    0.06166770   -0.03049854
     atom    5 type  2   force =     0.07229377   -0.00188110    0.03049854
     atom    6 type  2   force =    -0.07229377    0.00188110   -0.03049854
     atom    7 type  2   force =    -0.03065677    0.02377178   -0.02138408
     atom    8 type  2   force =     0.03065677   -0.02377178    0.02138408
     atom    9 type  2   force =    -0.00525859   -0.03843543   -0.02138408
     atom   10 type  2   force =     0.00525859    0.03843543    0.02138408
     atom   11 type  2   force =     0.03591535    0.01466365   -0.02138408
     atom   12 type  2   force =    -0.03591535   -0.01466365    0.02138408
     atom   13 type  1   force =     0.00318886   -0.02587798   -0.05128815
     atom   14 type  1   force =    -0.00318886    0.02587798    0.05128815
     atom   15 type  1   force =     0.02081656    0.01570063   -0.05128815
     atom   16 type  1   force =    -0.02081656   -0.01570063    0.05128815
     atom   17 type  1   force =    -0.02400542    0.01017735   -0.05128815
     atom   18 type  1   force =     0.02400542   -0.01017735    0.05128815
     atom   19 type  1   force =     0.02975440   -0.04470902    0.01016435
     atom   20 type  1   force =    -0.02975440    0.04470902   -0.01016435
     atom   21 type  1   force =     0.02384195    0.04812257    0.01016435
     atom   22 type  1   force =    -0.02384195   -0.04812257   -0.01016435
     atom   23 type  1   force =    -0.05359634   -0.00341356    0.01016435
     atom   24 type  1   force =     0.05359634    0.00341356   -0.01016435
     atom   25 type  1   force =    -0.01366718   -0.00240114    0.01259204
     atom   26 type  1   force =     0.01366718    0.00240114   -0.01259204
     atom   27 type  1   force =     0.00891304   -0.01063556    0.01259204
     atom   28 type  1   force =    -0.00891304    0.01063556   -0.01259204
     atom   29 type  1   force =     0.00475415    0.01303670    0.01259204
     atom   30 type  1   force =    -0.00475415   -0.01303670   -0.01259204
     atom   31 type  1   force =    -0.02869032   -0.00936130    0.01623132
     atom   32 type  1   force =     0.02869032    0.00936130   -0.01623132
     atom   33 type  1   force =     0.02245228   -0.02016590    0.01623132
     atom   34 type  1   force =    -0.02245228    0.02016590   -0.01623132
     atom   35 type  1   force =     0.00623804    0.02952720    0.01623132
     atom   36 type  1   force =    -0.00623804   -0.02952720   -0.01623132

     Total force =     0.309310     Total SCF correction =     0.000109


     Computing stress (Cartesian axis) and pressure

          total   stress  (Ry/bohr**3)                   (kbar)     P=      -18.26
  -0.00020140   0.00000000   0.00000000          -29.63        0.00        0.00
  -0.00000000  -0.00020140  -0.00000000           -0.00      -29.63       -0.00
  -0.00000000  -0.00000000   0.00003045           -0.00       -0.00        4.48


     Writing all to output data dir ./iceII_2/iceII_2.save/ :
     XML data file, charge density, pseudopotentials, collected wavefunctions

     init_run     :      1.27s CPU      1.34s WALL (       1 calls)
     electrons    :     13.19s CPU     13.59s WALL (       1 calls)
     forces       :      0.16s CPU      0.17s WALL (       1 calls)
     stress       :      1.03s CPU      1.04s WALL (       1 calls)

     Called by init_run:
     wfcinit      :      0.37s CPU      0.38s WALL (       1 calls)
     potinit      :      0.03s CPU      0.05s WALL (       1 calls)
     hinit0       :      0.68s CPU      0.68s WALL (       1 calls)

     Called by electrons:
     c_bands      :     11.10s CPU     11.33s WALL (      13 calls)
     sum_band     :      1.55s CPU      1.57s WALL (      13 calls)
     v_of_rho     :      0.35s CPU      0.41s WALL (      14 calls)
     newd         :      0.09s CPU      0.10s WALL (      14 calls)
     mix_rho      :      0.06s CPU      0.07s WALL (      13 calls)

     Called by c_bands:
     init_us_2    :      0.19s CPU      0.21s WALL (     116 calls)
     cegterg      :     10.73s CPU     10.92s WALL (      52 calls)

     Called by *egterg:
     cdiaghg      :      0.80s CPU      0.80s WALL (     208 calls)
     h_psi        :      8.26s CPU      8.36s WALL (     212 calls)
     s_psi        :      0.36s CPU      0.39s WALL (     212 calls)
     g_psi        :      0.02s CPU      0.02s WALL (     156 calls)

     Called by h_psi:
     h_psi:calbec :      0.63s CPU      0.63s WALL (     212 calls)
     vloc_psi     :      7.18s CPU      7.27s WALL (     212 calls)
     add_vuspsi   :      0.39s CPU      0.39s WALL (     212 calls)

     General routines
     calbec       :      0.85s CPU      0.85s WALL (     284 calls)
     fft          :      0.89s CPU      0.92s WALL (     162 calls)
     ffts         :      0.03s CPU      0.03s WALL (      13 calls)
     fftw         :      7.45s CPU      7.53s WALL (   18824 calls)

     Parallel routines

     PWSCF        :     16.00s CPU     16.87s WALL


   This run was terminated on:  21:44: 0  18Mar2026            

=------------------------------------------------------------------------------=
   JOB DONE.
=------------------------------------------------------------------------------=
