
     Program PWSCF v.7.3.1 starts on 18Mar2026 at 21:41:47 

     This program is part of the open-source Quantum ESPRESSO suite
     for quantum simulation of materials; please cite
         "P. Giannozzi et al., J. Phys.:Condens. Matter 21 395502 (2009);
         "P. Giannozzi et al., J. Phys.:Condens. Matter 29 465901 (2017);
         "P. Giannozzi et al., J. Chem. Phys. 152 154105 (2020);
          URL http://www.quantum-espresso.org", 
     in publications or presentations arising from this work. More details at
     http://www.quantum-espresso.org/quote

     Parallel version (MPI), running on   128 processors

     MPI processes distributed on     1 nodes
     243003 MiB available memory on the printing compute node when the environment starts

     Waiting for input...
     Reading input from standard input

     Current dimensions of program PWSCF are:
     Max number of different atomic species (ntypx) = 10
     Max number of k-points (npk) =  40000
     Max angular momentum in pseudopotentials (lmaxx) =  4

     K-points division:     npool     =       4
     R & G space division:  proc/nbgrp/npool/nimage =      32
     Subspace diagonalization in iterative solution of the eigenvalue problem:
     a serial algorithm will be used


     Parallelization info
     --------------------
     sticks:   dense  smooth     PW     G-vecs:    dense   smooth      PW
     Min         173     173     51                 7152     7152    1140
     Max         174     174     52                 7156     7156    1143
     Sum        5565    5565   1637               228947   228947   36541

     Using Slab Decomposition



     bravais-lattice index     =            5
     lattice parameter (alat)  =      14.7021  a.u.
     unit-cell volume          =    2053.1832 (a.u.)^3
     number of atoms/cell      =           36
     number of atomic types    =            2
     number of electrons       =        96.00
     number of Kohn-Sham states=           48
     kinetic-energy cutoff     =      88.0000  Ry
     charge density cutoff     =     352.0000  Ry
     scf convergence threshold =      1.0E-07
     mixing beta               =       0.7000
     number of iterations used =            8  plain     mixing
     Exchange-correlation=  SLA  PW   PBE  PBE
                           (   1   4   3   4   0   0   0)

     celldm(1)=  14.702068  celldm(2)=   0.000000  celldm(3)=   0.000000
     celldm(4)=  -0.392337  celldm(5)=   0.000000  celldm(6)=   0.000000

     crystal axes: (cart. coord. in units of alat)
               a(1) = (   0.834367  -0.481722   0.267909 )  
               a(2) = (   0.000000   0.963444   0.267909 )  
               a(3) = (  -0.834367  -0.481722   0.267909 )  

     reciprocal axes: (cart. coord. in units 2 pi/alat)
               b(1) = (  0.599257 -0.345981  1.244203 )  
               b(2) = ( -0.000000  0.691962  1.244203 )  
               b(3) = ( -0.599257 -0.345981  1.244203 )  


     PseudoPot. # 1 for H  read from file:
     ./H.pbe-van_ak.UPF
     MD5 check sum: 077eb6d537518a38cb46c6de387227b7
     Pseudo is Ultrasoft, Zval =  1.0
     Generated by new atomic code, or converted to UPF format
     Using radial grid of  615 points,  1 beta functions with: 
                l(1) =   0
     Q(r) pseudized with  8 coefficients,  rinner =    0.800

     PseudoPot. # 2 for O  read from file:
     ./O.pbe-van_ak.UPF
     MD5 check sum: 78c19812648e8988a0fe644b0f25305e
     Pseudo is Ultrasoft, Zval =  6.0
     Generated by new atomic code, or converted to UPF format
     Using radial grid of  737 points,  4 beta functions with: 
                l(1) =   0
                l(2) =   0
                l(3) =   1
                l(4) =   1
     Q(r) pseudized with  8 coefficients,  rinner =    0.800   0.800   0.800


     atomic species   valence    mass     pseudopotential
     H                 1.00     1.00800     H ( 1.00)
     O                 6.00    16.00000     O ( 1.00)

      6 Sym. Ops., with inversion, found



   Cartesian axes

     site n.     atom                  positions (alat units)
         1        O      tau(   1) = (  -0.4847673  -0.5197781   0.3083633  )
         2        O      tau(   2) = (   0.4847673   0.5197782   0.4953638  )
         3        O      tau(   3) = (   0.6925247  -0.1599317   0.3083633  )
         4        O      tau(   4) = (  -0.6925248   0.1599317   0.4953638  )
         5        O      tau(   5) = (  -0.2077574   0.6797099   0.3083633  )
         6        O      tau(   6) = (   0.2077574  -0.6797099   0.4953638  )
         7        O      tau(   7) = (   0.1218176   0.3323883   0.4179381  )
         8        O      tau(   8) = (  -0.1218176  -0.3323883   0.3857890  )
         9        O      tau(   9) = (  -0.3487655  -0.0606970   0.4179381  )
        10        O      tau(  10) = (   0.3487655   0.0606970   0.3857890  )
        11        O      tau(  11) = (   0.2269479  -0.2716913   0.4179381  )
        12        O      tau(  12) = (  -0.2269479   0.2716912   0.3857890  )
        13        H      tau(  13) = (  -0.5381668  -0.4032014   0.2796970  )
        14        H      tau(  14) = (   0.5381668   0.4032014   0.5240301  )
        15        H      tau(  15) = (   0.6182661  -0.2644654   0.2796970  )
        16        H      tau(  16) = (  -0.6182661   0.2644654   0.5240301  )
        17        H      tau(  17) = (  -0.0800993   0.6676668   0.2796970  )
        18        H      tau(  18) = (   0.0800993  -0.6676668   0.5240301  )
        19        H      tau(  19) = (  -0.4872704  -0.4817221   0.4326731  )
        20        H      tau(  20) = (   0.4872704   0.4817221   0.3710540  )
        21        H      tau(  21) = (   0.6608188  -0.1811275   0.4326731  )
        22        H      tau(  22) = (  -0.6608188   0.1811275   0.3710540  )
        23        H      tau(  23) = (  -0.1735484   0.6628496   0.4326731  )
        24        H      tau(  24) = (   0.1735484  -0.6628496   0.3710540  )
        25        H      tau(  25) = (   0.2703349  -0.1502973   0.4058822  )
        26        H      tau(  26) = (  -0.2703350   0.1502973   0.3978449  )
        27        H      tau(  27) = (  -0.0050062   0.3092656   0.4058822  )
        28        H      tau(  28) = (   0.0050062  -0.3092656   0.3978449  )
        29        H      tau(  29) = (  -0.2653287  -0.1589683   0.4058822  )
        30        H      tau(  30) = (   0.2653287   0.1589683   0.3978449  )
        31        H      tau(  31) = (   0.3178939  -0.3347969   0.3493534  )
        32        H      tau(  32) = (  -0.3178939   0.3347969   0.4543737  )
        33        H      tau(  33) = (   0.1309957   0.4427026   0.3493534  )
        34        H      tau(  34) = (  -0.1309956  -0.4427026   0.4543737  )
        35        H      tau(  35) = (  -0.4488895  -0.1079057   0.3493534  )
        36        H      tau(  36) = (   0.4488895   0.1079057   0.4543737  )

     number of k points=    14
                       cart. coord. in units 2pi/alat
        k(    1) = (   0.0000000   0.0000000   0.0000000), wk =   0.0312500
        k(    2) = (  -0.1498141  -0.0864952   0.3110508), wk =   0.1875000
        k(    3) = (   0.2996283   0.1729905  -0.6221017), wk =   0.0937500
        k(    4) = (  -0.1498141   0.0864952   0.6221017), wk =   0.1875000
        k(    5) = (   0.2996283   0.3459809  -0.3110508), wk =   0.1875000
        k(    6) = (   0.1498141   0.2594857   0.0000000), wk =   0.1875000
        k(    7) = (   0.2996283  -0.1729905  -1.2442034), wk =   0.0937500
        k(    8) = (   0.0000000   0.0000000   0.9331525), wk =   0.0625000
        k(    9) = (   0.4494424   0.2594857   0.0000000), wk =   0.1875000
        k(   10) = (   0.2996283   0.1729905   0.3110508), wk =   0.1875000
        k(   11) = (   0.4494424  -0.2594857  -0.9331525), wk =   0.1875000
        k(   12) = (   0.2996283  -0.3459809  -0.6221017), wk =   0.1875000
        k(   13) = (   0.0000000   0.0000000  -1.8663050), wk =   0.0312500
        k(   14) = (   0.2996283  -0.3459809   0.3110508), wk =   0.1875000

     Dense  grid:   228947 G-vectors     FFT dimensions: (  90,  90,  90)

     Estimated max dynamical RAM per process >      15.07 MB

     Estimated total dynamical RAM >       1.72 GB

     Initial potential from superposition of free atoms

     starting charge      95.9998, renormalised to      96.0000
     Starting wfcs are   72 randomized atomic wfcs

     total cpu time spent up to now is        1.2 secs

     per-process dynamical memory:    19.3 Mb

     Self-consistent Calculation

     iteration #  1     ecut=    88.00 Ry     beta= 0.70
     Davidson diagonalization with overlap
     ethr =  1.00E-02,  avg # of iterations =  2.0

     total cpu time spent up to now is        2.0 secs

     total energy              =    -412.28454080 Ry
     estimated scf accuracy    <       3.73977167 Ry

     iteration #  2     ecut=    88.00 Ry     beta= 0.70
     Davidson diagonalization with overlap
     ethr =  3.90E-03,  avg # of iterations =  3.0

     total cpu time spent up to now is        3.0 secs

     total energy              =    -413.46695708 Ry
     estimated scf accuracy    <       2.35315888 Ry

     iteration #  3     ecut=    88.00 Ry     beta= 0.70
     Davidson diagonalization with overlap
     ethr =  2.45E-03,  avg # of iterations =  2.0

     negative rho (up, down):  1.884E-07 0.000E+00

     total cpu time spent up to now is        3.9 secs

     total energy              =    -413.76633504 Ry
     estimated scf accuracy    <       0.10056145 Ry

     iteration #  4     ecut=    88.00 Ry     beta= 0.70
     Davidson diagonalization with overlap
     ethr =  1.05E-04,  avg # of iterations =  4.0

     negative rho (up, down):  3.535E-07 0.000E+00

     total cpu time spent up to now is        5.0 secs

     total energy              =    -413.84492217 Ry
     estimated scf accuracy    <       0.11870401 Ry

     iteration #  5     ecut=    88.00 Ry     beta= 0.70
     Davidson diagonalization with overlap
     ethr =  1.05E-04,  avg # of iterations =  2.0

     negative rho (up, down):  4.021E-07 0.000E+00

     total cpu time spent up to now is        5.7 secs

     total energy              =    -413.84844983 Ry
     estimated scf accuracy    <       0.02015609 Ry

     iteration #  6     ecut=    88.00 Ry     beta= 0.70
     Davidson diagonalization with overlap
     ethr =  2.10E-05,  avg # of iterations =  2.0

     negative rho (up, down):  4.485E-07 0.000E+00

     total cpu time spent up to now is        6.5 secs

     total energy              =    -413.84783185 Ry
     estimated scf accuracy    <       0.00679859 Ry

     iteration #  7     ecut=    88.00 Ry     beta= 0.70
     Davidson diagonalization with overlap
     ethr =  7.08E-06,  avg # of iterations =  3.0

     negative rho (up, down):  4.629E-07 0.000E+00

     total cpu time spent up to now is        7.4 secs

     total energy              =    -413.84941913 Ry
     estimated scf accuracy    <       0.00013791 Ry

     iteration #  8     ecut=    88.00 Ry     beta= 0.70
     Davidson diagonalization with overlap
     ethr =  1.44E-07,  avg # of iterations =  6.0

     negative rho (up, down):  4.558E-07 0.000E+00

     total cpu time spent up to now is        8.8 secs

     total energy              =    -413.84946590 Ry
     estimated scf accuracy    <       0.00096628 Ry

     iteration #  9     ecut=    88.00 Ry     beta= 0.70
     Davidson diagonalization with overlap
     ethr =  1.44E-07,  avg # of iterations =  4.0

     negative rho (up, down):  4.435E-07 0.000E+00

     total cpu time spent up to now is        9.8 secs

     total energy              =    -413.84950005 Ry
     estimated scf accuracy    <       0.00011028 Ry

     iteration # 10     ecut=    88.00 Ry     beta= 0.70
     Davidson diagonalization with overlap
     ethr =  1.15E-07,  avg # of iterations =  2.0

     negative rho (up, down):  4.442E-07 0.000E+00

     total cpu time spent up to now is       10.6 secs

     total energy              =    -413.84952689 Ry
     estimated scf accuracy    <       0.00000055 Ry

     iteration # 11     ecut=    88.00 Ry     beta= 0.70
     Davidson diagonalization with overlap
     ethr =  5.76E-10,  avg # of iterations =  5.0

     negative rho (up, down):  4.435E-07 0.000E+00

     total cpu time spent up to now is       11.8 secs

     End of self-consistent calculation

          k = 0.0000 0.0000 0.0000 ( 28649 PWs)   bands (ev):

   -20.8669 -20.4048 -20.4048 -20.1800 -20.1800 -20.1529 -20.1529 -20.1365
   -20.1341 -19.8297 -19.8297 -19.5143  -8.2121  -8.0118  -7.9536  -7.9536
    -7.8689  -7.8689  -7.4482  -7.2954  -7.2954  -7.0784  -7.0784  -6.9446
    -6.8803  -5.9793  -5.9793  -5.3890  -5.3890  -5.3111  -5.3111  -5.0115
    -4.8236  -4.1791  -4.1791  -3.5154  -2.8125  -2.8125  -2.7119  -2.6326
    -2.5841  -2.5841  -2.4431  -2.4431  -2.4226  -2.4028  -2.3543  -2.3543

          k =-0.1498-0.0865 0.3111 ( 28627 PWs)   bands (ev):

   -20.7924 -20.4458 -20.3926 -20.3255 -20.3016 -20.2269 -20.0818 -20.0386
   -19.9835 -19.8364 -19.7942 -19.5748  -8.1568  -8.0773  -7.9996  -7.9521
    -7.8512  -7.7889  -7.4464  -7.2655  -7.2506  -7.1134  -6.9847  -6.9485
    -6.7434  -6.1266  -5.9954  -5.7249  -5.4020  -5.2639  -5.1238  -4.8984
    -4.8426  -4.1695  -4.1082  -3.6481  -2.9306  -2.8571  -2.7370  -2.6781
    -2.6214  -2.5854  -2.5431  -2.4793  -2.4144  -2.3754  -2.3399  -2.2921

          k = 0.2996 0.1730-0.6221 ( 28590 PWs)   bands (ev):

   -20.5995 -20.5973 -20.4275 -20.4113 -20.3016 -20.2967 -20.0256 -20.0153
   -19.8438 -19.8400 -19.7314 -19.7112  -8.1321  -8.0740  -7.9893  -7.9675
    -7.8558  -7.7937  -7.3928  -7.2681  -7.2264  -7.1234  -6.9007  -6.9000
    -6.4979  -6.3570  -6.0493  -5.8900  -5.4020  -5.3196  -5.1191  -4.9612
    -4.4270  -4.3061  -4.0464  -3.8176  -3.0373  -2.8780  -2.7624  -2.7338
    -2.6605  -2.6393  -2.5488  -2.4885  -2.4698  -2.3371  -2.3256  -2.2461

          k =-0.1498 0.0865 0.6221 ( 28609 PWs)   bands (ev):

   -20.6411 -20.5036 -20.4935 -20.3735 -20.3513 -20.2852 -20.0313 -19.9493
   -19.9141 -19.7958 -19.7773 -19.6853  -8.1400  -8.0513  -8.0326  -7.9251
    -7.8734  -7.7795  -7.3975  -7.3061  -7.2532  -7.0184  -6.9504  -6.8958
    -6.5033  -6.2892  -6.1910  -5.7200  -5.5459  -5.3623  -5.0428  -4.8361
    -4.6320  -4.1350  -4.1100  -3.8319  -3.0141  -2.9218  -2.7508  -2.7039
    -2.6698  -2.6197  -2.5756  -2.4903  -2.4588  -2.3467  -2.3295  -2.2400

          k = 0.2996 0.3460-0.3111 ( 28615 PWs)   bands (ev):

   -20.6946 -20.5371 -20.4280 -20.4052 -20.3211 -20.2519 -20.0349 -19.9328
   -19.9228 -19.8334 -19.7718 -19.6598  -8.1475  -8.1218  -7.9687  -7.9457
    -7.8852  -7.7889  -7.4307  -7.3687  -7.2419  -6.9859  -6.9547  -6.8836
    -6.6306  -6.3247  -6.0846  -5.7417  -5.7009  -5.1954  -5.0100  -4.7476
    -4.5198  -4.2918  -4.0906  -3.8054  -2.9241  -2.8537  -2.7674  -2.6960
    -2.6418  -2.5893  -2.5281  -2.5187  -2.4334  -2.3928  -2.3320  -2.2273

          k = 0.1498 0.2595 0.0000 ( 28613 PWs)   bands (ev):

   -20.8131 -20.4803 -20.4241 -20.2920 -20.2639 -20.1817 -20.1029 -20.0300
   -19.9897 -19.8411 -19.8049 -19.5624  -8.1959  -8.0902  -7.9908  -7.9452
    -7.8261  -7.8198  -7.5031  -7.3608  -7.1721  -7.0819  -7.0137  -6.9007
    -6.8775  -6.1095  -5.9765  -5.7172  -5.6046  -5.1405  -5.0065  -4.8814
    -4.6968  -4.2486  -4.1569  -3.6069  -2.8140  -2.7935  -2.7494  -2.6619
    -2.6222  -2.5951  -2.4775  -2.4619  -2.4273  -2.4184  -2.3136  -2.2991

          k = 0.2996-0.1730-1.2442 ( 28634 PWs)   bands (ev):

   -20.6836 -20.6458 -20.4393 -20.3421 -20.2637 -20.2051 -20.0473 -20.0116
   -19.8975 -19.8759 -19.6951 -19.6786  -8.1752  -8.1363  -8.0014  -7.9658
    -7.8004  -7.7950  -7.5010  -7.4301  -7.1556  -7.1063  -6.9244  -6.8789
    -6.5614  -6.5189  -6.0484  -5.8277  -5.5121  -5.2618  -4.8813  -4.6270
    -4.5178  -4.4528  -4.0065  -3.8186  -2.8306  -2.7800  -2.7624  -2.6964
    -2.6246  -2.5649  -2.5450  -2.4705  -2.4608  -2.4141  -2.2783  -2.2642

          k = 0.0000 0.0000 0.9332 ( 28653 PWs)   bands (ev):

   -20.5863 -20.5863 -20.5062 -20.4607 -20.2811 -20.2811 -19.9591 -19.9591
   -19.8368 -19.7969 -19.7700 -19.7700  -8.1232  -8.1232  -7.9848  -7.8839
    -7.8839  -7.8746  -7.4396  -7.3366  -7.3366  -6.8925  -6.8925  -6.8542
    -6.4256  -6.4249  -6.4249  -5.7667  -5.4568  -5.4568  -4.7965  -4.6119
    -4.6119  -4.1561  -4.1561  -3.9877  -2.8662  -2.8662  -2.7430  -2.6812
    -2.6134  -2.6134  -2.5561  -2.4921  -2.4921  -2.3782  -2.3782  -2.2032

          k = 0.4494 0.2595 0.0000 ( 28646 PWs)   bands (ev):

   -20.7134 -20.5458 -20.5395 -20.3437 -20.2084 -20.1974 -20.0623 -20.0550
   -19.8983 -19.8037 -19.7693 -19.6490  -8.1692  -8.1257  -8.0572  -7.9020
    -7.8423  -7.7780  -7.5181  -7.3796  -7.2497  -7.0013  -6.9485  -6.9010
    -6.6672  -6.2880  -6.2104  -5.7802  -5.5253  -5.2568  -4.8062  -4.7669
    -4.5614  -4.2593  -4.1195  -3.7917  -2.8122  -2.8046  -2.7505  -2.7012
    -2.6399  -2.5805  -2.5110  -2.4879  -2.4357  -2.3909  -2.3306  -2.2454

          k = 0.2996 0.1730 0.3111 ( 28625 PWs)   bands (ev):

   -20.7420 -20.4917 -20.4019 -20.3893 -20.3006 -20.2425 -20.0493 -20.0199
   -19.9477 -19.8249 -19.7706 -19.6130  -8.1675  -8.1089  -8.0250  -7.8957
    -7.8902  -7.7381  -7.4666  -7.3360  -7.1550  -7.0808  -7.0338  -6.9345
    -6.6581  -6.1309  -5.9567  -5.8719  -5.6428  -5.2908  -4.9948  -4.7941
    -4.6370  -4.2355  -4.0995  -3.6909  -2.9426  -2.8664  -2.7898  -2.7355
    -2.6371  -2.5958  -2.5192  -2.4862  -2.4018  -2.3609  -2.3016  -2.2848

          k = 0.4494-0.2595-0.9332 ( 28644 PWs)   bands (ev):

   -20.6113 -20.6088 -20.4706 -20.4149 -20.2884 -20.2122 -20.0886 -20.0045
   -19.8605 -19.8064 -19.7550 -19.6715  -8.1962  -8.0962  -8.0554  -7.9026
    -7.8555  -7.7187  -7.5126  -7.2948  -7.1738  -7.1176  -6.9704  -6.9403
    -6.3944  -6.3558  -6.0327  -5.8842  -5.6958  -5.3796  -4.9523  -4.6709
    -4.3667  -4.3279  -4.1416  -3.7608  -2.9416  -2.8863  -2.8486  -2.7358
    -2.7002  -2.6119  -2.4684  -2.4463  -2.4145  -2.3741  -2.3037  -2.2489

          k = 0.2996-0.3460-0.6221 ( 28626 PWs)   bands (ev):

   -20.5663 -20.5599 -20.4589 -20.4480 -20.3204 -20.3185 -20.0084 -20.0009
   -19.8486 -19.8406 -19.7256 -19.7045  -8.2099  -8.0098  -7.9795  -7.9604
    -7.9244  -7.7223  -7.4248  -7.3046  -7.1511  -7.1049  -6.9489  -6.9436
    -6.3588  -6.2310  -6.0679  -5.9413  -5.6175  -5.5816  -4.8703  -4.7980
    -4.3738  -4.3310  -4.1498  -3.7444  -3.0681  -2.9010  -2.8461  -2.7756
    -2.7201  -2.5816  -2.5137  -2.4738  -2.4509  -2.3275  -2.3102  -2.2304

          k = 0.0000 0.0000-1.8663 ( 28626 PWs)   bands (ev):

   -20.5343 -20.5152 -20.4217 -20.4217 -20.4201 -20.4201 -19.9334 -19.9334
   -19.8987 -19.8987 -19.7101 -19.6924  -8.2580  -7.9725  -7.9725  -7.9516
    -7.9516  -7.6912  -7.4751  -7.3023  -7.0551  -7.0551  -7.0241  -7.0241
    -6.1826  -6.0038  -5.9456  -5.9456  -5.9399  -5.9399  -4.6499  -4.6499
    -4.4125  -4.4125  -4.1673  -3.6943  -3.0996  -2.9037  -2.9037  -2.8134
    -2.8134  -2.5264  -2.5091  -2.4097  -2.4097  -2.3409  -2.3409  -2.2049

          k = 0.2996-0.3460 0.3111 ( 28615 PWs)   bands (ev):

   -20.6946 -20.5360 -20.4354 -20.4001 -20.3181 -20.2527 -20.0361 -19.9472
   -19.9020 -19.8451 -19.7645 -19.6617  -8.1630  -8.0885  -8.0055  -7.9406
    -7.8579  -7.7958  -7.4785  -7.3371  -7.2175  -7.0243  -6.9184  -6.9045
    -6.6229  -6.2569  -6.1795  -5.7922  -5.5552  -5.2583  -5.0908  -4.6571
    -4.4975  -4.2798  -4.1609  -3.7833  -2.9320  -2.8249  -2.7837  -2.6928
    -2.6477  -2.5947  -2.5292  -2.5186  -2.4511  -2.3615  -2.3328  -2.2357

     highest occupied level (ev):    -2.2032

!    total energy              =    -413.84952767 Ry
     estimated scf accuracy    <       0.00000008 Ry

     The total energy is the sum of the following terms:
     one-electron contribution =    -290.98979505 Ry
     hartree contribution      =     179.95020114 Ry
     xc contribution           =    -101.26534160 Ry
     ewald contribution        =    -201.54459216 Ry

     convergence has been achieved in  11 iterations

     Forces acting on atoms (cartesian axes, Ry/au):

     atom    1 type  2   force =    -0.03440772    0.06372635    0.03059151
     atom    2 type  2   force =     0.03440772   -0.06372635   -0.03059151
     atom    3 type  2   force =    -0.03798478   -0.06166114    0.03059151
     atom    4 type  2   force =     0.03798478    0.06166114   -0.03059151
     atom    5 type  2   force =     0.07239250   -0.00206521    0.03059151
     atom    6 type  2   force =    -0.07239250    0.00206521   -0.03059151
     atom    7 type  2   force =    -0.03074994    0.02378616   -0.02144007
     atom    8 type  2   force =     0.03074994   -0.02378616    0.02144007
     atom    9 type  2   force =    -0.00522444   -0.03852331   -0.02144007
     atom   10 type  2   force =     0.00522444    0.03852331    0.02144007
     atom   11 type  2   force =     0.03597439    0.01473715   -0.02144007
     atom   12 type  2   force =    -0.03597439   -0.01473715    0.02144007
     atom   13 type  1   force =     0.00319930   -0.02593145   -0.05126875
     atom   14 type  1   force =    -0.00319930    0.02593145    0.05126875
     atom   15 type  1   force =     0.02085765    0.01573640   -0.05126875
     atom   16 type  1   force =    -0.02085765   -0.01573640    0.05126875
     atom   17 type  1   force =    -0.02405694    0.01019505   -0.05126875
     atom   18 type  1   force =     0.02405694   -0.01019505    0.05126875
     atom   19 type  1   force =     0.02972796   -0.04470957    0.01014608
     atom   20 type  1   force =    -0.02972796    0.04470957   -0.01014608
     atom   21 type  1   force =     0.02385564    0.04809996    0.01014608
     atom   22 type  1   force =    -0.02385564   -0.04809996   -0.01014608
     atom   23 type  1   force =    -0.05358360   -0.00339039    0.01014608
     atom   24 type  1   force =     0.05358360    0.00339039   -0.01014608
     atom   25 type  1   force =    -0.01370952   -0.00244283    0.01258751
     atom   26 type  1   force =     0.01370952    0.00244283   -0.01258751
     atom   27 type  1   force =     0.00897031   -0.01065138    0.01258751
     atom   28 type  1   force =    -0.00897031    0.01065138   -0.01258751
     atom   29 type  1   force =     0.00473921    0.01309421    0.01258751
     atom   30 type  1   force =    -0.00473921   -0.01309421   -0.01258751
     atom   31 type  1   force =    -0.02872310   -0.00933715    0.01624670
     atom   32 type  1   force =     0.02872310    0.00933715   -0.01624670
     atom   33 type  1   force =     0.02244776   -0.02020635    0.01624670
     atom   34 type  1   force =    -0.02244776    0.02020635   -0.01624670
     atom   35 type  1   force =     0.00627534    0.02954351    0.01624670
     atom   36 type  1   force =    -0.00627534   -0.02954351   -0.01624670

     Total force =     0.309617     Total SCF correction =     0.000360


     Computing stress (Cartesian axis) and pressure

          total   stress  (Ry/bohr**3)                   (kbar)     P=      -23.72
  -0.00023864  -0.00000000   0.00000000          -35.10       -0.00        0.00
   0.00000000  -0.00023864  -0.00000000            0.00      -35.10       -0.00
  -0.00000000  -0.00000000  -0.00000649           -0.00       -0.00       -0.95


     Writing all to output data dir ./iceII_2/iceII_2.save/ :
     XML data file, charge density, pseudopotentials, collected wavefunctions

     init_run     :      0.92s CPU      0.97s WALL (       1 calls)
     electrons    :     10.45s CPU     10.71s WALL (       1 calls)
     forces       :      0.12s CPU      0.14s WALL (       1 calls)
     stress       :      0.83s CPU      0.85s WALL (       1 calls)

     Called by init_run:
     wfcinit      :      0.34s CPU      0.35s WALL (       1 calls)
     potinit      :      0.03s CPU      0.05s WALL (       1 calls)
     hinit0       :      0.39s CPU      0.40s WALL (       1 calls)

     Called by electrons:
     c_bands      :      8.89s CPU      9.02s WALL (      11 calls)
     sum_band     :      1.16s CPU      1.17s WALL (      11 calls)
     v_of_rho     :      0.26s CPU      0.30s WALL (      12 calls)
     newd         :      0.09s CPU      0.10s WALL (      12 calls)
     mix_rho      :      0.04s CPU      0.04s WALL (      11 calls)

     Called by c_bands:
     init_us_2    :      0.13s CPU      0.14s WALL (     100 calls)
     cegterg      :      8.56s CPU      8.66s WALL (      44 calls)

     Called by *egterg:
     cdiaghg      :      0.72s CPU      0.72s WALL (     184 calls)
     h_psi        :      6.69s CPU      6.77s WALL (     188 calls)
     s_psi        :      0.27s CPU      0.27s WALL (     188 calls)
     g_psi        :      0.02s CPU      0.02s WALL (     140 calls)

     Called by h_psi:
     h_psi:calbec :      0.47s CPU      0.47s WALL (     188 calls)
     vloc_psi     :      5.90s CPU      5.98s WALL (     188 calls)
     add_vuspsi   :      0.28s CPU      0.28s WALL (     188 calls)

     General routines
     calbec       :      0.62s CPU      0.63s WALL (     252 calls)
     fft          :      0.53s CPU      0.58s WALL (     140 calls)
     ffts         :      0.02s CPU      0.02s WALL (      11 calls)
     fftw         :      6.11s CPU      6.18s WALL (   16564 calls)

     Parallel routines

     PWSCF        :     12.64s CPU     13.34s WALL


   This run was terminated on:  21:42: 0  18Mar2026            

=------------------------------------------------------------------------------=
   JOB DONE.
=------------------------------------------------------------------------------=
