
     Program PWSCF v.7.3.1 starts on 18Mar2026 at 21:37:34 

     This program is part of the open-source Quantum ESPRESSO suite
     for quantum simulation of materials; please cite
         "P. Giannozzi et al., J. Phys.:Condens. Matter 21 395502 (2009);
         "P. Giannozzi et al., J. Phys.:Condens. Matter 29 465901 (2017);
         "P. Giannozzi et al., J. Chem. Phys. 152 154105 (2020);
          URL http://www.quantum-espresso.org", 
     in publications or presentations arising from this work. More details at
     http://www.quantum-espresso.org/quote

     Parallel version (MPI), running on   128 processors

     MPI processes distributed on     1 nodes
     243201 MiB available memory on the printing compute node when the environment starts

     Waiting for input...
     Reading input from standard input

     Current dimensions of program PWSCF are:
     Max number of different atomic species (ntypx) = 10
     Max number of k-points (npk) =  40000
     Max angular momentum in pseudopotentials (lmaxx) =  4

     K-points division:     npool     =       4
     R & G space division:  proc/nbgrp/npool/nimage =      32
     Subspace diagonalization in iterative solution of the eigenvalue problem:
     a serial algorithm will be used


     Parallelization info
     --------------------
     sticks:   dense  smooth     PW     G-vecs:    dense   smooth      PW
     Min         110     110     34                 3632     3632     613
     Max         111     111     35                 3633     3633     615
     Sum        3537    3537   1089               116245   116245   19661

     Using Slab Decomposition



     bravais-lattice index     =            5
     lattice parameter (alat)  =      14.7021  a.u.
     unit-cell volume          =    2053.1832 (a.u.)^3
     number of atoms/cell      =           36
     number of atomic types    =            2
     number of electrons       =        96.00
     number of Kohn-Sham states=           48
     kinetic-energy cutoff     =      56.0000  Ry
     charge density cutoff     =     224.0000  Ry
     scf convergence threshold =      1.0E-07
     mixing beta               =       0.7000
     number of iterations used =            8  plain     mixing
     Exchange-correlation=  SLA  PW   PBE  PBE
                           (   1   4   3   4   0   0   0)

     celldm(1)=  14.702068  celldm(2)=   0.000000  celldm(3)=   0.000000
     celldm(4)=  -0.392337  celldm(5)=   0.000000  celldm(6)=   0.000000

     crystal axes: (cart. coord. in units of alat)
               a(1) = (   0.834367  -0.481722   0.267909 )  
               a(2) = (   0.000000   0.963444   0.267909 )  
               a(3) = (  -0.834367  -0.481722   0.267909 )  

     reciprocal axes: (cart. coord. in units 2 pi/alat)
               b(1) = (  0.599257 -0.345981  1.244203 )  
               b(2) = ( -0.000000  0.691962  1.244203 )  
               b(3) = ( -0.599257 -0.345981  1.244203 )  


     PseudoPot. # 1 for H  read from file:
     ./H.pbe-van_ak.UPF
     MD5 check sum: 077eb6d537518a38cb46c6de387227b7
     Pseudo is Ultrasoft, Zval =  1.0
     Generated by new atomic code, or converted to UPF format
     Using radial grid of  615 points,  1 beta functions with: 
                l(1) =   0
     Q(r) pseudized with  8 coefficients,  rinner =    0.800

     PseudoPot. # 2 for O  read from file:
     ./O.pbe-van_ak.UPF
     MD5 check sum: 78c19812648e8988a0fe644b0f25305e
     Pseudo is Ultrasoft, Zval =  6.0
     Generated by new atomic code, or converted to UPF format
     Using radial grid of  737 points,  4 beta functions with: 
                l(1) =   0
                l(2) =   0
                l(3) =   1
                l(4) =   1
     Q(r) pseudized with  8 coefficients,  rinner =    0.800   0.800   0.800


     atomic species   valence    mass     pseudopotential
     H                 1.00     1.00800     H ( 1.00)
     O                 6.00    16.00000     O ( 1.00)

      6 Sym. Ops., with inversion, found



   Cartesian axes

     site n.     atom                  positions (alat units)
         1        O      tau(   1) = (  -0.4847673  -0.5197781   0.3083633  )
         2        O      tau(   2) = (   0.4847673   0.5197782   0.4953638  )
         3        O      tau(   3) = (   0.6925247  -0.1599317   0.3083633  )
         4        O      tau(   4) = (  -0.6925248   0.1599317   0.4953638  )
         5        O      tau(   5) = (  -0.2077574   0.6797099   0.3083633  )
         6        O      tau(   6) = (   0.2077574  -0.6797099   0.4953638  )
         7        O      tau(   7) = (   0.1218176   0.3323883   0.4179381  )
         8        O      tau(   8) = (  -0.1218176  -0.3323883   0.3857890  )
         9        O      tau(   9) = (  -0.3487655  -0.0606970   0.4179381  )
        10        O      tau(  10) = (   0.3487655   0.0606970   0.3857890  )
        11        O      tau(  11) = (   0.2269479  -0.2716913   0.4179381  )
        12        O      tau(  12) = (  -0.2269479   0.2716912   0.3857890  )
        13        H      tau(  13) = (  -0.5381668  -0.4032014   0.2796970  )
        14        H      tau(  14) = (   0.5381668   0.4032014   0.5240301  )
        15        H      tau(  15) = (   0.6182661  -0.2644654   0.2796970  )
        16        H      tau(  16) = (  -0.6182661   0.2644654   0.5240301  )
        17        H      tau(  17) = (  -0.0800993   0.6676668   0.2796970  )
        18        H      tau(  18) = (   0.0800993  -0.6676668   0.5240301  )
        19        H      tau(  19) = (  -0.4872704  -0.4817221   0.4326731  )
        20        H      tau(  20) = (   0.4872704   0.4817221   0.3710540  )
        21        H      tau(  21) = (   0.6608188  -0.1811275   0.4326731  )
        22        H      tau(  22) = (  -0.6608188   0.1811275   0.3710540  )
        23        H      tau(  23) = (  -0.1735484   0.6628496   0.4326731  )
        24        H      tau(  24) = (   0.1735484  -0.6628496   0.3710540  )
        25        H      tau(  25) = (   0.2703349  -0.1502973   0.4058822  )
        26        H      tau(  26) = (  -0.2703350   0.1502973   0.3978449  )
        27        H      tau(  27) = (  -0.0050062   0.3092656   0.4058822  )
        28        H      tau(  28) = (   0.0050062  -0.3092656   0.3978449  )
        29        H      tau(  29) = (  -0.2653287  -0.1589683   0.4058822  )
        30        H      tau(  30) = (   0.2653287   0.1589683   0.3978449  )
        31        H      tau(  31) = (   0.3178939  -0.3347969   0.3493534  )
        32        H      tau(  32) = (  -0.3178939   0.3347969   0.4543737  )
        33        H      tau(  33) = (   0.1309957   0.4427026   0.3493534  )
        34        H      tau(  34) = (  -0.1309956  -0.4427026   0.4543737  )
        35        H      tau(  35) = (  -0.4488895  -0.1079057   0.3493534  )
        36        H      tau(  36) = (   0.4488895   0.1079057   0.4543737  )

     number of k points=    14
                       cart. coord. in units 2pi/alat
        k(    1) = (   0.0000000   0.0000000   0.0000000), wk =   0.0312500
        k(    2) = (  -0.1498141  -0.0864952   0.3110508), wk =   0.1875000
        k(    3) = (   0.2996283   0.1729905  -0.6221017), wk =   0.0937500
        k(    4) = (  -0.1498141   0.0864952   0.6221017), wk =   0.1875000
        k(    5) = (   0.2996283   0.3459809  -0.3110508), wk =   0.1875000
        k(    6) = (   0.1498141   0.2594857   0.0000000), wk =   0.1875000
        k(    7) = (   0.2996283  -0.1729905  -1.2442034), wk =   0.0937500
        k(    8) = (   0.0000000   0.0000000   0.9331525), wk =   0.0625000
        k(    9) = (   0.4494424   0.2594857   0.0000000), wk =   0.1875000
        k(   10) = (   0.2996283   0.1729905   0.3110508), wk =   0.1875000
        k(   11) = (   0.4494424  -0.2594857  -0.9331525), wk =   0.1875000
        k(   12) = (   0.2996283  -0.3459809  -0.6221017), wk =   0.1875000
        k(   13) = (   0.0000000   0.0000000  -1.8663050), wk =   0.0312500
        k(   14) = (   0.2996283  -0.3459809   0.3110508), wk =   0.1875000

     Dense  grid:   116245 G-vectors     FFT dimensions: (  72,  72,  72)

     Estimated max dynamical RAM per process >       8.37 MB

     Estimated total dynamical RAM >     986.82 MB

     Initial potential from superposition of free atoms

     starting charge      95.9998, renormalised to      96.0000
     Starting wfcs are   72 randomized atomic wfcs

     total cpu time spent up to now is        1.1 secs

     per-process dynamical memory:    14.1 Mb

     Self-consistent Calculation

     iteration #  1     ecut=    56.00 Ry     beta= 0.70
     Davidson diagonalization with overlap
     ethr =  1.00E-02,  avg # of iterations =  2.0

     total cpu time spent up to now is        1.6 secs

     total energy              =    -412.25413183 Ry
     estimated scf accuracy    <       3.72329569 Ry

     iteration #  2     ecut=    56.00 Ry     beta= 0.70
     Davidson diagonalization with overlap
     ethr =  3.88E-03,  avg # of iterations =  3.0

     total cpu time spent up to now is        2.3 secs

     total energy              =    -413.43228101 Ry
     estimated scf accuracy    <       2.33831161 Ry

     iteration #  3     ecut=    56.00 Ry     beta= 0.70
     Davidson diagonalization with overlap
     ethr =  2.44E-03,  avg # of iterations =  2.0

     total cpu time spent up to now is        2.7 secs

     total energy              =    -413.72900354 Ry
     estimated scf accuracy    <       0.09910042 Ry

     iteration #  4     ecut=    56.00 Ry     beta= 0.70
     Davidson diagonalization with overlap
     ethr =  1.03E-04,  avg # of iterations =  4.0

     total cpu time spent up to now is        3.4 secs

     total energy              =    -413.80665361 Ry
     estimated scf accuracy    <       0.11768903 Ry

     iteration #  5     ecut=    56.00 Ry     beta= 0.70
     Davidson diagonalization with overlap
     ethr =  1.03E-04,  avg # of iterations =  2.0

     total cpu time spent up to now is        3.8 secs

     total energy              =    -413.81027013 Ry
     estimated scf accuracy    <       0.01972333 Ry

     iteration #  6     ecut=    56.00 Ry     beta= 0.70
     Davidson diagonalization with overlap
     ethr =  2.05E-05,  avg # of iterations =  2.0

     total cpu time spent up to now is        4.3 secs

     total energy              =    -413.80967406 Ry
     estimated scf accuracy    <       0.00659370 Ry

     iteration #  7     ecut=    56.00 Ry     beta= 0.70
     Davidson diagonalization with overlap
     ethr =  6.87E-06,  avg # of iterations =  3.0

     total cpu time spent up to now is        4.8 secs

     total energy              =    -413.81128013 Ry
     estimated scf accuracy    <       0.00010887 Ry

     iteration #  8     ecut=    56.00 Ry     beta= 0.70
     Davidson diagonalization with overlap
     ethr =  1.13E-07,  avg # of iterations =  6.0

     total cpu time spent up to now is        5.7 secs

     total energy              =    -413.81129499 Ry
     estimated scf accuracy    <       0.00087859 Ry

     iteration #  9     ecut=    56.00 Ry     beta= 0.70
     Davidson diagonalization with overlap
     ethr =  1.13E-07,  avg # of iterations =  4.0

     total cpu time spent up to now is        6.3 secs

     total energy              =    -413.81133594 Ry
     estimated scf accuracy    <       0.00008904 Ry

     iteration # 10     ecut=    56.00 Ry     beta= 0.70
     Davidson diagonalization with overlap
     ethr =  9.27E-08,  avg # of iterations =  2.0

     total cpu time spent up to now is        6.8 secs

     total energy              =    -413.81135259 Ry
     estimated scf accuracy    <       0.00000163 Ry

     iteration # 11     ecut=    56.00 Ry     beta= 0.70
     Davidson diagonalization with overlap
     ethr =  1.70E-09,  avg # of iterations =  4.7

     total cpu time spent up to now is        7.5 secs

     End of self-consistent calculation

          k = 0.0000 0.0000 0.0000 ( 14577 PWs)   bands (ev):

   -20.8710 -20.4091 -20.4091 -20.1844 -20.1844 -20.1573 -20.1573 -20.1410
   -20.1385 -19.8343 -19.8343 -19.5189  -8.2100  -8.0098  -7.9517  -7.9517
    -7.8670  -7.8670  -7.4471  -7.2933  -7.2933  -7.0759  -7.0759  -6.9423
    -6.8776  -5.9779  -5.9779  -5.3875  -5.3875  -5.3097  -5.3097  -5.0099
    -4.8219  -4.1771  -4.1771  -3.5129  -2.8093  -2.8093  -2.7076  -2.6292
    -2.5805  -2.5805  -2.4396  -2.4396  -2.4190  -2.3991  -2.3508  -2.3508

          k =-0.1498-0.0865 0.3111 ( 14556 PWs)   bands (ev):

   -20.7965 -20.4501 -20.3969 -20.3299 -20.3059 -20.2312 -20.0862 -20.0430
   -19.9879 -19.8409 -19.7987 -19.5794  -8.1547  -8.0755  -7.9977  -7.9501
    -7.8493  -7.7869  -7.4448  -7.2633  -7.2487  -7.1111  -6.9822  -6.9460
    -6.7413  -6.1251  -5.9939  -5.7234  -5.4006  -5.2623  -5.1221  -4.8968
    -4.8409  -4.1675  -4.1062  -3.6458  -2.9274  -2.8539  -2.7329  -2.6748
    -2.6177  -2.5816  -2.5395  -2.4758  -2.4109  -2.3719  -2.3364  -2.2885

          k = 0.2996 0.1730-0.6221 ( 14554 PWs)   bands (ev):

   -20.6037 -20.6017 -20.4317 -20.4157 -20.3059 -20.3011 -20.0300 -20.0198
   -19.8482 -19.8446 -19.7358 -19.7158  -8.1303  -8.0720  -7.9873  -7.9655
    -7.8538  -7.7917  -7.3909  -7.2661  -7.2245  -7.1211  -6.8983  -6.8976
    -6.4962  -6.3554  -6.0478  -5.8885  -5.4004  -5.3182  -5.1175  -4.9595
    -4.4252  -4.3042  -4.0444  -3.8155  -3.0342  -2.8749  -2.7592  -2.7300
    -2.6568  -2.6354  -2.5452  -2.4851  -2.4664  -2.3336  -2.3221  -2.2425

          k =-0.1498 0.0865 0.6221 ( 14525 PWs)   bands (ev):

   -20.6453 -20.5078 -20.4978 -20.3778 -20.3556 -20.2895 -20.0357 -19.9537
   -19.9185 -19.8003 -19.7818 -19.6899  -8.1381  -8.0494  -8.0305  -7.9230
    -7.8714  -7.7774  -7.3958  -7.3040  -7.2512  -7.0162  -6.9480  -6.8934
    -6.5016  -6.2878  -6.1894  -5.7184  -5.5444  -5.3607  -5.0412  -4.8343
    -4.6303  -4.1330  -4.1081  -3.8297  -3.0110  -2.9187  -2.7475  -2.6999
    -2.6659  -2.6162  -2.5722  -2.4867  -2.4553  -2.3432  -2.3260  -2.2363

          k = 0.2996 0.3460-0.3111 ( 14524 PWs)   bands (ev):

   -20.6988 -20.5413 -20.4324 -20.4093 -20.3255 -20.2562 -20.0394 -19.9372
   -19.9273 -19.8380 -19.7763 -19.6644  -8.1456  -8.1198  -7.9666  -7.9438
    -7.8833  -7.7869  -7.4288  -7.3666  -7.2398  -6.9837  -6.9523  -6.8811
    -6.6289  -6.3232  -6.0831  -5.7403  -5.6992  -5.1938  -5.0083  -4.7459
    -4.5180  -4.2899  -4.0886  -3.8032  -2.9208  -2.8504  -2.7640  -2.6920
    -2.6383  -2.5857  -2.5245  -2.5152  -2.4299  -2.3893  -2.3285  -2.2237

          k = 0.1498 0.2595 0.0000 ( 14521 PWs)   bands (ev):

   -20.8172 -20.4846 -20.4284 -20.2964 -20.2682 -20.1861 -20.1073 -20.0344
   -19.9941 -19.8456 -19.8095 -19.5670  -8.1938  -8.0884  -7.9889  -7.9432
    -7.8240  -7.8178  -7.5014  -7.3587  -7.1701  -7.0795  -7.0114  -6.8987
    -6.8749  -6.1080  -5.9750  -5.7156  -5.6031  -5.1389  -5.0050  -4.8797
    -4.6950  -4.2467  -4.1549  -3.6045  -2.8108  -2.7902  -2.7457  -2.6581
    -2.6185  -2.5917  -2.4740  -2.4584  -2.4237  -2.4149  -2.3100  -2.2955

          k = 0.2996-0.1730-1.2442 ( 14484 PWs)   bands (ev):

   -20.6878 -20.6500 -20.4436 -20.3464 -20.2680 -20.2095 -20.0517 -20.0160
   -19.9019 -19.8804 -19.6997 -19.6832  -8.1733  -8.1343  -7.9995  -7.9637
    -7.7983  -7.7930  -7.4989  -7.4280  -7.1533  -7.1041  -6.9219  -6.8762
    -6.5600  -6.5175  -6.0469  -5.8260  -5.5105  -5.2602  -4.8796  -4.6252
    -4.5160  -4.4510  -4.0045  -3.8164  -2.8272  -2.7766  -2.7591  -2.6920
    -2.6210  -2.5614  -2.5416  -2.4670  -2.4572  -2.4105  -2.2746  -2.2605

          k = 0.0000 0.0000 0.9332 ( 14523 PWs)   bands (ev):

   -20.5905 -20.5905 -20.5104 -20.4650 -20.2854 -20.2854 -19.9636 -19.9636
   -19.8411 -19.8016 -19.7745 -19.7745  -8.1213  -8.1213  -7.9827  -7.8819
    -7.8819  -7.8726  -7.4375  -7.3345  -7.3345  -6.8900  -6.8900  -6.8516
    -6.4241  -6.4235  -6.4235  -5.7652  -5.4551  -5.4551  -4.7945  -4.6102
    -4.6102  -4.1541  -4.1541  -3.9855  -2.8631  -2.8631  -2.7387  -2.6777
    -2.6099  -2.6099  -2.5522  -2.4886  -2.4886  -2.3748  -2.3748  -2.1994

          k = 0.4494 0.2595 0.0000 ( 14531 PWs)   bands (ev):

   -20.7175 -20.5500 -20.5437 -20.3481 -20.2127 -20.2018 -20.0666 -20.0595
   -19.9027 -19.8082 -19.7739 -19.6536  -8.1672  -8.1239  -8.0552  -7.9000
    -7.8403  -7.7761  -7.5160  -7.3776  -7.2475  -6.9989  -6.9461  -6.8985
    -6.6657  -6.2866  -6.2090  -5.7785  -5.5237  -5.2552  -4.8046  -4.7652
    -4.5595  -4.2574  -4.1175  -3.7895  -2.8089  -2.8013  -2.7471  -2.6968
    -2.6365  -2.5770  -2.5075  -2.4845  -2.4321  -2.3873  -2.3271  -2.2417

          k = 0.2996 0.1730 0.3111 ( 14564 PWs)   bands (ev):

   -20.7462 -20.4959 -20.4062 -20.3936 -20.3050 -20.2468 -20.0538 -20.0243
   -19.9522 -19.8294 -19.7751 -19.6176  -8.1655  -8.1070  -8.0231  -7.8938
    -7.8882  -7.7361  -7.4647  -7.3342  -7.1528  -7.0786  -7.0316  -6.9321
    -6.6562  -6.1294  -5.9552  -5.8703  -5.6413  -5.2894  -4.9932  -4.7924
    -4.6353  -4.2336  -4.0975  -3.6886  -2.9394  -2.8631  -2.7862  -2.7320
    -2.6334  -2.5921  -2.5156  -2.4827  -2.3983  -2.3574  -2.2981  -2.2812

          k = 0.4494-0.2595-0.9332 ( 14497 PWs)   bands (ev):

   -20.6155 -20.6130 -20.4748 -20.4193 -20.2927 -20.2165 -20.0931 -20.0089
   -19.8650 -19.8108 -19.7595 -19.6761  -8.1943  -8.0943  -8.0534  -7.9005
    -7.8534  -7.7166  -7.5106  -7.2927  -7.1716  -7.1153  -6.9681  -6.9379
    -6.3927  -6.3544  -6.0312  -5.8824  -5.6943  -5.3782  -4.9506  -4.6692
    -4.3648  -4.3260  -4.1397  -3.7585  -2.9383  -2.8829  -2.8453  -2.7323
    -2.6967  -2.6077  -2.4648  -2.4427  -2.4111  -2.3705  -2.3001  -2.2452

          k = 0.2996-0.3460-0.6221 ( 14536 PWs)   bands (ev):

   -20.5704 -20.5642 -20.4632 -20.4524 -20.3247 -20.3228 -20.0128 -20.0053
   -19.8531 -19.8451 -19.7300 -19.7092  -8.2080  -8.0078  -7.9775  -7.9584
    -7.9224  -7.7203  -7.4230  -7.3025  -7.1491  -7.1027  -6.9465  -6.9412
    -6.3572  -6.2294  -6.0665  -5.9395  -5.6161  -5.5802  -4.8686  -4.7963
    -4.3720  -4.3291  -4.1478  -3.7422  -3.0649  -2.8977  -2.8429  -2.7719
    -2.7166  -2.5780  -2.5098  -2.4704  -2.4474  -2.3240  -2.3066  -2.2267

          k = 0.0000 0.0000-1.8663 ( 14554 PWs)   bands (ev):

   -20.5384 -20.5197 -20.4261 -20.4261 -20.4242 -20.4242 -19.9377 -19.9377
   -19.9034 -19.9034 -19.7145 -19.6971  -8.2561  -7.9706  -7.9706  -7.9496
    -7.9496  -7.6892  -7.4733  -7.3000  -7.0529  -7.0529  -7.0218  -7.0218
    -6.1810  -6.0017  -5.9441  -5.9441  -5.9387  -5.9387  -4.6482  -4.6482
    -4.4107  -4.4107  -4.1654  -3.6920  -3.0963  -2.9005  -2.9005  -2.8100
    -2.8100  -2.5226  -2.5049  -2.4063  -2.4063  -2.3374  -2.3374  -2.2013

          k = 0.2996-0.3460 0.3111 ( 14524 PWs)   bands (ev):

   -20.6988 -20.5403 -20.4396 -20.4045 -20.3225 -20.2570 -20.0406 -19.9515
   -19.9066 -19.8494 -19.7691 -19.6663  -8.1610  -8.0867  -8.0035  -7.9386
    -7.8559  -7.7938  -7.4765  -7.3351  -7.2153  -7.0222  -6.9159  -6.9020
    -6.6212  -6.2555  -6.1780  -5.7907  -5.5537  -5.2566  -5.0892  -4.6554
    -4.4957  -4.2778  -4.1589  -3.7811  -2.9288  -2.8215  -2.7804  -2.6891
    -2.6440  -2.5910  -2.5257  -2.5151  -2.4476  -2.3581  -2.3293  -2.2321

     highest occupied level (ev):    -2.1994

!    total energy              =    -413.81135362 Ry
     estimated scf accuracy    <       0.00000009 Ry

     The total energy is the sum of the following terms:
     one-electron contribution =    -290.92876015 Ry
     hartree contribution      =     179.92084051 Ry
     xc contribution           =    -101.25884182 Ry
     ewald contribution        =    -201.54459216 Ry

     convergence has been achieved in  11 iterations

     Forces acting on atoms (cartesian axes, Ry/au):

     atom    1 type  2   force =    -0.03447903    0.06350506    0.03046783
     atom    2 type  2   force =     0.03447903   -0.06350506   -0.03046783
     atom    3 type  2   force =    -0.03775748   -0.06161225    0.03046783
     atom    4 type  2   force =     0.03775748    0.06161225   -0.03046783
     atom    5 type  2   force =     0.07223651   -0.00189281    0.03046783
     atom    6 type  2   force =    -0.07223651    0.00189281   -0.03046783
     atom    7 type  2   force =    -0.03065432    0.02368539   -0.02134464
     atom    8 type  2   force =     0.03065432   -0.02368539    0.02134464
     atom    9 type  2   force =    -0.00518499   -0.03839012   -0.02134464
     atom   10 type  2   force =     0.00518499    0.03839012    0.02134464
     atom   11 type  2   force =     0.03583931    0.01470472   -0.02134464
     atom   12 type  2   force =    -0.03583931   -0.01470472    0.02134464
     atom   13 type  1   force =     0.00314187   -0.02579624   -0.05130933
     atom   14 type  1   force =    -0.00314187    0.02579624    0.05130933
     atom   15 type  1   force =     0.02076926    0.01561906   -0.05130933
     atom   16 type  1   force =    -0.02076926   -0.01561906    0.05130933
     atom   17 type  1   force =    -0.02391113    0.01017718   -0.05130933
     atom   18 type  1   force =     0.02391113   -0.01017718    0.05130933
     atom   19 type  1   force =     0.02973805   -0.04464999    0.01029516
     atom   20 type  1   force =    -0.02973805    0.04464999   -0.01029516
     atom   21 type  1   force =     0.02379900    0.04807890    0.01029516
     atom   22 type  1   force =    -0.02379900   -0.04807890   -0.01029516
     atom   23 type  1   force =    -0.05353705   -0.00342891    0.01029516
     atom   24 type  1   force =     0.05353705    0.00342891   -0.01029516
     atom   25 type  1   force =    -0.01360863   -0.00229271    0.01257910
     atom   26 type  1   force =     0.01360863    0.00229271   -0.01257910
     atom   27 type  1   force =     0.00878986   -0.01063907    0.01257910
     atom   28 type  1   force =    -0.00878986    0.01063907   -0.01257910
     atom   29 type  1   force =     0.00481877    0.01293178    0.01257910
     atom   30 type  1   force =    -0.00481877   -0.01293178   -0.01257910
     atom   31 type  1   force =    -0.02861860   -0.00938366    0.01619404
     atom   32 type  1   force =     0.02861860    0.00938366   -0.01619404
     atom   33 type  1   force =     0.02243579   -0.02009260    0.01619404
     atom   34 type  1   force =    -0.02243579    0.02009260   -0.01619404
     atom   35 type  1   force =     0.00618281    0.02947627    0.01619404
     atom   36 type  1   force =    -0.00618281   -0.02947627   -0.01619404

     Total force =     0.309026     Total SCF correction =     0.000504


     Computing stress (Cartesian axis) and pressure

          total   stress  (Ry/bohr**3)                   (kbar)     P=      -21.86
  -0.00022573   0.00000000   0.00000000          -33.21        0.00        0.00
  -0.00000000  -0.00022573  -0.00000000           -0.00      -33.21       -0.00
   0.00000000  -0.00000000   0.00000567            0.00       -0.00        0.83


     Writing all to output data dir ./iceII_2/iceII_2.save/ :
     XML data file, charge density, pseudopotentials, collected wavefunctions

     init_run     :      0.85s CPU      0.92s WALL (       1 calls)
     electrons    :      6.21s CPU      6.38s WALL (       1 calls)
     forces       :      0.05s CPU      0.07s WALL (       1 calls)
     stress       :      0.41s CPU      0.43s WALL (       1 calls)

     Called by init_run:
     wfcinit      :      0.21s CPU      0.22s WALL (       1 calls)
     potinit      :      0.02s CPU      0.03s WALL (       1 calls)
     hinit0       :      0.57s CPU      0.58s WALL (       1 calls)

     Called by electrons:
     c_bands      :      5.39s CPU      5.48s WALL (      11 calls)
     sum_band     :      0.63s CPU      0.67s WALL (      11 calls)
     v_of_rho     :      0.14s CPU      0.15s WALL (      12 calls)
     newd         :      0.02s CPU      0.03s WALL (      12 calls)
     mix_rho      :      0.02s CPU      0.02s WALL (      11 calls)

     Called by c_bands:
     init_us_2    :      0.04s CPU      0.05s WALL (     100 calls)
     cegterg      :      5.29s CPU      5.35s WALL (      44 calls)

     Called by *egterg:
     cdiaghg      :      0.71s CPU      0.71s WALL (     182 calls)
     h_psi        :      4.01s CPU      4.06s WALL (     186 calls)
     s_psi        :      0.14s CPU      0.14s WALL (     186 calls)
     g_psi        :      0.01s CPU      0.01s WALL (     138 calls)

     Called by h_psi:
     h_psi:calbec :      0.24s CPU      0.24s WALL (     186 calls)
     vloc_psi     :      3.60s CPU      3.65s WALL (     186 calls)
     add_vuspsi   :      0.15s CPU      0.15s WALL (     186 calls)

     General routines
     calbec       :      0.31s CPU      0.32s WALL (     250 calls)
     fft          :      0.62s CPU      0.63s WALL (     140 calls)
     ffts         :      0.00s CPU      0.01s WALL (      11 calls)
     fftw         :      3.76s CPU      3.82s WALL (   16434 calls)

     Parallel routines

     PWSCF        :      7.77s CPU      8.31s WALL


   This run was terminated on:  21:37:42  18Mar2026            

=------------------------------------------------------------------------------=
   JOB DONE.
=------------------------------------------------------------------------------=
