
     Program PWSCF v.7.3.1 starts on 18Mar2026 at 21:37:54 

     This program is part of the open-source Quantum ESPRESSO suite
     for quantum simulation of materials; please cite
         "P. Giannozzi et al., J. Phys.:Condens. Matter 21 395502 (2009);
         "P. Giannozzi et al., J. Phys.:Condens. Matter 29 465901 (2017);
         "P. Giannozzi et al., J. Chem. Phys. 152 154105 (2020);
          URL http://www.quantum-espresso.org", 
     in publications or presentations arising from this work. More details at
     http://www.quantum-espresso.org/quote

     Parallel version (MPI), running on   128 processors

     MPI processes distributed on     1 nodes
     243148 MiB available memory on the printing compute node when the environment starts

     Waiting for input...
     Reading input from standard input

     Current dimensions of program PWSCF are:
     Max number of different atomic species (ntypx) = 10
     Max number of k-points (npk) =  40000
     Max angular momentum in pseudopotentials (lmaxx) =  4

     K-points division:     npool     =       4
     R & G space division:  proc/nbgrp/npool/nimage =      32
     Subspace diagonalization in iterative solution of the eigenvalue problem:
     a serial algorithm will be used


     Parallelization info
     --------------------
     sticks:   dense  smooth     PW     G-vecs:    dense   smooth      PW
     Min         114     114     35                 3829     3829     647
     Max         115     115     36                 3832     3832     649
     Sum        3673    3673   1121               122575   122575   20729

     Using Slab Decomposition



     bravais-lattice index     =            5
     lattice parameter (alat)  =      14.7021  a.u.
     unit-cell volume          =    2053.1832 (a.u.)^3
     number of atoms/cell      =           36
     number of atomic types    =            2
     number of electrons       =        96.00
     number of Kohn-Sham states=           48
     kinetic-energy cutoff     =      58.0000  Ry
     charge density cutoff     =     232.0000  Ry
     scf convergence threshold =      1.0E-07
     mixing beta               =       0.7000
     number of iterations used =            8  plain     mixing
     Exchange-correlation=  SLA  PW   PBE  PBE
                           (   1   4   3   4   0   0   0)

     celldm(1)=  14.702068  celldm(2)=   0.000000  celldm(3)=   0.000000
     celldm(4)=  -0.392337  celldm(5)=   0.000000  celldm(6)=   0.000000

     crystal axes: (cart. coord. in units of alat)
               a(1) = (   0.834367  -0.481722   0.267909 )  
               a(2) = (   0.000000   0.963444   0.267909 )  
               a(3) = (  -0.834367  -0.481722   0.267909 )  

     reciprocal axes: (cart. coord. in units 2 pi/alat)
               b(1) = (  0.599257 -0.345981  1.244203 )  
               b(2) = ( -0.000000  0.691962  1.244203 )  
               b(3) = ( -0.599257 -0.345981  1.244203 )  


     PseudoPot. # 1 for H  read from file:
     ./H.pbe-van_ak.UPF
     MD5 check sum: 077eb6d537518a38cb46c6de387227b7
     Pseudo is Ultrasoft, Zval =  1.0
     Generated by new atomic code, or converted to UPF format
     Using radial grid of  615 points,  1 beta functions with: 
                l(1) =   0
     Q(r) pseudized with  8 coefficients,  rinner =    0.800

     PseudoPot. # 2 for O  read from file:
     ./O.pbe-van_ak.UPF
     MD5 check sum: 78c19812648e8988a0fe644b0f25305e
     Pseudo is Ultrasoft, Zval =  6.0
     Generated by new atomic code, or converted to UPF format
     Using radial grid of  737 points,  4 beta functions with: 
                l(1) =   0
                l(2) =   0
                l(3) =   1
                l(4) =   1
     Q(r) pseudized with  8 coefficients,  rinner =    0.800   0.800   0.800


     atomic species   valence    mass     pseudopotential
     H                 1.00     1.00800     H ( 1.00)
     O                 6.00    16.00000     O ( 1.00)

      6 Sym. Ops., with inversion, found



   Cartesian axes

     site n.     atom                  positions (alat units)
         1        O      tau(   1) = (  -0.4847673  -0.5197781   0.3083633  )
         2        O      tau(   2) = (   0.4847673   0.5197782   0.4953638  )
         3        O      tau(   3) = (   0.6925247  -0.1599317   0.3083633  )
         4        O      tau(   4) = (  -0.6925248   0.1599317   0.4953638  )
         5        O      tau(   5) = (  -0.2077574   0.6797099   0.3083633  )
         6        O      tau(   6) = (   0.2077574  -0.6797099   0.4953638  )
         7        O      tau(   7) = (   0.1218176   0.3323883   0.4179381  )
         8        O      tau(   8) = (  -0.1218176  -0.3323883   0.3857890  )
         9        O      tau(   9) = (  -0.3487655  -0.0606970   0.4179381  )
        10        O      tau(  10) = (   0.3487655   0.0606970   0.3857890  )
        11        O      tau(  11) = (   0.2269479  -0.2716913   0.4179381  )
        12        O      tau(  12) = (  -0.2269479   0.2716912   0.3857890  )
        13        H      tau(  13) = (  -0.5381668  -0.4032014   0.2796970  )
        14        H      tau(  14) = (   0.5381668   0.4032014   0.5240301  )
        15        H      tau(  15) = (   0.6182661  -0.2644654   0.2796970  )
        16        H      tau(  16) = (  -0.6182661   0.2644654   0.5240301  )
        17        H      tau(  17) = (  -0.0800993   0.6676668   0.2796970  )
        18        H      tau(  18) = (   0.0800993  -0.6676668   0.5240301  )
        19        H      tau(  19) = (  -0.4872704  -0.4817221   0.4326731  )
        20        H      tau(  20) = (   0.4872704   0.4817221   0.3710540  )
        21        H      tau(  21) = (   0.6608188  -0.1811275   0.4326731  )
        22        H      tau(  22) = (  -0.6608188   0.1811275   0.3710540  )
        23        H      tau(  23) = (  -0.1735484   0.6628496   0.4326731  )
        24        H      tau(  24) = (   0.1735484  -0.6628496   0.3710540  )
        25        H      tau(  25) = (   0.2703349  -0.1502973   0.4058822  )
        26        H      tau(  26) = (  -0.2703350   0.1502973   0.3978449  )
        27        H      tau(  27) = (  -0.0050062   0.3092656   0.4058822  )
        28        H      tau(  28) = (   0.0050062  -0.3092656   0.3978449  )
        29        H      tau(  29) = (  -0.2653287  -0.1589683   0.4058822  )
        30        H      tau(  30) = (   0.2653287   0.1589683   0.3978449  )
        31        H      tau(  31) = (   0.3178939  -0.3347969   0.3493534  )
        32        H      tau(  32) = (  -0.3178939   0.3347969   0.4543737  )
        33        H      tau(  33) = (   0.1309957   0.4427026   0.3493534  )
        34        H      tau(  34) = (  -0.1309956  -0.4427026   0.4543737  )
        35        H      tau(  35) = (  -0.4488895  -0.1079057   0.3493534  )
        36        H      tau(  36) = (   0.4488895   0.1079057   0.4543737  )

     number of k points=    14
                       cart. coord. in units 2pi/alat
        k(    1) = (   0.0000000   0.0000000   0.0000000), wk =   0.0312500
        k(    2) = (  -0.1498141  -0.0864952   0.3110508), wk =   0.1875000
        k(    3) = (   0.2996283   0.1729905  -0.6221017), wk =   0.0937500
        k(    4) = (  -0.1498141   0.0864952   0.6221017), wk =   0.1875000
        k(    5) = (   0.2996283   0.3459809  -0.3110508), wk =   0.1875000
        k(    6) = (   0.1498141   0.2594857   0.0000000), wk =   0.1875000
        k(    7) = (   0.2996283  -0.1729905  -1.2442034), wk =   0.0937500
        k(    8) = (   0.0000000   0.0000000   0.9331525), wk =   0.0625000
        k(    9) = (   0.4494424   0.2594857   0.0000000), wk =   0.1875000
        k(   10) = (   0.2996283   0.1729905   0.3110508), wk =   0.1875000
        k(   11) = (   0.4494424  -0.2594857  -0.9331525), wk =   0.1875000
        k(   12) = (   0.2996283  -0.3459809  -0.6221017), wk =   0.1875000
        k(   13) = (   0.0000000   0.0000000  -1.8663050), wk =   0.0312500
        k(   14) = (   0.2996283  -0.3459809   0.3110508), wk =   0.1875000

     Dense  grid:   122575 G-vectors     FFT dimensions: (  72,  72,  72)

     Estimated max dynamical RAM per process >       8.71 MB

     Estimated total dynamical RAM >       1.00 GB

     Initial potential from superposition of free atoms

     starting charge      95.9998, renormalised to      96.0000
     Starting wfcs are   72 randomized atomic wfcs

     total cpu time spent up to now is        1.1 secs

     per-process dynamical memory:    14.5 Mb

     Self-consistent Calculation

     iteration #  1     ecut=    58.00 Ry     beta= 0.70
     Davidson diagonalization with overlap
     ethr =  1.00E-02,  avg # of iterations =  2.0

     total cpu time spent up to now is        1.7 secs

     total energy              =    -412.25642801 Ry
     estimated scf accuracy    <       3.72358149 Ry

     iteration #  2     ecut=    58.00 Ry     beta= 0.70
     Davidson diagonalization with overlap
     ethr =  3.88E-03,  avg # of iterations =  3.0

     total cpu time spent up to now is        2.3 secs

     total energy              =    -413.43545954 Ry
     estimated scf accuracy    <       2.33576426 Ry

     iteration #  3     ecut=    58.00 Ry     beta= 0.70
     Davidson diagonalization with overlap
     ethr =  2.43E-03,  avg # of iterations =  2.0

     total cpu time spent up to now is        2.8 secs

     total energy              =    -413.73136906 Ry
     estimated scf accuracy    <       0.09916077 Ry

     iteration #  4     ecut=    58.00 Ry     beta= 0.70
     Davidson diagonalization with overlap
     ethr =  1.03E-04,  avg # of iterations =  4.0

     total cpu time spent up to now is        3.5 secs

     total energy              =    -413.80904804 Ry
     estimated scf accuracy    <       0.11748019 Ry

     iteration #  5     ecut=    58.00 Ry     beta= 0.70
     Davidson diagonalization with overlap
     ethr =  1.03E-04,  avg # of iterations =  2.0

     total cpu time spent up to now is        3.9 secs

     total energy              =    -413.81267457 Ry
     estimated scf accuracy    <       0.01980360 Ry

     iteration #  6     ecut=    58.00 Ry     beta= 0.70
     Davidson diagonalization with overlap
     ethr =  2.06E-05,  avg # of iterations =  2.0

     total cpu time spent up to now is        4.4 secs

     total energy              =    -413.81202356 Ry
     estimated scf accuracy    <       0.00677026 Ry

     iteration #  7     ecut=    58.00 Ry     beta= 0.70
     Davidson diagonalization with overlap
     ethr =  7.05E-06,  avg # of iterations =  3.0

     total cpu time spent up to now is        4.9 secs

     total energy              =    -413.81359547 Ry
     estimated scf accuracy    <       0.00013598 Ry

     iteration #  8     ecut=    58.00 Ry     beta= 0.70
     Davidson diagonalization with overlap
     ethr =  1.42E-07,  avg # of iterations =  6.0

     total cpu time spent up to now is        5.8 secs

     total energy              =    -413.81364427 Ry
     estimated scf accuracy    <       0.00092902 Ry

     iteration #  9     ecut=    58.00 Ry     beta= 0.70
     Davidson diagonalization with overlap
     ethr =  1.42E-07,  avg # of iterations =  4.0

     total cpu time spent up to now is        6.4 secs

     total energy              =    -413.81368231 Ry
     estimated scf accuracy    <       0.00009908 Ry

     iteration # 10     ecut=    58.00 Ry     beta= 0.70
     Davidson diagonalization with overlap
     ethr =  1.03E-07,  avg # of iterations =  2.0

     total cpu time spent up to now is        6.9 secs

     total energy              =    -413.81370748 Ry
     estimated scf accuracy    <       0.00000039 Ry

     iteration # 11     ecut=    58.00 Ry     beta= 0.70
     Davidson diagonalization with overlap
     ethr =  4.10E-10,  avg # of iterations =  5.0

     total cpu time spent up to now is        7.7 secs

     End of self-consistent calculation

          k = 0.0000 0.0000 0.0000 ( 15339 PWs)   bands (ev):

   -20.8706 -20.4086 -20.4086 -20.1839 -20.1839 -20.1567 -20.1567 -20.1404
   -20.1379 -19.8337 -19.8337 -19.5183  -8.2103  -8.0101  -7.9520  -7.9520
    -7.8672  -7.8672  -7.4472  -7.2936  -7.2936  -7.0762  -7.0762  -6.9425
    -6.8779  -5.9780  -5.9780  -5.3877  -5.3877  -5.3098  -5.3098  -5.0100
    -4.8220  -4.1773  -4.1773  -3.5132  -2.8092  -2.8092  -2.7078  -2.6291
    -2.5804  -2.5804  -2.4395  -2.4395  -2.4188  -2.3991  -2.3506  -2.3506

          k =-0.1498-0.0865 0.3111 ( 15313 PWs)   bands (ev):

   -20.7960 -20.4496 -20.3964 -20.3293 -20.3054 -20.2307 -20.0857 -20.0424
   -19.9874 -19.8404 -19.7982 -19.5788  -8.1550  -8.0757  -7.9979  -7.9504
    -7.8495  -7.7871  -7.4450  -7.2636  -7.2490  -7.1113  -6.9825  -6.9464
    -6.7415  -6.1253  -5.9940  -5.7235  -5.4007  -5.2625  -5.1223  -4.8969
    -4.8411  -4.1676  -4.1063  -3.6460  -2.9273  -2.8538  -2.7330  -2.6746
    -2.6177  -2.5816  -2.5394  -2.4757  -2.4108  -2.3717  -2.3362  -2.2884

          k = 0.2996 0.1730-0.6221 ( 15316 PWs)   bands (ev):

   -20.6032 -20.6011 -20.4312 -20.4151 -20.3054 -20.3005 -20.0295 -20.0192
   -19.8477 -19.8440 -19.7353 -19.7152  -8.1305  -8.0723  -7.9875  -7.9658
    -7.8540  -7.7919  -7.3912  -7.2663  -7.2247  -7.1214  -6.8986  -6.8979
    -6.4964  -6.3556  -6.0480  -5.8886  -5.4006  -5.3182  -5.1177  -4.9597
    -4.4254  -4.3044  -4.0445  -3.8156  -3.0341  -2.8747  -2.7591  -2.7300
    -2.6568  -2.6355  -2.5451  -2.4849  -2.4662  -2.3334  -2.3220  -2.2423

          k =-0.1498 0.0865 0.6221 ( 15303 PWs)   bands (ev):

   -20.6448 -20.5073 -20.4973 -20.3773 -20.3551 -20.2890 -20.0352 -19.9532
   -19.9180 -19.7998 -19.7812 -19.6894  -8.1384  -8.0496  -8.0308  -7.9233
    -7.8717  -7.7777  -7.3960  -7.3043  -7.2514  -7.0164  -6.9483  -6.8936
    -6.5018  -6.2879  -6.1896  -5.7186  -5.5445  -5.3608  -5.0414  -4.8345
    -4.6305  -4.1332  -4.1083  -3.8299  -3.0109  -2.9185  -2.7474  -2.7000
    -2.6660  -2.6161  -2.5721  -2.4866  -2.4552  -2.3431  -2.3259  -2.2362

          k = 0.2996 0.3460-0.3111 ( 15310 PWs)   bands (ev):

   -20.6983 -20.5408 -20.4319 -20.4089 -20.3249 -20.2557 -20.0388 -19.9367
   -19.9267 -19.8374 -19.7758 -19.6638  -8.1459  -8.1202  -7.9669  -7.9440
    -7.8835  -7.7871  -7.4290  -7.3669  -7.2401  -6.9839  -6.9526  -6.8814
    -6.6291  -6.3234  -6.0832  -5.7404  -5.6993  -5.1939  -5.0085  -4.7461
    -4.5182  -4.2901  -4.0887  -3.8033  -2.9207  -2.8503  -2.7639  -2.6921
    -2.6383  -2.5857  -2.5244  -2.5151  -2.4298  -2.3891  -2.3284  -2.2235

          k = 0.1498 0.2595 0.0000 ( 15328 PWs)   bands (ev):

   -20.8167 -20.4841 -20.4279 -20.2958 -20.2677 -20.1856 -20.1068 -20.0339
   -19.9936 -19.8450 -19.8089 -19.5665  -8.1942  -8.0887  -7.9891  -7.9435
    -7.8243  -7.8181  -7.5016  -7.3590  -7.1703  -7.0798  -7.0117  -6.8990
    -6.8753  -6.1082  -5.9752  -5.7158  -5.6032  -5.1391  -5.0052  -4.8799
    -4.6952  -4.2469  -4.1551  -3.6047  -2.8106  -2.7901  -2.7457  -2.6581
    -2.6185  -2.5916  -2.4739  -2.4583  -2.4236  -2.4148  -2.3099  -2.2953

          k = 0.2996-0.1730-1.2442 ( 15314 PWs)   bands (ev):

   -20.6873 -20.6495 -20.4431 -20.3459 -20.2675 -20.2090 -20.0512 -20.0155
   -19.9014 -19.8799 -19.6991 -19.6826  -8.1736  -8.1347  -7.9998  -7.9640
    -7.7986  -7.7933  -7.4992  -7.4282  -7.1536  -7.1044  -6.9222  -6.8766
    -6.5602  -6.5177  -6.0471  -5.8262  -5.5106  -5.2603  -4.8798  -4.6254
    -4.5162  -4.4511  -4.0047  -3.8166  -2.8271  -2.7765  -2.7590  -2.6922
    -2.6210  -2.5613  -2.5414  -2.4670  -2.4571  -2.4104  -2.2745  -2.2604

          k = 0.0000 0.0000 0.9332 ( 15313 PWs)   bands (ev):

   -20.5900 -20.5900 -20.5099 -20.4645 -20.2849 -20.2849 -19.9630 -19.9630
   -19.8406 -19.8010 -19.7740 -19.7740  -8.1216  -8.1216  -7.9831  -7.8821
    -7.8821  -7.8729  -7.4378  -7.3347  -7.3347  -6.8903  -6.8903  -6.8519
    -6.4243  -6.4237  -6.4237  -5.7653  -5.4553  -5.4553  -4.7948  -4.6103
    -4.6103  -4.1543  -4.1543  -3.9856  -2.8629  -2.8629  -2.7390  -2.6776
    -2.6098  -2.6098  -2.5523  -2.4885  -2.4885  -2.3746  -2.3746  -2.1993

          k = 0.4494 0.2595 0.0000 ( 15322 PWs)   bands (ev):

   -20.7170 -20.5495 -20.5432 -20.3476 -20.2122 -20.2013 -20.0661 -20.0589
   -19.9021 -19.8077 -19.7733 -19.6530  -8.1676  -8.1241  -8.0555  -7.9003
    -7.8405  -7.7763  -7.5163  -7.3778  -7.2478  -6.9992  -6.9464  -6.8988
    -6.6659  -6.2868  -6.2091  -5.7787  -5.5239  -5.2553  -4.8048  -4.7654
    -4.5598  -4.2576  -4.1177  -3.7897  -2.8088  -2.8012  -2.7470  -2.6970
    -2.6363  -2.5769  -2.5074  -2.4843  -2.4320  -2.3872  -2.3270  -2.2416

          k = 0.2996 0.1730 0.3111 ( 15325 PWs)   bands (ev):

   -20.7457 -20.4954 -20.4057 -20.3931 -20.3045 -20.2463 -20.0532 -20.0238
   -19.9516 -19.8288 -19.7746 -19.6170  -8.1658  -8.1073  -8.0233  -7.8940
    -7.8884  -7.7363  -7.4650  -7.3344  -7.1531  -7.0788  -7.0318  -6.9324
    -6.6564  -6.1296  -5.9553  -5.8705  -5.6414  -5.2895  -4.9933  -4.7925
    -4.6354  -4.2337  -4.0977  -3.6887  -2.9393  -2.8630  -2.7862  -2.7319
    -2.6334  -2.5921  -2.5155  -2.4825  -2.3981  -2.3572  -2.2979  -2.2811

          k = 0.4494-0.2595-0.9332 ( 15319 PWs)   bands (ev):

   -20.6150 -20.6125 -20.4743 -20.4188 -20.2922 -20.2160 -20.0925 -20.0084
   -19.8645 -19.8103 -19.7590 -19.6756  -8.1947  -8.0946  -8.0537  -7.9008
    -7.8537  -7.7169  -7.5109  -7.2929  -7.1719  -7.1156  -6.9683  -6.9381
    -6.3930  -6.3546  -6.0314  -5.8826  -5.6944  -5.3784  -4.9507  -4.6693
    -4.3650  -4.3262  -4.1399  -3.7587  -2.9382  -2.8829  -2.8452  -2.7322
    -2.6966  -2.6079  -2.4647  -2.4426  -2.4109  -2.3704  -2.3000  -2.2451

          k = 0.2996-0.3460-0.6221 ( 15302 PWs)   bands (ev):

   -20.5699 -20.5637 -20.4626 -20.4518 -20.3242 -20.3223 -20.0123 -20.0048
   -19.8525 -19.8446 -19.7295 -19.7086  -8.2084  -8.0081  -7.9778  -7.9587
    -7.9226  -7.7205  -7.4232  -7.3028  -7.1493  -7.1029  -6.9467  -6.9415
    -6.3574  -6.2296  -6.0666  -5.9397  -5.6162  -5.5804  -4.8688  -4.7964
    -4.3721  -4.3293  -4.1480  -3.7423  -3.0648  -2.8976  -2.8428  -2.7719
    -2.7165  -2.5779  -2.5098  -2.4702  -2.4472  -2.3239  -2.3065  -2.2266

          k = 0.0000 0.0000-1.8663 ( 15346 PWs)   bands (ev):

   -20.5379 -20.5191 -20.4255 -20.4255 -20.4237 -20.4237 -19.9372 -19.9372
   -19.9028 -19.9028 -19.7140 -19.6966  -8.2564  -7.9709  -7.9709  -7.9498
    -7.9498  -7.6894  -7.4735  -7.3003  -7.0532  -7.0532  -7.0220  -7.0220
    -6.1812  -6.0019  -5.9443  -5.9443  -5.9389  -5.9389  -4.6484  -4.6484
    -4.4108  -4.4108  -4.1657  -3.6922  -3.0963  -2.9003  -2.9003  -2.8099
    -2.8099  -2.5226  -2.5050  -2.4061  -2.4061  -2.3372  -2.3372  -2.2012

          k = 0.2996-0.3460 0.3111 ( 15310 PWs)   bands (ev):

   -20.6983 -20.5397 -20.4391 -20.4040 -20.3219 -20.2565 -20.0400 -19.9510
   -19.9060 -19.8489 -19.7685 -19.6657  -8.1614  -8.0869  -8.0038  -7.9389
    -7.8562  -7.7941  -7.4768  -7.3353  -7.2156  -7.0224  -6.9162  -6.9023
    -6.6214  -6.2557  -6.1782  -5.7908  -5.5538  -5.2568  -5.0894  -4.6556
    -4.4959  -4.2779  -4.1591  -3.7813  -2.9287  -2.8214  -2.7803  -2.6891
    -2.6440  -2.5910  -2.5256  -2.5149  -2.4474  -2.3579  -2.3291  -2.2320

     highest occupied level (ev):    -2.1993

!    total energy              =    -413.81370814 Ry
     estimated scf accuracy    <       0.00000006 Ry

     The total energy is the sum of the following terms:
     one-electron contribution =    -290.92758502 Ry
     hartree contribution      =     179.91789756 Ry
     xc contribution           =    -101.25942849 Ry
     ewald contribution        =    -201.54459220 Ry

     convergence has been achieved in  11 iterations

     Forces acting on atoms (cartesian axes, Ry/au):

     atom    1 type  2   force =    -0.03448241    0.06347934    0.03045793
     atom    2 type  2   force =     0.03448241   -0.06347934   -0.03045793
     atom    3 type  2   force =    -0.03773351   -0.06160231    0.03045793
     atom    4 type  2   force =     0.03773351    0.06160231   -0.03045793
     atom    5 type  2   force =     0.07221592   -0.00187702    0.03045793
     atom    6 type  2   force =    -0.07221592    0.00187702   -0.03045793
     atom    7 type  2   force =    -0.03060955    0.02370696   -0.02139607
     atom    8 type  2   force =     0.03060955   -0.02370696    0.02139607
     atom    9 type  2   force =    -0.00522606   -0.03836212   -0.02139607
     atom   10 type  2   force =     0.00522606    0.03836212    0.02139607
     atom   11 type  2   force =     0.03583560    0.01465516   -0.02139607
     atom   12 type  2   force =    -0.03583560   -0.01465516    0.02139607
     atom   13 type  1   force =     0.00315859   -0.02584183   -0.05127442
     atom   14 type  1   force =    -0.00315859    0.02584183    0.05127442
     atom   15 type  1   force =     0.02080038    0.01565633   -0.05127442
     atom   16 type  1   force =    -0.02080038   -0.01565633    0.05127442
     atom   17 type  1   force =    -0.02395897    0.01018550   -0.05127442
     atom   18 type  1   force =     0.02395897   -0.01018550    0.05127442
     atom   19 type  1   force =     0.02973664   -0.04466567    0.01025435
     atom   20 type  1   force =    -0.02973664    0.04466567   -0.01025435
     atom   21 type  1   force =     0.02381329    0.04808552    0.01025435
     atom   22 type  1   force =    -0.02381329   -0.04808552   -0.01025435
     atom   23 type  1   force =    -0.05354993   -0.00341985    0.01025435
     atom   24 type  1   force =     0.05354993    0.00341985   -0.01025435
     atom   25 type  1   force =    -0.01363491   -0.00233256    0.01257537
     atom   26 type  1   force =     0.01363491    0.00233256   -0.01257537
     atom   27 type  1   force =     0.00883751   -0.01064190    0.01257537
     atom   28 type  1   force =    -0.00883751    0.01064190   -0.01257537
     atom   29 type  1   force =     0.00479740    0.01297446    0.01257537
     atom   30 type  1   force =    -0.00479740   -0.01297446   -0.01257537
     atom   31 type  1   force =    -0.02864810   -0.00936661    0.01620285
     atom   32 type  1   force =     0.02864810    0.00936661   -0.01620285
     atom   33 type  1   force =     0.02243577   -0.02012667    0.01620285
     atom   34 type  1   force =    -0.02243577    0.02012667   -0.01620285
     atom   35 type  1   force =     0.00621233    0.02949329    0.01620285
     atom   36 type  1   force =    -0.00621233   -0.02949329   -0.01620285

     Total force =     0.309013     Total SCF correction =     0.000340


     Computing stress (Cartesian axis) and pressure

          total   stress  (Ry/bohr**3)                   (kbar)     P=      -21.23
  -0.00022158   0.00000000   0.00000000          -32.60        0.00        0.00
  -0.00000000  -0.00022158  -0.00000000           -0.00      -32.60       -0.00
  -0.00000000  -0.00000000   0.00001017           -0.00       -0.00        1.50


     Writing all to output data dir ./iceII_2/iceII_2.save/ :
     XML data file, charge density, pseudopotentials, collected wavefunctions

     init_run     :      0.86s CPU      0.91s WALL (       1 calls)
     electrons    :      6.36s CPU      6.56s WALL (       1 calls)
     forces       :      0.06s CPU      0.07s WALL (       1 calls)
     stress       :      0.44s CPU      0.46s WALL (       1 calls)

     Called by init_run:
     wfcinit      :      0.22s CPU      0.22s WALL (       1 calls)
     potinit      :      0.01s CPU      0.03s WALL (       1 calls)
     hinit0       :      0.56s CPU      0.57s WALL (       1 calls)

     Called by electrons:
     c_bands      :      5.53s CPU      5.65s WALL (      11 calls)
     sum_band     :      0.62s CPU      0.67s WALL (      11 calls)
     v_of_rho     :      0.14s CPU      0.15s WALL (      12 calls)
     newd         :      0.03s CPU      0.03s WALL (      12 calls)
     mix_rho      :      0.02s CPU      0.02s WALL (      11 calls)

     Called by c_bands:
     init_us_2    :      0.05s CPU      0.06s WALL (     100 calls)
     cegterg      :      5.45s CPU      5.54s WALL (      44 calls)

     Called by *egterg:
     cdiaghg      :      0.72s CPU      0.73s WALL (     184 calls)
     h_psi        :      4.11s CPU      4.18s WALL (     188 calls)
     s_psi        :      0.15s CPU      0.15s WALL (     188 calls)
     g_psi        :      0.01s CPU      0.01s WALL (     140 calls)

     Called by h_psi:
     h_psi:calbec :      0.26s CPU      0.26s WALL (     188 calls)
     vloc_psi     :      3.67s CPU      3.74s WALL (     188 calls)
     add_vuspsi   :      0.16s CPU      0.16s WALL (     188 calls)

     General routines
     calbec       :      0.32s CPU      0.34s WALL (     252 calls)
     fft          :      0.62s CPU      0.62s WALL (     140 calls)
     ffts         :      0.00s CPU      0.01s WALL (      11 calls)
     fftw         :      3.81s CPU      3.90s WALL (   16580 calls)

     Parallel routines

     PWSCF        :      7.98s CPU      8.49s WALL


   This run was terminated on:  21:38: 2  18Mar2026            

=------------------------------------------------------------------------------=
   JOB DONE.
=------------------------------------------------------------------------------=
