
     Program PWSCF v.7.3.1 starts on 18Mar2026 at 21:39: 2 

     This program is part of the open-source Quantum ESPRESSO suite
     for quantum simulation of materials; please cite
         "P. Giannozzi et al., J. Phys.:Condens. Matter 21 395502 (2009);
         "P. Giannozzi et al., J. Phys.:Condens. Matter 29 465901 (2017);
         "P. Giannozzi et al., J. Chem. Phys. 152 154105 (2020);
          URL http://www.quantum-espresso.org", 
     in publications or presentations arising from this work. More details at
     http://www.quantum-espresso.org/quote

     Parallel version (MPI), running on   128 processors

     MPI processes distributed on     1 nodes
     243103 MiB available memory on the printing compute node when the environment starts

     Waiting for input...
     Reading input from standard input

     Current dimensions of program PWSCF are:
     Max number of different atomic species (ntypx) = 10
     Max number of k-points (npk) =  40000
     Max angular momentum in pseudopotentials (lmaxx) =  4

     K-points division:     npool     =       4
     R & G space division:  proc/nbgrp/npool/nimage =      32
     Subspace diagonalization in iterative solution of the eigenvalue problem:
     a serial algorithm will be used


     Parallelization info
     --------------------
     sticks:   dense  smooth     PW     G-vecs:    dense   smooth      PW
     Min         134     134     40                 4864     4864     800
     Max         135     135     41                 4868     4868     803
     Sum        4311    4311   1305               155715   155715   25649

     Using Slab Decomposition



     bravais-lattice index     =            5
     lattice parameter (alat)  =      14.7021  a.u.
     unit-cell volume          =    2053.1832 (a.u.)^3
     number of atoms/cell      =           36
     number of atomic types    =            2
     number of electrons       =        96.00
     number of Kohn-Sham states=           48
     kinetic-energy cutoff     =      68.0000  Ry
     charge density cutoff     =     272.0000  Ry
     scf convergence threshold =      1.0E-07
     mixing beta               =       0.7000
     number of iterations used =            8  plain     mixing
     Exchange-correlation=  SLA  PW   PBE  PBE
                           (   1   4   3   4   0   0   0)

     celldm(1)=  14.702068  celldm(2)=   0.000000  celldm(3)=   0.000000
     celldm(4)=  -0.392337  celldm(5)=   0.000000  celldm(6)=   0.000000

     crystal axes: (cart. coord. in units of alat)
               a(1) = (   0.834367  -0.481722   0.267909 )  
               a(2) = (   0.000000   0.963444   0.267909 )  
               a(3) = (  -0.834367  -0.481722   0.267909 )  

     reciprocal axes: (cart. coord. in units 2 pi/alat)
               b(1) = (  0.599257 -0.345981  1.244203 )  
               b(2) = ( -0.000000  0.691962  1.244203 )  
               b(3) = ( -0.599257 -0.345981  1.244203 )  


     PseudoPot. # 1 for H  read from file:
     ./H.pbe-van_ak.UPF
     MD5 check sum: 077eb6d537518a38cb46c6de387227b7
     Pseudo is Ultrasoft, Zval =  1.0
     Generated by new atomic code, or converted to UPF format
     Using radial grid of  615 points,  1 beta functions with: 
                l(1) =   0
     Q(r) pseudized with  8 coefficients,  rinner =    0.800

     PseudoPot. # 2 for O  read from file:
     ./O.pbe-van_ak.UPF
     MD5 check sum: 78c19812648e8988a0fe644b0f25305e
     Pseudo is Ultrasoft, Zval =  6.0
     Generated by new atomic code, or converted to UPF format
     Using radial grid of  737 points,  4 beta functions with: 
                l(1) =   0
                l(2) =   0
                l(3) =   1
                l(4) =   1
     Q(r) pseudized with  8 coefficients,  rinner =    0.800   0.800   0.800


     atomic species   valence    mass     pseudopotential
     H                 1.00     1.00800     H ( 1.00)
     O                 6.00    16.00000     O ( 1.00)

      6 Sym. Ops., with inversion, found



   Cartesian axes

     site n.     atom                  positions (alat units)
         1        O      tau(   1) = (  -0.4847673  -0.5197781   0.3083633  )
         2        O      tau(   2) = (   0.4847673   0.5197782   0.4953638  )
         3        O      tau(   3) = (   0.6925247  -0.1599317   0.3083633  )
         4        O      tau(   4) = (  -0.6925248   0.1599317   0.4953638  )
         5        O      tau(   5) = (  -0.2077574   0.6797099   0.3083633  )
         6        O      tau(   6) = (   0.2077574  -0.6797099   0.4953638  )
         7        O      tau(   7) = (   0.1218176   0.3323883   0.4179381  )
         8        O      tau(   8) = (  -0.1218176  -0.3323883   0.3857890  )
         9        O      tau(   9) = (  -0.3487655  -0.0606970   0.4179381  )
        10        O      tau(  10) = (   0.3487655   0.0606970   0.3857890  )
        11        O      tau(  11) = (   0.2269479  -0.2716913   0.4179381  )
        12        O      tau(  12) = (  -0.2269479   0.2716912   0.3857890  )
        13        H      tau(  13) = (  -0.5381668  -0.4032014   0.2796970  )
        14        H      tau(  14) = (   0.5381668   0.4032014   0.5240301  )
        15        H      tau(  15) = (   0.6182661  -0.2644654   0.2796970  )
        16        H      tau(  16) = (  -0.6182661   0.2644654   0.5240301  )
        17        H      tau(  17) = (  -0.0800993   0.6676668   0.2796970  )
        18        H      tau(  18) = (   0.0800993  -0.6676668   0.5240301  )
        19        H      tau(  19) = (  -0.4872704  -0.4817221   0.4326731  )
        20        H      tau(  20) = (   0.4872704   0.4817221   0.3710540  )
        21        H      tau(  21) = (   0.6608188  -0.1811275   0.4326731  )
        22        H      tau(  22) = (  -0.6608188   0.1811275   0.3710540  )
        23        H      tau(  23) = (  -0.1735484   0.6628496   0.4326731  )
        24        H      tau(  24) = (   0.1735484  -0.6628496   0.3710540  )
        25        H      tau(  25) = (   0.2703349  -0.1502973   0.4058822  )
        26        H      tau(  26) = (  -0.2703350   0.1502973   0.3978449  )
        27        H      tau(  27) = (  -0.0050062   0.3092656   0.4058822  )
        28        H      tau(  28) = (   0.0050062  -0.3092656   0.3978449  )
        29        H      tau(  29) = (  -0.2653287  -0.1589683   0.4058822  )
        30        H      tau(  30) = (   0.2653287   0.1589683   0.3978449  )
        31        H      tau(  31) = (   0.3178939  -0.3347969   0.3493534  )
        32        H      tau(  32) = (  -0.3178939   0.3347969   0.4543737  )
        33        H      tau(  33) = (   0.1309957   0.4427026   0.3493534  )
        34        H      tau(  34) = (  -0.1309956  -0.4427026   0.4543737  )
        35        H      tau(  35) = (  -0.4488895  -0.1079057   0.3493534  )
        36        H      tau(  36) = (   0.4488895   0.1079057   0.4543737  )

     number of k points=    14
                       cart. coord. in units 2pi/alat
        k(    1) = (   0.0000000   0.0000000   0.0000000), wk =   0.0312500
        k(    2) = (  -0.1498141  -0.0864952   0.3110508), wk =   0.1875000
        k(    3) = (   0.2996283   0.1729905  -0.6221017), wk =   0.0937500
        k(    4) = (  -0.1498141   0.0864952   0.6221017), wk =   0.1875000
        k(    5) = (   0.2996283   0.3459809  -0.3110508), wk =   0.1875000
        k(    6) = (   0.1498141   0.2594857   0.0000000), wk =   0.1875000
        k(    7) = (   0.2996283  -0.1729905  -1.2442034), wk =   0.0937500
        k(    8) = (   0.0000000   0.0000000   0.9331525), wk =   0.0625000
        k(    9) = (   0.4494424   0.2594857   0.0000000), wk =   0.1875000
        k(   10) = (   0.2996283   0.1729905   0.3110508), wk =   0.1875000
        k(   11) = (   0.4494424  -0.2594857  -0.9331525), wk =   0.1875000
        k(   12) = (   0.2996283  -0.3459809  -0.6221017), wk =   0.1875000
        k(   13) = (   0.0000000   0.0000000  -1.8663050), wk =   0.0312500
        k(   14) = (   0.2996283  -0.3459809   0.3110508), wk =   0.1875000

     Dense  grid:   155715 G-vectors     FFT dimensions: (  80,  80,  80)

     Estimated max dynamical RAM per process >      10.76 MB

     Estimated total dynamical RAM >       1.23 GB

     Initial potential from superposition of free atoms

     starting charge      95.9998, renormalised to      96.0000
     Starting wfcs are   72 randomized atomic wfcs

     total cpu time spent up to now is        1.2 secs

     per-process dynamical memory:    15.9 Mb

     Self-consistent Calculation

     iteration #  1     ecut=    68.00 Ry     beta= 0.70
     Davidson diagonalization with overlap
     ethr =  1.00E-02,  avg # of iterations =  2.0

     total cpu time spent up to now is        1.8 secs

     total energy              =    -412.26283502 Ry
     estimated scf accuracy    <       3.72191149 Ry

     iteration #  2     ecut=    68.00 Ry     beta= 0.70
     Davidson diagonalization with overlap
     ethr =  3.88E-03,  avg # of iterations =  3.0

     total cpu time spent up to now is        2.6 secs

     total energy              =    -413.43909834 Ry
     estimated scf accuracy    <       2.33831343 Ry

     iteration #  3     ecut=    68.00 Ry     beta= 0.70
     Davidson diagonalization with overlap
     ethr =  2.44E-03,  avg # of iterations =  2.0

     total cpu time spent up to now is        3.1 secs

     total energy              =    -413.73681527 Ry
     estimated scf accuracy    <       0.09891092 Ry

     iteration #  4     ecut=    68.00 Ry     beta= 0.70
     Davidson diagonalization with overlap
     ethr =  1.03E-04,  avg # of iterations =  4.0

     negative rho (up, down):  2.370E-07 0.000E+00

     total cpu time spent up to now is        4.0 secs

     total energy              =    -413.81432119 Ry
     estimated scf accuracy    <       0.11751563 Ry

     iteration #  5     ecut=    68.00 Ry     beta= 0.70
     Davidson diagonalization with overlap
     ethr =  1.03E-04,  avg # of iterations =  2.0

     negative rho (up, down):  3.375E-07 0.000E+00

     total cpu time spent up to now is        4.5 secs

     total energy              =    -413.81794442 Ry
     estimated scf accuracy    <       0.01980992 Ry

     iteration #  6     ecut=    68.00 Ry     beta= 0.70
     Davidson diagonalization with overlap
     ethr =  2.06E-05,  avg # of iterations =  2.0

     negative rho (up, down):  4.287E-07 0.000E+00

     total cpu time spent up to now is        5.0 secs

     total energy              =    -413.81722687 Ry
     estimated scf accuracy    <       0.00681666 Ry

     iteration #  7     ecut=    68.00 Ry     beta= 0.70
     Davidson diagonalization with overlap
     ethr =  7.10E-06,  avg # of iterations =  3.0

     negative rho (up, down):  4.519E-07 0.000E+00

     total cpu time spent up to now is        5.7 secs

     total energy              =    -413.81885583 Ry
     estimated scf accuracy    <       0.00012544 Ry

     iteration #  8     ecut=    68.00 Ry     beta= 0.70
     Davidson diagonalization with overlap
     ethr =  1.31E-07,  avg # of iterations =  6.0

     negative rho (up, down):  4.408E-07 0.000E+00

     total cpu time spent up to now is        6.7 secs

     total energy              =    -413.81888390 Ry
     estimated scf accuracy    <       0.00100569 Ry

     iteration #  9     ecut=    68.00 Ry     beta= 0.70
     Davidson diagonalization with overlap
     ethr =  1.31E-07,  avg # of iterations =  4.0

     negative rho (up, down):  4.145E-07 0.000E+00

     total cpu time spent up to now is        7.5 secs

     total energy              =    -413.81893509 Ry
     estimated scf accuracy    <       0.00009353 Ry

     iteration # 10     ecut=    68.00 Ry     beta= 0.70
     Davidson diagonalization with overlap
     ethr =  9.74E-08,  avg # of iterations =  2.0

     negative rho (up, down):  4.133E-07 0.000E+00

     total cpu time spent up to now is        8.1 secs

     total energy              =    -413.81895555 Ry
     estimated scf accuracy    <       0.00000064 Ry

     iteration # 11     ecut=    68.00 Ry     beta= 0.70
     Davidson diagonalization with overlap
     ethr =  6.64E-10,  avg # of iterations =  5.2

     negative rho (up, down):  4.133E-07 0.000E+00

     total cpu time spent up to now is        9.0 secs

     total energy              =    -413.81895647 Ry
     estimated scf accuracy    <       0.00000028 Ry

     iteration # 12     ecut=    68.00 Ry     beta= 0.70
     Davidson diagonalization with overlap
     ethr =  2.93E-10,  avg # of iterations =  1.0

     negative rho (up, down):  4.143E-07 0.000E+00

     total cpu time spent up to now is        9.4 secs

     total energy              =    -413.81895640 Ry
     estimated scf accuracy    <       0.00000018 Ry

     iteration # 13     ecut=    68.00 Ry     beta= 0.70
     Davidson diagonalization with overlap
     ethr =  1.89E-10,  avg # of iterations =  2.0

     negative rho (up, down):  4.148E-07 0.000E+00

     total cpu time spent up to now is       10.0 secs

     End of self-consistent calculation

          k = 0.0000 0.0000 0.0000 ( 19499 PWs)   bands (ev):

   -20.8713 -20.4094 -20.4094 -20.1848 -20.1848 -20.1576 -20.1576 -20.1413
   -20.1388 -19.8346 -19.8346 -19.5193  -8.2115  -8.0111  -7.9530  -7.9530
    -7.8683  -7.8683  -7.4481  -7.2945  -7.2945  -7.0770  -7.0770  -6.9433
    -6.8787  -5.9788  -5.9788  -5.3886  -5.3886  -5.3107  -5.3107  -5.0110
    -4.8229  -4.1782  -4.1782  -3.5141  -2.8105  -2.8105  -2.7092  -2.6304
    -2.5817  -2.5817  -2.4408  -2.4408  -2.4202  -2.4005  -2.3520  -2.3520

          k =-0.1498-0.0865 0.3111 ( 19442 PWs)   bands (ev):

   -20.7968 -20.4504 -20.3971 -20.3302 -20.3062 -20.2315 -20.0865 -20.0433
   -19.9883 -19.8412 -19.7990 -19.5797  -8.1561  -8.0767  -7.9989  -7.9514
    -7.8506  -7.7882  -7.4459  -7.2645  -7.2498  -7.1121  -6.9833  -6.9471
    -6.7423  -6.1261  -5.9949  -5.7244  -5.4016  -5.2633  -5.1232  -4.8979
    -4.8420  -4.1686  -4.1073  -3.6470  -2.9286  -2.8551  -2.7343  -2.6759
    -2.6190  -2.5830  -2.5408  -2.4770  -2.4121  -2.3730  -2.3375  -2.2897

          k = 0.2996 0.1730-0.6221 ( 19452 PWs)   bands (ev):

   -20.6039 -20.6020 -20.4320 -20.4160 -20.3061 -20.3014 -20.0303 -20.0201
   -19.8485 -19.8450 -19.7362 -19.7162  -8.1315  -8.0734  -7.9887  -7.9668
    -7.8551  -7.7930  -7.3920  -7.2672  -7.2255  -7.1222  -6.8994  -6.8986
    -6.4972  -6.3564  -6.0489  -5.8895  -5.4015  -5.3192  -5.1186  -4.9606
    -4.4263  -4.3053  -4.0455  -3.8166  -3.0354  -2.8760  -2.7604  -2.7313
    -2.6582  -2.6368  -2.5464  -2.4864  -2.4675  -2.3347  -2.3233  -2.2436

          k =-0.1498 0.0865 0.6221 ( 19418 PWs)   bands (ev):

   -20.6456 -20.5081 -20.4981 -20.3781 -20.3559 -20.2898 -20.0361 -19.9541
   -19.9189 -19.8007 -19.7821 -19.6903  -8.1394  -8.0507  -8.0319  -7.9244
    -7.8727  -7.7788  -7.3968  -7.3051  -7.2522  -7.0172  -6.9491  -6.8944
    -6.5025  -6.2888  -6.1905  -5.7194  -5.5455  -5.3618  -5.0422  -4.8354
    -4.6314  -4.1341  -4.1092  -3.8309  -3.0122  -2.9198  -2.7487  -2.7014
    -2.6673  -2.6174  -2.5734  -2.4879  -2.4565  -2.3444  -2.3272  -2.2375

          k = 0.2996 0.3460-0.3111 ( 19446 PWs)   bands (ev):

   -20.6991 -20.5416 -20.4328 -20.4096 -20.3258 -20.2566 -20.0397 -19.9375
   -19.9276 -19.8384 -19.7766 -19.6647  -8.1469  -8.1212  -7.9680  -7.9450
    -7.8846  -7.7882  -7.4298  -7.3678  -7.2409  -6.9847  -6.9533  -6.8822
    -6.6299  -6.3243  -6.0841  -5.7413  -5.7002  -5.1948  -5.0094  -4.7470
    -4.5191  -4.2910  -4.0897  -3.8044  -2.9220  -2.8516  -2.7652  -2.6934
    -2.6396  -2.5870  -2.5257  -2.5164  -2.4311  -2.3904  -2.3297  -2.2249

          k = 0.1498 0.2595 0.0000 ( 19426 PWs)   bands (ev):

   -20.8175 -20.4849 -20.4287 -20.2967 -20.2686 -20.1865 -20.1076 -20.0347
   -19.9944 -19.8459 -19.8098 -19.5674  -8.1953  -8.0897  -7.9901  -7.9445
    -7.8254  -7.8191  -7.5025  -7.3599  -7.1711  -7.0806  -7.0125  -6.8997
    -6.8760  -6.1091  -5.9760  -5.7167  -5.6041  -5.1399  -5.0060  -4.8808
    -4.6961  -4.2478  -4.1560  -3.6057  -2.8119  -2.7914  -2.7470  -2.6595
    -2.6198  -2.5929  -2.4752  -2.4596  -2.4249  -2.4161  -2.3112  -2.2967

          k = 0.2996-0.1730-1.2442 ( 19468 PWs)   bands (ev):

   -20.6881 -20.6503 -20.4439 -20.3467 -20.2684 -20.2099 -20.0520 -20.0164
   -19.9023 -19.8808 -19.7000 -19.6836  -8.1746  -8.1357  -8.0008  -7.9652
    -7.7997  -7.7944  -7.5001  -7.4291  -7.1544  -7.1052  -6.9230  -6.8774
    -6.5611  -6.5186  -6.0480  -5.8271  -5.5115  -5.2612  -4.8807  -4.6263
    -4.5171  -4.4521  -4.0056  -3.8176  -2.8284  -2.7778  -2.7603  -2.6936
    -2.6223  -2.5627  -2.5427  -2.4683  -2.4585  -2.4117  -2.2759  -2.2617

          k = 0.0000 0.0000 0.9332 ( 19441 PWs)   bands (ev):

   -20.5908 -20.5908 -20.5106 -20.4654 -20.2857 -20.2857 -19.9639 -19.9639
   -19.8414 -19.8020 -19.7749 -19.7749  -8.1226  -8.1226  -7.9841  -7.8832
    -7.8832  -7.8740  -7.4386  -7.3356  -7.3356  -6.8911  -6.8911  -6.8527
    -6.4251  -6.4246  -6.4246  -5.7663  -5.4561  -5.4561  -4.7956  -4.6112
    -4.6112  -4.1552  -4.1552  -3.9867  -2.8642  -2.8642  -2.7403  -2.6789
    -2.6112  -2.6112  -2.5536  -2.4898  -2.4898  -2.3759  -2.3759  -2.2006

          k = 0.4494 0.2595 0.0000 ( 19464 PWs)   bands (ev):

   -20.7178 -20.5503 -20.5440 -20.3484 -20.2130 -20.2021 -20.0669 -20.0598
   -19.9030 -19.8086 -19.7742 -19.6539  -8.1686  -8.1252  -8.0565  -7.9014
    -7.8416  -7.7774  -7.5172  -7.3786  -7.2485  -7.0000  -6.9472  -6.8995
    -6.6668  -6.2877  -6.2100  -5.7795  -5.5247  -5.2562  -4.8057  -4.7663
    -4.5606  -4.2585  -4.1187  -3.7907  -2.8101  -2.8025  -2.7483  -2.6984
    -2.6377  -2.5782  -2.5087  -2.4856  -2.4333  -2.3885  -2.3283  -2.2429

          k = 0.2996 0.1730 0.3111 ( 19445 PWs)   bands (ev):

   -20.7465 -20.4962 -20.4065 -20.3939 -20.3053 -20.2471 -20.0541 -20.0246
   -19.9525 -19.8297 -19.7755 -19.6179  -8.1669  -8.1083  -8.0243  -7.8951
    -7.8895  -7.7374  -7.4658  -7.3352  -7.1538  -7.0796  -7.0326  -6.9332
    -6.6572  -6.1305  -5.9561  -5.8713  -5.6423  -5.2904  -4.9942  -4.7935
    -4.6364  -4.2347  -4.0986  -3.6897  -2.9405  -2.8643  -2.7875  -2.7332
    -2.6347  -2.5934  -2.5168  -2.4839  -2.3995  -2.3585  -2.2992  -2.2824

          k = 0.4494-0.2595-0.9332 ( 19429 PWs)   bands (ev):

   -20.6158 -20.6133 -20.4751 -20.4196 -20.2930 -20.2168 -20.0934 -20.0092
   -19.8654 -19.8112 -19.7599 -19.6765  -8.1957  -8.0956  -8.0547  -7.9019
    -7.8548  -7.7180  -7.5117  -7.2937  -7.1727  -7.1163  -6.9691  -6.9389
    -6.3939  -6.3554  -6.0322  -5.8834  -5.6952  -5.3792  -4.9517  -4.6703
    -4.3660  -4.3271  -4.1408  -3.7597  -2.9395  -2.8842  -2.8465  -2.7335
    -2.6979  -2.6093  -2.4660  -2.4439  -2.4123  -2.3717  -2.3013  -2.2464

          k = 0.2996-0.3460-0.6221 ( 19412 PWs)   bands (ev):

   -20.5706 -20.5646 -20.4634 -20.4527 -20.3250 -20.3231 -20.0131 -20.0057
   -19.8534 -19.8455 -19.7303 -19.7096  -8.2094  -8.0092  -7.9789  -7.9597
    -7.9237  -7.7216  -7.4240  -7.3036  -7.1501  -7.1037  -6.9475  -6.9422
    -6.3582  -6.2304  -6.0675  -5.9406  -5.6171  -5.5813  -4.8696  -4.7973
    -4.3731  -4.3302  -4.1489  -3.7433  -3.0661  -2.8989  -2.8441  -2.7732
    -2.7178  -2.5793  -2.5111  -2.4715  -2.4486  -2.3252  -2.3078  -2.2279

          k = 0.0000 0.0000-1.8663 ( 19456 PWs)   bands (ev):

   -20.5386 -20.5200 -20.4265 -20.4265 -20.4244 -20.4244 -19.9380 -19.9380
   -19.9037 -19.9037 -19.7148 -19.6976  -8.2574  -7.9719  -7.9719  -7.9510
    -7.9510  -7.6906  -7.4743  -7.3011  -7.0540  -7.0540  -7.0228  -7.0228
    -6.1821  -6.0027  -5.9451  -5.9451  -5.9397  -5.9397  -4.6492  -4.6492
    -4.4118  -4.4118  -4.1666  -3.6931  -3.0975  -2.9016  -2.9016  -2.8112
    -2.8112  -2.5241  -2.5063  -2.4075  -2.4075  -2.3385  -2.3385  -2.2026

          k = 0.2996-0.3460 0.3111 ( 19446 PWs)   bands (ev):

   -20.6991 -20.5406 -20.4398 -20.4048 -20.3228 -20.2573 -20.0409 -19.9518
   -19.9070 -19.8497 -19.7695 -19.6666  -8.1624  -8.0879  -8.0048  -7.9400
    -7.8573  -7.7951  -7.4776  -7.3362  -7.2164  -7.0232  -6.9170  -6.9031
    -6.6223  -6.2566  -6.1790  -5.7917  -5.5547  -5.2577  -5.0902  -4.6565
    -4.4968  -4.2789  -4.1601  -3.7823  -2.9300  -2.8227  -2.7816  -2.6904
    -2.6453  -2.5923  -2.5269  -2.5163  -2.4488  -2.3592  -2.3304  -2.2333

     highest occupied level (ev):    -2.2006

!    total energy              =    -413.81895642 Ry
     estimated scf accuracy    <       0.00000001 Ry

     The total energy is the sum of the following terms:
     one-electron contribution =    -290.93694097 Ry
     hartree contribution      =     179.92362174 Ry
     xc contribution           =    -101.26104502 Ry
     ewald contribution        =    -201.54459216 Ry

     convergence has been achieved in  13 iterations

     Forces acting on atoms (cartesian axes, Ry/au):

     atom    1 type  2   force =    -0.03451382    0.06366256    0.03054285
     atom    2 type  2   force =     0.03451382   -0.06366256   -0.03054285
     atom    3 type  2   force =    -0.03787648   -0.06172113    0.03054285
     atom    4 type  2   force =     0.03787648    0.06172113   -0.03054285
     atom    5 type  2   force =     0.07239030   -0.00194143    0.03054285
     atom    6 type  2   force =    -0.07239030    0.00194143   -0.03054285
     atom    7 type  2   force =    -0.03076595    0.02377253   -0.02135196
     atom    8 type  2   force =     0.03076595   -0.02377253    0.02135196
     atom    9 type  2   force =    -0.00520464   -0.03853036   -0.02135196
     atom   10 type  2   force =     0.00520464    0.03853036    0.02135196
     atom   11 type  2   force =     0.03597059    0.01475783   -0.02135196
     atom   12 type  2   force =    -0.03597059   -0.01475783    0.02135196
     atom   13 type  1   force =     0.00320567   -0.02596271   -0.05123828
     atom   14 type  1   force =    -0.00320567    0.02596271    0.05123828
     atom   15 type  1   force =     0.02088153    0.01575755   -0.05123828
     atom   16 type  1   force =    -0.02088153   -0.01575755    0.05123828
     atom   17 type  1   force =    -0.02408720    0.01020516   -0.05123828
     atom   18 type  1   force =     0.02408720   -0.01020516    0.05123828
     atom   19 type  1   force =     0.02973912   -0.04469061    0.01010089
     atom   20 type  1   force =    -0.02973912    0.04469061   -0.01010089
     atom   21 type  1   force =     0.02383364    0.04810014    0.01010089
     atom   22 type  1   force =    -0.02383364   -0.04810014   -0.01010089
     atom   23 type  1   force =    -0.05357276   -0.00340953    0.01010089
     atom   24 type  1   force =     0.05357276    0.00340953   -0.01010089
     atom   25 type  1   force =    -0.01368215   -0.00246197    0.01259367
     atom   26 type  1   force =     0.01368215    0.00246197   -0.01259367
     atom   27 type  1   force =     0.00897320   -0.01061810    0.01259367
     atom   28 type  1   force =    -0.00897320    0.01061810   -0.01259367
     atom   29 type  1   force =     0.00470895    0.01308007    0.01259367
     atom   30 type  1   force =    -0.00470895   -0.01308007   -0.01259367
     atom   31 type  1   force =    -0.02875526   -0.00929564    0.01627407
     atom   32 type  1   force =     0.02875526    0.00929564   -0.01627407
     atom   33 type  1   force =     0.02242789   -0.02025496    0.01627407
     atom   34 type  1   force =    -0.02242789    0.02025496   -0.01627407
     atom   35 type  1   force =     0.00632737    0.02955060    0.01627407
     atom   36 type  1   force =    -0.00632737   -0.02955060   -0.01627407

     Total force =     0.309528     Total SCF correction =     0.000084


     Computing stress (Cartesian axis) and pressure

          total   stress  (Ry/bohr**3)                   (kbar)     P=      -20.20
  -0.00021468  -0.00000000   0.00000000          -31.58       -0.00        0.00
   0.00000000  -0.00021468  -0.00000000            0.00      -31.58       -0.00
   0.00000000  -0.00000000   0.00001747            0.00       -0.00        2.57


     Writing all to output data dir ./iceII_2/iceII_2.save/ :
     XML data file, charge density, pseudopotentials, collected wavefunctions

     init_run     :      0.92s CPU      0.98s WALL (       1 calls)
     electrons    :      8.66s CPU      8.85s WALL (       1 calls)
     forces       :      0.08s CPU      0.09s WALL (       1 calls)
     stress       :      0.55s CPU      0.58s WALL (       1 calls)

     Called by init_run:
     wfcinit      :      0.25s CPU      0.27s WALL (       1 calls)
     potinit      :      0.02s CPU      0.04s WALL (       1 calls)
     hinit0       :      0.56s CPU      0.57s WALL (       1 calls)

     Called by electrons:
     c_bands      :      7.42s CPU      7.52s WALL (      13 calls)
     sum_band     :      0.95s CPU      0.97s WALL (      13 calls)
     v_of_rho     :      0.19s CPU      0.22s WALL (      14 calls)
     newd         :      0.04s CPU      0.04s WALL (      14 calls)
     mix_rho      :      0.03s CPU      0.03s WALL (      13 calls)

     Called by c_bands:
     init_us_2    :      0.09s CPU      0.09s WALL (     116 calls)
     cegterg      :      7.26s CPU      7.34s WALL (      52 calls)

     Called by *egterg:
     cdiaghg      :      0.78s CPU      0.79s WALL (     204 calls)
     h_psi        :      5.59s CPU      5.65s WALL (     208 calls)
     s_psi        :      0.20s CPU      0.21s WALL (     208 calls)
     g_psi        :      0.01s CPU      0.01s WALL (     152 calls)

     Called by h_psi:
     h_psi:calbec :      0.37s CPU      0.38s WALL (     208 calls)
     vloc_psi     :      4.96s CPU      5.02s WALL (     208 calls)
     add_vuspsi   :      0.22s CPU      0.23s WALL (     208 calls)

     General routines
     calbec       :      0.48s CPU      0.49s WALL (     280 calls)
     fft          :      0.64s CPU      0.65s WALL (     162 calls)
     ffts         :      0.01s CPU      0.01s WALL (      13 calls)
     fftw         :      5.16s CPU      5.22s WALL (   18770 calls)

     Parallel routines

     PWSCF        :     10.46s CPU     11.07s WALL


   This run was terminated on:  21:39:13  18Mar2026            

=------------------------------------------------------------------------------=
   JOB DONE.
=------------------------------------------------------------------------------=
