
     Program PWSCF v.7.3.1 starts on 18Mar2026 at 21:36:23 

     This program is part of the open-source Quantum ESPRESSO suite
     for quantum simulation of materials; please cite
         "P. Giannozzi et al., J. Phys.:Condens. Matter 21 395502 (2009);
         "P. Giannozzi et al., J. Phys.:Condens. Matter 29 465901 (2017);
         "P. Giannozzi et al., J. Chem. Phys. 152 154105 (2020);
          URL http://www.quantum-espresso.org", 
     in publications or presentations arising from this work. More details at
     http://www.quantum-espresso.org/quote

     Parallel version (MPI), running on   128 processors

     MPI processes distributed on     1 nodes
     243242 MiB available memory on the printing compute node when the environment starts

     Waiting for input...
     Reading input from standard input

     Current dimensions of program PWSCF are:
     Max number of different atomic species (ntypx) = 10
     Max number of k-points (npk) =  40000
     Max angular momentum in pseudopotentials (lmaxx) =  4

     K-points division:     npool     =       4
     R & G space division:  proc/nbgrp/npool/nimage =      32
     Subspace diagonalization in iterative solution of the eigenvalue problem:
     a serial algorithm will be used


     Parallelization info
     --------------------
     sticks:   dense  smooth     PW     G-vecs:    dense   smooth      PW
     Min          87      87     27                 2527     2527     442
     Max          88      88     28                 2530     2530     444
     Sum        2785    2785    871                80921    80921   14163

     Using Slab Decomposition



     bravais-lattice index     =            5
     lattice parameter (alat)  =      14.7021  a.u.
     unit-cell volume          =    2053.1832 (a.u.)^3
     number of atoms/cell      =           36
     number of atomic types    =            2
     number of electrons       =        96.00
     number of Kohn-Sham states=           48
     kinetic-energy cutoff     =      44.0000  Ry
     charge density cutoff     =     176.0000  Ry
     scf convergence threshold =      1.0E-07
     mixing beta               =       0.7000
     number of iterations used =            8  plain     mixing
     Exchange-correlation=  SLA  PW   PBE  PBE
                           (   1   4   3   4   0   0   0)

     celldm(1)=  14.702068  celldm(2)=   0.000000  celldm(3)=   0.000000
     celldm(4)=  -0.392337  celldm(5)=   0.000000  celldm(6)=   0.000000

     crystal axes: (cart. coord. in units of alat)
               a(1) = (   0.834367  -0.481722   0.267909 )  
               a(2) = (   0.000000   0.963444   0.267909 )  
               a(3) = (  -0.834367  -0.481722   0.267909 )  

     reciprocal axes: (cart. coord. in units 2 pi/alat)
               b(1) = (  0.599257 -0.345981  1.244203 )  
               b(2) = ( -0.000000  0.691962  1.244203 )  
               b(3) = ( -0.599257 -0.345981  1.244203 )  


     PseudoPot. # 1 for H  read from file:
     ./H.pbe-van_ak.UPF
     MD5 check sum: 077eb6d537518a38cb46c6de387227b7
     Pseudo is Ultrasoft, Zval =  1.0
     Generated by new atomic code, or converted to UPF format
     Using radial grid of  615 points,  1 beta functions with: 
                l(1) =   0
     Q(r) pseudized with  8 coefficients,  rinner =    0.800

     PseudoPot. # 2 for O  read from file:
     ./O.pbe-van_ak.UPF
     MD5 check sum: 78c19812648e8988a0fe644b0f25305e
     Pseudo is Ultrasoft, Zval =  6.0
     Generated by new atomic code, or converted to UPF format
     Using radial grid of  737 points,  4 beta functions with: 
                l(1) =   0
                l(2) =   0
                l(3) =   1
                l(4) =   1
     Q(r) pseudized with  8 coefficients,  rinner =    0.800   0.800   0.800


     atomic species   valence    mass     pseudopotential
     H                 1.00     1.00800     H ( 1.00)
     O                 6.00    16.00000     O ( 1.00)

      6 Sym. Ops., with inversion, found



   Cartesian axes

     site n.     atom                  positions (alat units)
         1        O      tau(   1) = (  -0.4847673  -0.5197781   0.3083633  )
         2        O      tau(   2) = (   0.4847673   0.5197782   0.4953638  )
         3        O      tau(   3) = (   0.6925247  -0.1599317   0.3083633  )
         4        O      tau(   4) = (  -0.6925248   0.1599317   0.4953638  )
         5        O      tau(   5) = (  -0.2077574   0.6797099   0.3083633  )
         6        O      tau(   6) = (   0.2077574  -0.6797099   0.4953638  )
         7        O      tau(   7) = (   0.1218176   0.3323883   0.4179381  )
         8        O      tau(   8) = (  -0.1218176  -0.3323883   0.3857890  )
         9        O      tau(   9) = (  -0.3487655  -0.0606970   0.4179381  )
        10        O      tau(  10) = (   0.3487655   0.0606970   0.3857890  )
        11        O      tau(  11) = (   0.2269479  -0.2716913   0.4179381  )
        12        O      tau(  12) = (  -0.2269479   0.2716912   0.3857890  )
        13        H      tau(  13) = (  -0.5381668  -0.4032014   0.2796970  )
        14        H      tau(  14) = (   0.5381668   0.4032014   0.5240301  )
        15        H      tau(  15) = (   0.6182661  -0.2644654   0.2796970  )
        16        H      tau(  16) = (  -0.6182661   0.2644654   0.5240301  )
        17        H      tau(  17) = (  -0.0800993   0.6676668   0.2796970  )
        18        H      tau(  18) = (   0.0800993  -0.6676668   0.5240301  )
        19        H      tau(  19) = (  -0.4872704  -0.4817221   0.4326731  )
        20        H      tau(  20) = (   0.4872704   0.4817221   0.3710540  )
        21        H      tau(  21) = (   0.6608188  -0.1811275   0.4326731  )
        22        H      tau(  22) = (  -0.6608188   0.1811275   0.3710540  )
        23        H      tau(  23) = (  -0.1735484   0.6628496   0.4326731  )
        24        H      tau(  24) = (   0.1735484  -0.6628496   0.3710540  )
        25        H      tau(  25) = (   0.2703349  -0.1502973   0.4058822  )
        26        H      tau(  26) = (  -0.2703350   0.1502973   0.3978449  )
        27        H      tau(  27) = (  -0.0050062   0.3092656   0.4058822  )
        28        H      tau(  28) = (   0.0050062  -0.3092656   0.3978449  )
        29        H      tau(  29) = (  -0.2653287  -0.1589683   0.4058822  )
        30        H      tau(  30) = (   0.2653287   0.1589683   0.3978449  )
        31        H      tau(  31) = (   0.3178939  -0.3347969   0.3493534  )
        32        H      tau(  32) = (  -0.3178939   0.3347969   0.4543737  )
        33        H      tau(  33) = (   0.1309957   0.4427026   0.3493534  )
        34        H      tau(  34) = (  -0.1309956  -0.4427026   0.4543737  )
        35        H      tau(  35) = (  -0.4488895  -0.1079057   0.3493534  )
        36        H      tau(  36) = (   0.4488895   0.1079057   0.4543737  )

     number of k points=    14
                       cart. coord. in units 2pi/alat
        k(    1) = (   0.0000000   0.0000000   0.0000000), wk =   0.0312500
        k(    2) = (  -0.1498141  -0.0864952   0.3110508), wk =   0.1875000
        k(    3) = (   0.2996283   0.1729905  -0.6221017), wk =   0.0937500
        k(    4) = (  -0.1498141   0.0864952   0.6221017), wk =   0.1875000
        k(    5) = (   0.2996283   0.3459809  -0.3110508), wk =   0.1875000
        k(    6) = (   0.1498141   0.2594857   0.0000000), wk =   0.1875000
        k(    7) = (   0.2996283  -0.1729905  -1.2442034), wk =   0.0937500
        k(    8) = (   0.0000000   0.0000000   0.9331525), wk =   0.0625000
        k(    9) = (   0.4494424   0.2594857   0.0000000), wk =   0.1875000
        k(   10) = (   0.2996283   0.1729905   0.3110508), wk =   0.1875000
        k(   11) = (   0.4494424  -0.2594857  -0.9331525), wk =   0.1875000
        k(   12) = (   0.2996283  -0.3459809  -0.6221017), wk =   0.1875000
        k(   13) = (   0.0000000   0.0000000  -1.8663050), wk =   0.0312500
        k(   14) = (   0.2996283  -0.3459809   0.3110508), wk =   0.1875000

     Dense  grid:    80921 G-vectors     FFT dimensions: (  64,  64,  64)

     Estimated max dynamical RAM per process >       5.93 MB

     Estimated total dynamical RAM >     700.29 MB

     Initial potential from superposition of free atoms

     starting charge      95.9998, renormalised to      96.0000
     Starting wfcs are   72 randomized atomic wfcs

     total cpu time spent up to now is        0.8 secs

     per-process dynamical memory:    11.0 Mb

     Self-consistent Calculation

     iteration #  1     ecut=    44.00 Ry     beta= 0.70
     Davidson diagonalization with overlap
     ethr =  1.00E-02,  avg # of iterations =  2.0

     total cpu time spent up to now is        1.1 secs

     total energy              =    -412.21863348 Ry
     estimated scf accuracy    <       3.70842410 Ry

     iteration #  2     ecut=    44.00 Ry     beta= 0.70
     Davidson diagonalization with overlap
     ethr =  3.86E-03,  avg # of iterations =  3.0

     total cpu time spent up to now is        1.5 secs

     total energy              =    -413.39063552 Ry
     estimated scf accuracy    <       2.34224305 Ry

     iteration #  3     ecut=    44.00 Ry     beta= 0.70
     Davidson diagonalization with overlap
     ethr =  2.44E-03,  avg # of iterations =  2.0

     total cpu time spent up to now is        1.8 secs

     total energy              =    -413.68777910 Ry
     estimated scf accuracy    <       0.09736377 Ry

     iteration #  4     ecut=    44.00 Ry     beta= 0.70
     Davidson diagonalization with overlap
     ethr =  1.01E-04,  avg # of iterations =  4.0

     negative rho (up, down):  9.349E-07 0.000E+00

     total cpu time spent up to now is        2.3 secs

     total energy              =    -413.76520396 Ry
     estimated scf accuracy    <       0.11903546 Ry

     iteration #  5     ecut=    44.00 Ry     beta= 0.70
     Davidson diagonalization with overlap
     ethr =  1.01E-04,  avg # of iterations =  2.0

     negative rho (up, down):  1.227E-06 0.000E+00

     total cpu time spent up to now is        2.6 secs

     total energy              =    -413.76900869 Ry
     estimated scf accuracy    <       0.02040371 Ry

     iteration #  6     ecut=    44.00 Ry     beta= 0.70
     Davidson diagonalization with overlap
     ethr =  2.13E-05,  avg # of iterations =  2.0

     negative rho (up, down):  1.489E-06 0.000E+00

     total cpu time spent up to now is        2.8 secs

     total energy              =    -413.76785993 Ry
     estimated scf accuracy    <       0.00778517 Ry

     iteration #  7     ecut=    44.00 Ry     beta= 0.70
     Davidson diagonalization with overlap
     ethr =  8.11E-06,  avg # of iterations =  3.0

     negative rho (up, down):  1.582E-06 0.000E+00

     total cpu time spent up to now is        3.2 secs

     total energy              =    -413.76955593 Ry
     estimated scf accuracy    <       0.00018474 Ry

     iteration #  8     ecut=    44.00 Ry     beta= 0.70
     Davidson diagonalization with overlap
     ethr =  1.92E-07,  avg # of iterations =  6.0

     negative rho (up, down):  1.553E-06 0.000E+00

     total cpu time spent up to now is        3.7 secs

     total energy              =    -413.76965224 Ry
     estimated scf accuracy    <       0.00107138 Ry

     iteration #  9     ecut=    44.00 Ry     beta= 0.70
     Davidson diagonalization with overlap
     ethr =  1.92E-07,  avg # of iterations =  3.8

     negative rho (up, down):  1.456E-06 0.000E+00

     total cpu time spent up to now is        4.1 secs

     total energy              =    -413.76972441 Ry
     estimated scf accuracy    <       0.00008022 Ry

     iteration # 10     ecut=    44.00 Ry     beta= 0.70
     Davidson diagonalization with overlap
     ethr =  8.36E-08,  avg # of iterations =  2.9

     negative rho (up, down):  1.472E-06 0.000E+00

     total cpu time spent up to now is        4.5 secs

     total energy              =    -413.76975247 Ry
     estimated scf accuracy    <       0.00000345 Ry

     iteration # 11     ecut=    44.00 Ry     beta= 0.70
     Davidson diagonalization with overlap
     ethr =  3.59E-09,  avg # of iterations =  2.1

     negative rho (up, down):  1.469E-06 0.000E+00

     total cpu time spent up to now is        4.8 secs

     End of self-consistent calculation

          k = 0.0000 0.0000 0.0000 ( 10143 PWs)   bands (ev):

   -20.8780 -20.4162 -20.4162 -20.1916 -20.1916 -20.1644 -20.1644 -20.1482
   -20.1457 -19.8416 -19.8416 -19.5263  -8.2093  -8.0088  -7.9506  -7.9506
    -7.8656  -7.8656  -7.4469  -7.2920  -7.2920  -7.0744  -7.0744  -6.9405
    -6.8760  -5.9769  -5.9769  -5.3867  -5.3867  -5.3086  -5.3086  -5.0090
    -4.8204  -4.1758  -4.1758  -3.5111  -2.8090  -2.8090  -2.7082  -2.6286
    -2.5805  -2.5805  -2.4397  -2.4397  -2.4188  -2.3987  -2.3503  -2.3503

          k =-0.1498-0.0865 0.3111 ( 10116 PWs)   bands (ev):

   -20.8035 -20.4572 -20.4040 -20.3370 -20.3130 -20.2384 -20.0934 -20.0502
   -19.9952 -19.8482 -19.8060 -19.5867  -8.1537  -8.0744  -7.9965  -7.9490
    -7.8479  -7.7855  -7.4439  -7.2620  -7.2476  -7.1095  -6.9806  -6.9441
    -6.7397  -6.1243  -5.9929  -5.7226  -5.3995  -5.2614  -5.1210  -4.8956
    -4.8398  -4.1660  -4.1047  -3.6440  -2.9271  -2.8536  -2.7331  -2.6742
    -2.6176  -2.5814  -2.5392  -2.4757  -2.4104  -2.3716  -2.3359  -2.2881

          k = 0.2996 0.1730-0.6221 ( 10120 PWs)   bands (ev):

   -20.6107 -20.6087 -20.4388 -20.4228 -20.3130 -20.3082 -20.0372 -20.0270
   -19.8555 -19.8519 -19.7432 -19.7232  -8.1294  -8.0709  -7.9861  -7.9644
    -7.8525  -7.7904  -7.3899  -7.2648  -7.2232  -7.1195  -6.8963  -6.8956
    -6.4949  -6.3545  -6.0469  -5.8876  -5.3995  -5.3172  -5.1167  -4.9586
    -4.4238  -4.3031  -4.0427  -3.8140  -3.0340  -2.8745  -2.7588  -2.7300
    -2.6569  -2.6357  -2.5450  -2.4845  -2.4663  -2.3334  -2.3218  -2.2419

          k =-0.1498 0.0865 0.6221 ( 10114 PWs)   bands (ev):

   -20.6523 -20.5149 -20.5049 -20.3849 -20.3627 -20.2966 -20.0430 -19.9610
   -19.9258 -19.8077 -19.7891 -19.6973  -8.1372  -8.0483  -8.0293  -7.9218
    -7.8701  -7.7760  -7.3948  -7.3027  -7.2498  -7.0144  -6.9461  -6.8912
    -6.5003  -6.2869  -6.1885  -5.7174  -5.5435  -5.3598  -5.0403  -4.8334
    -4.6292  -4.1315  -4.1066  -3.8283  -3.0107  -2.9183  -2.7472  -2.7000
    -2.6661  -2.6160  -2.5719  -2.4866  -2.4549  -2.3429  -2.3258  -2.2359

          k = 0.2996 0.3460-0.3111 ( 10135 PWs)   bands (ev):

   -20.7058 -20.5483 -20.4396 -20.4164 -20.3326 -20.2634 -20.0466 -19.9445
   -19.9345 -19.8453 -19.7836 -19.6718  -8.1446  -8.1189  -7.9655  -7.9426
    -7.8820  -7.7856  -7.4277  -7.3655  -7.2386  -6.9821  -6.9505  -6.8794
    -6.6280  -6.3226  -6.0823  -5.7394  -5.6980  -5.1925  -5.0074  -4.7446
    -4.5166  -4.2887  -4.0870  -3.8017  -2.9206  -2.8502  -2.7639  -2.6922
    -2.6382  -2.5858  -2.5243  -2.5150  -2.4295  -2.3890  -2.3283  -2.2233

          k = 0.1498 0.2595 0.0000 ( 10140 PWs)   bands (ev):

   -20.8241 -20.4916 -20.4355 -20.3035 -20.2754 -20.1934 -20.1145 -20.0417
   -20.0014 -19.8529 -19.8168 -19.5744  -8.1930  -8.0875  -7.9877  -7.9421
    -7.8228  -7.8165  -7.5005  -7.3576  -7.1690  -7.0781  -7.0101  -6.8973
    -6.8732  -6.1073  -5.9741  -5.7148  -5.6021  -5.1377  -5.0037  -4.8786
    -4.6937  -4.2453  -4.1535  -3.6028  -2.8106  -2.7899  -2.7459  -2.6582
    -2.6185  -2.5918  -2.4738  -2.4582  -2.4234  -2.4145  -2.3097  -2.2953

          k = 0.2996-0.1730-1.2442 ( 10120 PWs)   bands (ev):

   -20.6948 -20.6570 -20.4506 -20.3536 -20.2752 -20.2167 -20.0589 -20.0233
   -19.9092 -19.8877 -19.7070 -19.6906  -8.1722  -8.1334  -7.9984  -7.9626
    -7.7969  -7.7918  -7.4979  -7.4269  -7.1520  -7.1028  -6.9202  -6.8746
    -6.5593  -6.5169  -6.0462  -5.8252  -5.5094  -5.2588  -4.8782  -4.6238
    -4.5146  -4.4497  -4.0029  -3.8149  -2.8269  -2.7764  -2.7587  -2.6924
    -2.6212  -2.5611  -2.5413  -2.4668  -2.4569  -2.4100  -2.2744  -2.2600

          k = 0.0000 0.0000 0.9332 ( 10121 PWs)   bands (ev):

   -20.5975 -20.5975 -20.5174 -20.4722 -20.2926 -20.2926 -19.9708 -19.9708
   -19.8484 -19.8090 -19.7818 -19.7818  -8.1202  -8.1202  -7.9814  -7.8807
    -7.8807  -7.8713  -7.4364  -7.3334  -7.3334  -6.8880  -6.8880  -6.8500
    -6.4236  -6.4227  -6.4227  -5.7643  -5.4539  -5.4539  -4.7937  -4.6088
    -4.6088  -4.1525  -4.1525  -3.9844  -2.8627  -2.8627  -2.7391  -2.6773
    -2.6099  -2.6099  -2.5520  -2.4883  -2.4883  -2.3744  -2.3744  -2.1991

          k = 0.4494 0.2595 0.0000 ( 10129 PWs)   bands (ev):

   -20.7245 -20.5570 -20.5507 -20.3553 -20.2199 -20.2090 -20.0739 -20.0667
   -19.9099 -19.8155 -19.7812 -19.6610  -8.1663  -8.1229  -8.0542  -7.8987
    -7.8391  -7.7746  -7.5149  -7.3765  -7.2463  -6.9975  -6.9444  -6.8968
    -6.6648  -6.2859  -6.2082  -5.7776  -5.5226  -5.2539  -4.8033  -4.7639
    -4.5583  -4.2560  -4.1161  -3.7880  -2.8087  -2.8011  -2.7467  -2.6973
    -2.6364  -2.5769  -2.5074  -2.4843  -2.4318  -2.3867  -2.3267  -2.2413

          k = 0.2996 0.1730 0.3111 ( 10100 PWs)   bands (ev):

   -20.7531 -20.5030 -20.4133 -20.4007 -20.3121 -20.2540 -20.0610 -20.0315
   -19.9595 -19.8367 -19.7825 -19.6249  -8.1645  -8.1058  -8.0219  -7.8924
    -7.8869  -7.7346  -7.4636  -7.3331  -7.1513  -7.0769  -7.0300  -6.9302
    -6.6549  -6.1285  -5.9541  -5.8693  -5.6403  -5.2882  -4.9919  -4.7909
    -4.6340  -4.2321  -4.0959  -3.6869  -2.9390  -2.8630  -2.7860  -2.7319
    -2.6332  -2.5921  -2.5154  -2.4821  -2.3977  -2.3571  -2.2976  -2.2807

          k = 0.4494-0.2595-0.9332 ( 10107 PWs)   bands (ev):

   -20.6225 -20.6200 -20.4819 -20.4264 -20.2999 -20.2237 -20.1003 -20.0161
   -19.8723 -19.8182 -19.7669 -19.6835  -8.1934  -8.0931  -8.0523  -7.8992
    -7.8521  -7.7152  -7.5095  -7.2915  -7.1703  -7.1138  -6.9663  -6.9362
    -6.3918  -6.3536  -6.0302  -5.8813  -5.6932  -5.3771  -4.9493  -4.6678
    -4.3635  -4.3244  -4.1382  -3.7568  -2.9380  -2.8830  -2.8451  -2.7322
    -2.6966  -2.6078  -2.4644  -2.4425  -2.4106  -2.3700  -2.2998  -2.2447

          k = 0.2996-0.3460-0.6221 ( 10110 PWs)   bands (ev):

   -20.5774 -20.5713 -20.4702 -20.4595 -20.3318 -20.3299 -20.0200 -20.0126
   -19.8603 -19.8524 -19.7373 -19.7166  -8.2072  -8.0066  -7.9763  -7.9572
    -7.9210  -7.7189  -7.4219  -7.3012  -7.1476  -7.1010  -6.9445  -6.9392
    -6.3561  -6.2284  -6.0655  -5.9385  -5.6152  -5.5794  -4.8675  -4.7951
    -4.3707  -4.3279  -4.1463  -3.7405  -3.0646  -2.8976  -2.8428  -2.7719
    -2.7165  -2.5778  -2.5097  -2.4700  -2.4469  -2.3237  -2.3063  -2.2263

          k = 0.0000 0.0000-1.8663 ( 10058 PWs)   bands (ev):

   -20.5454 -20.5268 -20.4332 -20.4332 -20.4312 -20.4312 -19.9450 -19.9450
   -19.9106 -19.9106 -19.7218 -19.7045  -8.2551  -7.9693  -7.9693  -7.9482
    -7.9482  -7.6876  -7.4722  -7.2984  -7.0512  -7.0512  -7.0196  -7.0196
    -6.1797  -6.0005  -5.9429  -5.9429  -5.9378  -5.9378  -4.6465  -4.6465
    -4.4094  -4.4094  -4.1636  -3.6898  -3.0960  -2.9005  -2.9005  -2.8097
    -2.8097  -2.5218  -2.5048  -2.4056  -2.4056  -2.3369  -2.3369  -2.2004

          k = 0.2996-0.3460 0.3111 ( 10135 PWs)   bands (ev):

   -20.7057 -20.5473 -20.4467 -20.4116 -20.3296 -20.2642 -20.0478 -19.9588
   -19.9139 -19.8567 -19.7764 -19.6736  -8.1600  -8.0857  -8.0025  -7.9375
    -7.8547  -7.7926  -7.4755  -7.3339  -7.2140  -7.0207  -6.9141  -6.9004
    -6.6201  -6.2549  -6.1772  -5.7897  -5.5527  -5.2554  -5.0883  -4.6542
    -4.4944  -4.2765  -4.1576  -3.7796  -2.9286  -2.8214  -2.7802  -2.6892
    -2.6441  -2.5910  -2.5257  -2.5147  -2.4472  -2.3577  -2.3290  -2.2316

     highest occupied level (ev):    -2.1991

!    total energy              =    -413.76975326 Ry
     estimated scf accuracy    <       0.00000008 Ry

     The total energy is the sum of the following terms:
     one-electron contribution =    -290.84947207 Ry
     hartree contribution      =     179.86942755 Ry
     xc contribution           =    -101.24511657 Ry
     ewald contribution        =    -201.54459217 Ry

     convergence has been achieved in  11 iterations

     Forces acting on atoms (cartesian axes, Ry/au):

     atom    1 type  2   force =    -0.03443964    0.06347303    0.03033092
     atom    2 type  2   force =     0.03443964   -0.06347303   -0.03033092
     atom    3 type  2   force =    -0.03774944   -0.06156212    0.03033092
     atom    4 type  2   force =     0.03774944    0.06156212   -0.03033092
     atom    5 type  2   force =     0.07218908   -0.00191092    0.03033092
     atom    6 type  2   force =    -0.07218908    0.00191092   -0.03033092
     atom    7 type  2   force =    -0.03060317    0.02392241   -0.02133927
     atom    8 type  2   force =     0.03060317   -0.02392241    0.02133927
     atom    9 type  2   force =    -0.00541583   -0.03846432   -0.02133927
     atom   10 type  2   force =     0.00541583    0.03846432    0.02133927
     atom   11 type  2   force =     0.03601900    0.01454192   -0.02133927
     atom   12 type  2   force =    -0.03601900   -0.01454192    0.02133927
     atom   13 type  1   force =     0.00317424   -0.02588908   -0.05127746
     atom   14 type  1   force =    -0.00317424    0.02588908    0.05127746
     atom   15 type  1   force =     0.02083348    0.01569351   -0.05127746
     atom   16 type  1   force =    -0.02083348   -0.01569351    0.05127746
     atom   17 type  1   force =    -0.02400772    0.01019557   -0.05127746
     atom   18 type  1   force =     0.02400772   -0.01019557    0.05127746
     atom   19 type  1   force =     0.02974197   -0.04468342    0.01020650
     atom   20 type  1   force =    -0.02974197    0.04468342   -0.01020650
     atom   21 type  1   force =     0.02382599    0.04809901    0.01020650
     atom   22 type  1   force =    -0.02382599   -0.04809901   -0.01020650
     atom   23 type  1   force =    -0.05356796   -0.00341559    0.01020650
     atom   24 type  1   force =     0.05356796    0.00341559   -0.01020650
     atom   25 type  1   force =    -0.01366590   -0.00240040    0.01258892
     atom   26 type  1   force =     0.01366590    0.00240040   -0.01258892
     atom   27 type  1   force =     0.00891176   -0.01063482    0.01258892
     atom   28 type  1   force =    -0.00891176    0.01063482   -0.01258892
     atom   29 type  1   force =     0.00475414    0.01303522    0.01258892
     atom   30 type  1   force =    -0.00475414   -0.01303522   -0.01258892
     atom   31 type  1   force =    -0.02865051   -0.00936902    0.01618793
     atom   32 type  1   force =     0.02865051    0.00936902   -0.01618793
     atom   33 type  1   force =     0.02243906   -0.02012756    0.01618793
     atom   34 type  1   force =    -0.02243906    0.02012756   -0.01618793
     atom   35 type  1   force =     0.00621145    0.02949658    0.01618793
     atom   36 type  1   force =    -0.00621145   -0.02949658   -0.01618793

     Total force =     0.309023     Total SCF correction =     0.000466


     Computing stress (Cartesian axis) and pressure

          total   stress  (Ry/bohr**3)                   (kbar)     P=      -31.83
  -0.00029382   0.00000000  -0.00000000          -43.22        0.00       -0.00
  -0.00000000  -0.00029382  -0.00000000           -0.00      -43.22       -0.00
  -0.00000000  -0.00000000  -0.00006151           -0.00       -0.00       -9.05


     Writing all to output data dir ./iceII_2/iceII_2.save/ :
     XML data file, charge density, pseudopotentials, collected wavefunctions

     init_run     :      0.51s CPU      0.56s WALL (       1 calls)
     electrons    :      3.86s CPU      4.05s WALL (       1 calls)
     forces       :      0.04s CPU      0.05s WALL (       1 calls)
     stress       :      0.30s CPU      0.31s WALL (       1 calls)

     Called by init_run:
     wfcinit      :      0.18s CPU      0.19s WALL (       1 calls)
     potinit      :      0.01s CPU      0.03s WALL (       1 calls)
     hinit0       :      0.27s CPU      0.28s WALL (       1 calls)

     Called by electrons:
     c_bands      :      3.36s CPU      3.50s WALL (      11 calls)
     sum_band     :      0.38s CPU      0.39s WALL (      11 calls)
     v_of_rho     :      0.07s CPU      0.09s WALL (      12 calls)
     newd         :      0.02s CPU      0.03s WALL (      12 calls)
     mix_rho      :      0.01s CPU      0.01s WALL (      11 calls)

     Called by c_bands:
     init_us_2    :      0.03s CPU      0.03s WALL (     100 calls)
     cegterg      :      3.28s CPU      3.38s WALL (      44 calls)

     Called by *egterg:
     cdiaghg      :      0.66s CPU      0.68s WALL (     176 calls)
     h_psi        :      2.26s CPU      2.32s WALL (     180 calls)
     s_psi        :      0.10s CPU      0.10s WALL (     180 calls)
     g_psi        :      0.01s CPU      0.01s WALL (     132 calls)

     Called by h_psi:
     h_psi:calbec :      0.16s CPU      0.16s WALL (     180 calls)
     vloc_psi     :      1.98s CPU      2.03s WALL (     180 calls)
     add_vuspsi   :      0.11s CPU      0.11s WALL (     180 calls)

     General routines
     calbec       :      0.21s CPU      0.22s WALL (     244 calls)
     fft          :      0.30s CPU      0.30s WALL (     140 calls)
     ffts         :      0.00s CPU      0.00s WALL (      11 calls)
     fftw         :      2.10s CPU      2.15s WALL (   16048 calls)

     Parallel routines

     PWSCF        :      4.95s CPU      5.40s WALL


   This run was terminated on:  21:36:29  18Mar2026            

=------------------------------------------------------------------------------=
   JOB DONE.
=------------------------------------------------------------------------------=
