
     Program PWSCF v.7.3.1 starts on 18Mar2026 at 21:35:23 

     This program is part of the open-source Quantum ESPRESSO suite
     for quantum simulation of materials; please cite
         "P. Giannozzi et al., J. Phys.:Condens. Matter 21 395502 (2009);
         "P. Giannozzi et al., J. Phys.:Condens. Matter 29 465901 (2017);
         "P. Giannozzi et al., J. Chem. Phys. 152 154105 (2020);
          URL http://www.quantum-espresso.org", 
     in publications or presentations arising from this work. More details at
     http://www.quantum-espresso.org/quote

     Parallel version (MPI), running on   128 processors

     MPI processes distributed on     1 nodes
     243882 MiB available memory on the printing compute node when the environment starts

     Waiting for input...
     Reading input from standard input

     Current dimensions of program PWSCF are:
     Max number of different atomic species (ntypx) = 10
     Max number of k-points (npk) =  40000
     Max angular momentum in pseudopotentials (lmaxx) =  4

     K-points division:     npool     =       8
     R & G space division:  proc/nbgrp/npool/nimage =      16
     Subspace diagonalization in iterative solution of the eigenvalue problem:
     a serial algorithm will be used


     Parallelization info
     --------------------
     sticks:   dense  smooth     PW     G-vecs:    dense   smooth      PW
     Min         102     102     34                 2295     2295     441
     Max         103     103     35                 2296     2296     443
     Sum        1641    1641    549                36727    36727    7075

     Using Slab Decomposition



     bravais-lattice index     =            5
     lattice parameter (alat)  =      14.7021  a.u.
     unit-cell volume          =    2053.1832 (a.u.)^3
     number of atoms/cell      =           36
     number of atomic types    =            2
     number of electrons       =        96.00
     number of Kohn-Sham states=           48
     kinetic-energy cutoff     =      26.0000  Ry
     charge density cutoff     =     104.0000  Ry
     scf convergence threshold =      1.0E-07
     mixing beta               =       0.7000
     number of iterations used =            8  plain     mixing
     Exchange-correlation=  SLA  PW   PBE  PBE
                           (   1   4   3   4   0   0   0)

     celldm(1)=  14.702068  celldm(2)=   0.000000  celldm(3)=   0.000000
     celldm(4)=  -0.392337  celldm(5)=   0.000000  celldm(6)=   0.000000

     crystal axes: (cart. coord. in units of alat)
               a(1) = (   0.834367  -0.481722   0.267909 )  
               a(2) = (   0.000000   0.963444   0.267909 )  
               a(3) = (  -0.834367  -0.481722   0.267909 )  

     reciprocal axes: (cart. coord. in units 2 pi/alat)
               b(1) = (  0.599257 -0.345981  1.244203 )  
               b(2) = ( -0.000000  0.691962  1.244203 )  
               b(3) = ( -0.599257 -0.345981  1.244203 )  


     PseudoPot. # 1 for H  read from file:
     ./H.pbe-van_ak.UPF
     MD5 check sum: 077eb6d537518a38cb46c6de387227b7
     Pseudo is Ultrasoft, Zval =  1.0
     Generated by new atomic code, or converted to UPF format
     Using radial grid of  615 points,  1 beta functions with: 
                l(1) =   0
     Q(r) pseudized with  8 coefficients,  rinner =    0.800

     PseudoPot. # 2 for O  read from file:
     ./O.pbe-van_ak.UPF
     MD5 check sum: 78c19812648e8988a0fe644b0f25305e
     Pseudo is Ultrasoft, Zval =  6.0
     Generated by new atomic code, or converted to UPF format
     Using radial grid of  737 points,  4 beta functions with: 
                l(1) =   0
                l(2) =   0
                l(3) =   1
                l(4) =   1
     Q(r) pseudized with  8 coefficients,  rinner =    0.800   0.800   0.800


     atomic species   valence    mass     pseudopotential
     H                 1.00     1.00800     H ( 1.00)
     O                 6.00    16.00000     O ( 1.00)

      6 Sym. Ops., with inversion, found



   Cartesian axes

     site n.     atom                  positions (alat units)
         1        O      tau(   1) = (  -0.4847673  -0.5197781   0.3083633  )
         2        O      tau(   2) = (   0.4847673   0.5197782   0.4953638  )
         3        O      tau(   3) = (   0.6925247  -0.1599317   0.3083633  )
         4        O      tau(   4) = (  -0.6925248   0.1599317   0.4953638  )
         5        O      tau(   5) = (  -0.2077574   0.6797099   0.3083633  )
         6        O      tau(   6) = (   0.2077574  -0.6797099   0.4953638  )
         7        O      tau(   7) = (   0.1218176   0.3323883   0.4179381  )
         8        O      tau(   8) = (  -0.1218176  -0.3323883   0.3857890  )
         9        O      tau(   9) = (  -0.3487655  -0.0606970   0.4179381  )
        10        O      tau(  10) = (   0.3487655   0.0606970   0.3857890  )
        11        O      tau(  11) = (   0.2269479  -0.2716913   0.4179381  )
        12        O      tau(  12) = (  -0.2269479   0.2716912   0.3857890  )
        13        H      tau(  13) = (  -0.5381668  -0.4032014   0.2796970  )
        14        H      tau(  14) = (   0.5381668   0.4032014   0.5240301  )
        15        H      tau(  15) = (   0.6182661  -0.2644654   0.2796970  )
        16        H      tau(  16) = (  -0.6182661   0.2644654   0.5240301  )
        17        H      tau(  17) = (  -0.0800993   0.6676668   0.2796970  )
        18        H      tau(  18) = (   0.0800993  -0.6676668   0.5240301  )
        19        H      tau(  19) = (  -0.4872704  -0.4817221   0.4326731  )
        20        H      tau(  20) = (   0.4872704   0.4817221   0.3710540  )
        21        H      tau(  21) = (   0.6608188  -0.1811275   0.4326731  )
        22        H      tau(  22) = (  -0.6608188   0.1811275   0.3710540  )
        23        H      tau(  23) = (  -0.1735484   0.6628496   0.4326731  )
        24        H      tau(  24) = (   0.1735484  -0.6628496   0.3710540  )
        25        H      tau(  25) = (   0.2703349  -0.1502973   0.4058822  )
        26        H      tau(  26) = (  -0.2703350   0.1502973   0.3978449  )
        27        H      tau(  27) = (  -0.0050062   0.3092656   0.4058822  )
        28        H      tau(  28) = (   0.0050062  -0.3092656   0.3978449  )
        29        H      tau(  29) = (  -0.2653287  -0.1589683   0.4058822  )
        30        H      tau(  30) = (   0.2653287   0.1589683   0.3978449  )
        31        H      tau(  31) = (   0.3178939  -0.3347969   0.3493534  )
        32        H      tau(  32) = (  -0.3178939   0.3347969   0.4543737  )
        33        H      tau(  33) = (   0.1309957   0.4427026   0.3493534  )
        34        H      tau(  34) = (  -0.1309956  -0.4427026   0.4543737  )
        35        H      tau(  35) = (  -0.4488895  -0.1079057   0.3493534  )
        36        H      tau(  36) = (   0.4488895   0.1079057   0.4543737  )

     number of k points=    14
                       cart. coord. in units 2pi/alat
        k(    1) = (   0.0000000   0.0000000   0.0000000), wk =   0.0312500
        k(    2) = (  -0.1498141  -0.0864952   0.3110508), wk =   0.1875000
        k(    3) = (   0.2996283   0.1729905  -0.6221017), wk =   0.0937500
        k(    4) = (  -0.1498141   0.0864952   0.6221017), wk =   0.1875000
        k(    5) = (   0.2996283   0.3459809  -0.3110508), wk =   0.1875000
        k(    6) = (   0.1498141   0.2594857   0.0000000), wk =   0.1875000
        k(    7) = (   0.2996283  -0.1729905  -1.2442034), wk =   0.0937500
        k(    8) = (   0.0000000   0.0000000   0.9331525), wk =   0.0625000
        k(    9) = (   0.4494424   0.2594857   0.0000000), wk =   0.1875000
        k(   10) = (   0.2996283   0.1729905   0.3110508), wk =   0.1875000
        k(   11) = (   0.4494424  -0.2594857  -0.9331525), wk =   0.1875000
        k(   12) = (   0.2996283  -0.3459809  -0.6221017), wk =   0.1875000
        k(   13) = (   0.0000000   0.0000000  -1.8663050), wk =   0.0312500
        k(   14) = (   0.2996283  -0.3459809   0.3110508), wk =   0.1875000

     Dense  grid:    36727 G-vectors     FFT dimensions: (  48,  48,  48)

     Estimated max dynamical RAM per process >       4.89 MB

     Estimated total dynamical RAM >     563.75 MB

     Initial potential from superposition of free atoms

     starting charge      95.9998, renormalised to      96.0000
     Starting wfcs are   72 randomized atomic wfcs

     total cpu time spent up to now is        3.9 secs

     per-process dynamical memory:    10.3 Mb

     Self-consistent Calculation

     iteration #  1     ecut=    26.00 Ry     beta= 0.70
     Davidson diagonalization with overlap
     ethr =  1.00E-02,  avg # of iterations =  2.0

     negative rho (up, down):  3.371E-05 0.000E+00

     total cpu time spent up to now is        4.1 secs

     total energy              =    -412.14115891 Ry
     estimated scf accuracy    <       3.62033479 Ry

     iteration #  2     ecut=    26.00 Ry     beta= 0.70
     Davidson diagonalization with overlap
     ethr =  3.77E-03,  avg # of iterations =  3.0

     negative rho (up, down):  1.780E-05 0.000E+00

     total cpu time spent up to now is        4.3 secs

     total energy              =    -413.31447690 Ry
     estimated scf accuracy    <       2.17027069 Ry

     iteration #  3     ecut=    26.00 Ry     beta= 0.70
     Davidson diagonalization with overlap
     ethr =  2.26E-03,  avg # of iterations =  2.0

     negative rho (up, down):  2.762E-05 0.000E+00

     total cpu time spent up to now is        4.4 secs

     total energy              =    -413.57963589 Ry
     estimated scf accuracy    <       0.06541405 Ry

     iteration #  4     ecut=    26.00 Ry     beta= 0.70
     Davidson diagonalization with overlap
     ethr =  6.81E-05,  avg # of iterations =  4.0

     negative rho (up, down):  3.420E-05 0.000E+00

     total cpu time spent up to now is        4.6 secs

     total energy              =    -413.62454422 Ry
     estimated scf accuracy    <       0.08783418 Ry

     iteration #  5     ecut=    26.00 Ry     beta= 0.70
     Davidson diagonalization with overlap
     ethr =  6.81E-05,  avg # of iterations =  2.0

     negative rho (up, down):  3.918E-05 0.000E+00

     total cpu time spent up to now is        4.7 secs

     total energy              =    -413.62676339 Ry
     estimated scf accuracy    <       0.01516964 Ry

     iteration #  6     ecut=    26.00 Ry     beta= 0.70
     Davidson diagonalization with overlap
     ethr =  1.58E-05,  avg # of iterations =  2.0

     negative rho (up, down):  4.079E-05 0.000E+00

     total cpu time spent up to now is        4.8 secs

     total energy              =    -413.62782289 Ry
     estimated scf accuracy    <       0.00221108 Ry

     iteration #  7     ecut=    26.00 Ry     beta= 0.70
     Davidson diagonalization with overlap
     ethr =  2.30E-06,  avg # of iterations =  2.0

     negative rho (up, down):  4.045E-05 0.000E+00

     total cpu time spent up to now is        5.0 secs

     total energy              =    -413.62834432 Ry
     estimated scf accuracy    <       0.00001671 Ry

     iteration #  8     ecut=    26.00 Ry     beta= 0.70
     Davidson diagonalization with overlap
     ethr =  1.74E-08,  avg # of iterations =  5.0

     negative rho (up, down):  3.987E-05 0.000E+00

     total cpu time spent up to now is        5.2 secs

     total energy              =    -413.62836854 Ry
     estimated scf accuracy    <       0.00012435 Ry

     iteration #  9     ecut=    26.00 Ry     beta= 0.70
     Davidson diagonalization with overlap
     ethr =  1.74E-08,  avg # of iterations =  3.0

     negative rho (up, down):  3.955E-05 0.000E+00

     total cpu time spent up to now is        5.3 secs

     total energy              =    -413.62837125 Ry
     estimated scf accuracy    <       0.00001846 Ry

     iteration # 10     ecut=    26.00 Ry     beta= 0.70
     Davidson diagonalization with overlap
     ethr =  1.74E-08,  avg # of iterations =  2.0

     negative rho (up, down):  3.951E-05 0.000E+00

     total cpu time spent up to now is        5.5 secs

     total energy              =    -413.62837341 Ry
     estimated scf accuracy    <       0.00000131 Ry

     iteration # 11     ecut=    26.00 Ry     beta= 0.70
     Davidson diagonalization with overlap
     ethr =  1.37E-09,  avg # of iterations =  3.0

     negative rho (up, down):  3.948E-05 0.000E+00

     total cpu time spent up to now is        5.6 secs

     End of self-consistent calculation

          k = 0.0000 0.0000 0.0000 (  4525 PWs)   bands (ev):

   -20.8980 -20.4368 -20.4368 -20.2124 -20.2124 -20.1855 -20.1855 -20.1694
   -20.1668 -19.8634 -19.8634 -19.5490  -8.1999  -8.0012  -7.9434  -7.9434
    -7.8567  -7.8567  -7.4444  -7.2837  -7.2837  -7.0666  -7.0666  -6.9327
    -6.8677  -5.9698  -5.9698  -5.3784  -5.3784  -5.2995  -5.2995  -4.9995
    -4.8095  -4.1627  -4.1627  -3.4982  -2.8102  -2.8102  -2.7089  -2.6294
    -2.5804  -2.5804  -2.4381  -2.4381  -2.4209  -2.3974  -2.3494  -2.3494

          k =-0.1498-0.0865 0.3111 (  4582 PWs)   bands (ev):

   -20.8236 -20.4779 -20.4249 -20.3579 -20.3341 -20.2598 -20.1147 -20.0716
   -20.0167 -19.8702 -19.8281 -19.6093  -8.1468  -8.0686  -7.9905  -7.9424
    -7.8406  -7.7784  -7.4402  -7.2566  -7.2415  -7.1038  -6.9741  -6.9370
    -6.7341  -6.1190  -5.9865  -5.7164  -5.3922  -5.2547  -5.1134  -4.8871
    -4.8317  -4.1561  -4.0951  -3.6323  -2.9304  -2.8569  -2.7353  -2.6781
    -2.6195  -2.5830  -2.5410  -2.4767  -2.4123  -2.3730  -2.3374  -2.2904

          k = 0.2996 0.1730-0.6221 (  4610 PWs)   bands (ev):

   -20.6314 -20.6291 -20.4598 -20.4436 -20.3345 -20.3295 -20.0588 -20.0484
   -19.8775 -19.8738 -19.7655 -19.7454  -8.1236  -8.0650  -7.9807  -7.9595
    -7.8463  -7.7849  -7.3862  -7.2592  -7.2177  -7.1143  -6.8896  -6.8895
    -6.4906  -6.3509  -6.0409  -5.8827  -5.3928  -5.3108  -5.1103  -4.9522
    -4.4159  -4.2949  -4.0337  -3.8045  -3.0366  -2.8790  -2.7613  -2.7339
    -2.6603  -2.6380  -2.5479  -2.4876  -2.4689  -2.3355  -2.3231  -2.2453

          k =-0.1498 0.0865 0.6221 (  4590 PWs)   bands (ev):

   -20.6727 -20.5356 -20.5256 -20.4060 -20.3838 -20.3180 -20.0642 -19.9826
   -19.9475 -19.8297 -19.8112 -19.7195  -8.1314  -8.0421  -8.0229  -7.9156
    -7.8639  -7.7699  -7.3907  -7.2977  -7.2445  -7.0085  -6.9392  -6.8851
    -6.4954  -6.2818  -6.1826  -5.7107  -5.5367  -5.3529  -5.0333  -4.8260
    -4.6215  -4.1224  -4.0968  -3.8185  -3.0137  -2.9210  -2.7498  -2.7024
    -2.6684  -2.6182  -2.5739  -2.4883  -2.4576  -2.3450  -2.3270  -2.2380

          k = 0.2996 0.3460-0.3111 (  4604 PWs)   bands (ev):

   -20.7261 -20.5690 -20.4602 -20.4374 -20.3536 -20.2848 -20.0681 -19.9662
   -19.9562 -19.8672 -19.8057 -19.6941  -8.1389  -8.1132  -7.9592  -7.9366
    -7.8760  -7.7799  -7.4234  -7.3607  -7.2346  -6.9768  -6.9448  -6.8727
    -6.6233  -6.3176  -6.0766  -5.7340  -5.6916  -5.1854  -5.0003  -4.7367
    -4.5086  -4.2802  -4.0773  -3.7914  -2.9241  -2.8540  -2.7667  -2.6953
    -2.6406  -2.5870  -2.5275  -2.5184  -2.4315  -2.3918  -2.3299  -2.2266

          k = 0.1498 0.2595 0.0000 (  4600 PWs)   bands (ev):

   -20.8444 -20.5125 -20.4564 -20.3243 -20.2964 -20.2145 -20.1360 -20.0633
   -20.0231 -19.8748 -19.8389 -19.5972  -8.1867  -8.0818  -7.9819  -7.9360
    -7.8159  -7.8101  -7.4974  -7.3525  -7.1647  -7.0723  -7.0039  -6.8924
    -6.8673  -6.1020  -5.9682  -5.7090  -5.5961  -5.1298  -4.9961  -4.8707
    -4.6855  -4.2362  -4.1436  -3.5917  -2.8138  -2.7931  -2.7480  -2.6614
    -2.6214  -2.5930  -2.4761  -2.4603  -2.4266  -2.4178  -2.3119  -2.2983

          k = 0.2996-0.1730-1.2442 (  4596 PWs)   bands (ev):

   -20.7152 -20.6775 -20.4714 -20.3744 -20.2963 -20.2377 -20.0805 -20.0450
   -19.9311 -19.9094 -19.7293 -19.7127  -8.1669  -8.1277  -7.9922  -7.9561
    -7.7902  -7.7845  -7.4937  -7.4229  -7.1475  -7.0974  -6.9158  -6.8680
    -6.5521  -6.5117  -6.0402  -5.8197  -5.5030  -5.2516  -4.8701  -4.6148
    -4.5057  -4.4415  -3.9928  -3.8038  -2.8312  -2.7788  -2.7627  -2.6952
    -2.6225  -2.5630  -2.5434  -2.4678  -2.4616  -2.4127  -2.2776  -2.2621

          k = 0.0000 0.0000 0.9332 (  4614 PWs)   bands (ev):

   -20.6181 -20.6181 -20.5384 -20.4929 -20.3139 -20.3138 -19.9925 -19.9925
   -19.8706 -19.8307 -19.8041 -19.8041  -8.1145  -8.1145  -7.9754  -7.8754
    -7.8754  -7.8659  -7.4320  -7.3298  -7.3298  -6.8828  -6.8828  -6.8438
    -6.4191  -6.4184  -6.4184  -5.7583  -5.4470  -5.4470  -4.7869  -4.6019
    -4.6019  -4.1439  -4.1439  -3.9758  -2.8668  -2.8668  -2.7422  -2.6826
    -2.6122  -2.6122  -2.5534  -2.4917  -2.4917  -2.3775  -2.3775  -2.2015

          k = 0.4494 0.2595 0.0000 (  4614 PWs)   bands (ev):

   -20.7449 -20.5777 -20.5715 -20.3761 -20.2411 -20.2302 -20.0954 -20.0884
   -19.9320 -19.8375 -19.8033 -19.6834  -8.1607  -8.1175  -8.0492  -7.8928
    -7.8326  -7.7686  -7.5109  -7.3729  -7.2424  -6.9922  -6.9394  -6.8924
    -6.6597  -6.2807  -6.2031  -5.7721  -5.5169  -5.2466  -4.7954  -4.7561
    -4.5503  -4.2476  -4.1073  -3.7786  -2.8128  -2.8054  -2.7498  -2.7013
    -2.6398  -2.5799  -2.5100  -2.4872  -2.4348  -2.3898  -2.3295  -2.2443

          k = 0.2996 0.1730 0.3111 (  4603 PWs)   bands (ev):

   -20.7735 -20.5238 -20.4342 -20.4216 -20.3332 -20.2753 -20.0824 -20.0531
   -19.9811 -19.8588 -19.8045 -19.6474  -8.1588  -8.1000  -8.0165  -7.8862
    -7.8810  -7.7279  -7.4598  -7.3285  -7.1468  -7.0721  -7.0247  -6.9246
    -6.6496  -6.1227  -5.9485  -5.8633  -5.6350  -5.2814  -4.9840  -4.7831
    -4.6258  -4.2233  -4.0865  -3.6762  -2.9420  -2.8668  -2.7896  -2.7351
    -2.6354  -2.5954  -2.5177  -2.4850  -2.4007  -2.3593  -2.2986  -2.2840

          k = 0.4494-0.2595-0.9332 (  4604 PWs)   bands (ev):

   -20.6431 -20.6407 -20.5027 -20.4472 -20.3209 -20.2451 -20.1216 -20.0378
   -19.8942 -19.8402 -19.7891 -19.7058  -8.1881  -8.0877  -8.0466  -7.8932
    -7.8461  -7.7090  -7.5057  -7.2870  -7.1664  -7.1090  -6.9616  -6.9303
    -6.3854  -6.3494  -6.0245  -5.8753  -5.6873  -5.3708  -4.9416  -4.6601
    -4.3548  -4.3145  -4.1286  -3.7476  -2.9413  -2.8869  -2.8485  -2.7357
    -2.7004  -2.6110  -2.4667  -2.4443  -2.4131  -2.3721  -2.3019  -2.2471

          k = 0.2996-0.3460-0.6221 (  4586 PWs)   bands (ev):

   -20.5981 -20.5916 -20.4910 -20.4802 -20.3530 -20.3510 -20.0416 -20.0341
   -19.8823 -19.8743 -19.7596 -19.7385  -8.2012  -7.9999  -7.9700  -7.9516
    -7.9151  -7.7120  -7.4180  -7.2962  -7.1415  -7.0950  -6.9381  -6.9323
    -6.3499  -6.2237  -6.0589  -5.9322  -5.6084  -5.5727  -4.8590  -4.7868
    -4.3625  -4.3192  -4.1361  -3.7297  -3.0667  -2.9001  -2.8453  -2.7752
    -2.7187  -2.5801  -2.5115  -2.4719  -2.4486  -2.3247  -2.3074  -2.2280

          k = 0.0000 0.0000-1.8663 (  4584 PWs)   bands (ev):

   -20.5661 -20.5469 -20.4538 -20.4538 -20.4523 -20.4523 -19.9669 -19.9669
   -19.9322 -19.9322 -19.7442 -19.7265  -8.2494  -7.9640  -7.9640  -7.9409
    -7.9409  -7.6818  -7.4686  -7.2955  -7.0454  -7.0454  -7.0136  -7.0136
    -6.1715  -5.9930  -5.9367  -5.9367  -5.9325  -5.9325  -4.6371  -4.6371
    -4.4005  -4.4005  -4.1528  -3.6794  -3.0983  -2.9028  -2.9028  -2.8142
    -2.8142  -2.5247  -2.5062  -2.4060  -2.4060  -2.3375  -2.3375  -2.2015

          k = 0.2996-0.3460 0.3111 (  4604 PWs)   bands (ev):

   -20.7262 -20.5680 -20.4676 -20.4325 -20.3506 -20.2855 -20.0693 -19.9807
   -19.9356 -19.8787 -19.7986 -19.6960  -8.1541  -8.0800  -7.9968  -7.9316
    -7.8485  -7.7867  -7.4714  -7.3294  -7.2099  -7.0149  -6.9081  -6.8939
    -6.6152  -6.2492  -6.1722  -5.7834  -5.5462  -5.2482  -5.0817  -4.6470
    -4.4857  -4.2676  -4.1491  -3.7695  -2.9323  -2.8251  -2.7827  -2.6924
    -2.6475  -2.5929  -2.5278  -2.5171  -2.4496  -2.3609  -2.3309  -2.2340

     highest occupied level (ev):    -2.2015

!    total energy              =    -413.62837373 Ry
     estimated scf accuracy    <       0.00000004 Ry

     The total energy is the sum of the following terms:
     one-electron contribution =    -290.57953247 Ry
     hartree contribution      =     179.69410997 Ry
     xc contribution           =    -101.19835907 Ry
     ewald contribution        =    -201.54459216 Ry

     convergence has been achieved in  11 iterations

     Forces acting on atoms (cartesian axes, Ry/au):

     atom    1 type  2   force =    -0.03352941    0.06235463    0.02989474
     atom    2 type  2   force =     0.03352941   -0.06235463   -0.02989474
     atom    3 type  2   force =    -0.03723599   -0.06021463    0.02989474
     atom    4 type  2   force =     0.03723599    0.06021463   -0.02989474
     atom    5 type  2   force =     0.07076539   -0.00214000    0.02989474
     atom    6 type  2   force =    -0.07076539    0.00214000   -0.02989474
     atom    7 type  2   force =    -0.02992398    0.02324695   -0.02089123
     atom    8 type  2   force =     0.02992398   -0.02324695    0.02089123
     atom    9 type  2   force =    -0.00517046   -0.03753840   -0.02089123
     atom   10 type  2   force =     0.00517046    0.03753840    0.02089123
     atom   11 type  2   force =     0.03509444    0.01429145   -0.02089123
     atom   12 type  2   force =    -0.03509444   -0.01429145    0.02089123
     atom   13 type  1   force =     0.00270166   -0.02497619   -0.05147358
     atom   14 type  1   force =    -0.00270166    0.02497619    0.05147358
     atom   15 type  1   force =     0.02027919    0.01482780   -0.05147358
     atom   16 type  1   force =    -0.02027919   -0.01482780    0.05147358
     atom   17 type  1   force =    -0.02298085    0.01014839   -0.05147358
     atom   18 type  1   force =     0.02298085   -0.01014839    0.05147358
     atom   19 type  1   force =     0.02972672   -0.04441625    0.01111362
     atom   20 type  1   force =    -0.02972672    0.04441625   -0.01111362
     atom   21 type  1   force =     0.02360224    0.04795222    0.01111362
     atom   22 type  1   force =    -0.02360224   -0.04795222   -0.01111362
     atom   23 type  1   force =    -0.05332896   -0.00353597    0.01111362
     atom   24 type  1   force =     0.05332896    0.00353597   -0.01111362
     atom   25 type  1   force =    -0.01337559   -0.00153117    0.01255509
     atom   26 type  1   force =     0.01337559    0.00153117   -0.01255509
     atom   27 type  1   force =     0.00801383   -0.01081802    0.01255509
     atom   28 type  1   force =    -0.00801383    0.01081802   -0.01255509
     atom   29 type  1   force =     0.00536177    0.01234919    0.01255509
     atom   30 type  1   force =    -0.00536177   -0.01234919   -0.01255509
     atom   31 type  1   force =    -0.02792395   -0.00986987    0.01558832
     atom   32 type  1   force =     0.02792395    0.00986987   -0.01558832
     atom   33 type  1   force =     0.02250954   -0.01924791    0.01558832
     atom   34 type  1   force =    -0.02250954    0.01924791   -0.01558832
     atom   35 type  1   force =     0.00541441    0.02911779    0.01558832
     atom   36 type  1   force =    -0.00541441   -0.02911779   -0.01558832

     Total force =     0.304939     Total SCF correction =     0.000303


     Computing stress (Cartesian axis) and pressure

          total   stress  (Ry/bohr**3)                   (kbar)     P=      -66.33
  -0.00052879   0.00000000  -0.00000000          -77.79        0.00       -0.00
  -0.00000000  -0.00052879  -0.00000000           -0.00      -77.79       -0.00
  -0.00000000  -0.00000000  -0.00029518           -0.00       -0.00      -43.42


     Writing all to output data dir ./iceII_2/iceII_2.save/ :
     XML data file, charge density, pseudopotentials, collected wavefunctions

     init_run     :      0.46s CPU      0.84s WALL (       1 calls)
     electrons    :      1.61s CPU      1.75s WALL (       1 calls)
     forces       :      0.04s CPU      0.04s WALL (       1 calls)
     stress       :      0.14s CPU      0.15s WALL (       1 calls)

     Called by init_run:
     wfcinit      :      0.06s CPU      0.35s WALL (       1 calls)
     potinit      :      0.01s CPU      0.02s WALL (       1 calls)
     hinit0       :      0.36s CPU      0.42s WALL (       1 calls)

     Called by electrons:
     c_bands      :      1.32s CPU      1.38s WALL (      11 calls)
     sum_band     :      0.15s CPU      0.17s WALL (      11 calls)
     v_of_rho     :      0.06s CPU      0.07s WALL (      12 calls)
     newd         :      0.01s CPU      0.02s WALL (      12 calls)
     mix_rho      :      0.01s CPU      0.01s WALL (      11 calls)

     Called by c_bands:
     init_us_2    :      0.01s CPU      0.02s WALL (      50 calls)
     cegterg      :      1.30s CPU      1.33s WALL (      22 calls)

     Called by *egterg:
     cdiaghg      :      0.30s CPU      0.56s WALL (      82 calls)
     h_psi        :      0.83s CPU      0.89s WALL (      84 calls)
     s_psi        :      0.04s CPU      0.04s WALL (      84 calls)
     g_psi        :      0.00s CPU      0.00s WALL (      60 calls)

     Called by h_psi:
     h_psi:calbec :      0.06s CPU      0.10s WALL (      84 calls)
     vloc_psi     :      0.72s CPU      0.74s WALL (      84 calls)
     add_vuspsi   :      0.05s CPU      0.05s WALL (      84 calls)

     General routines
     calbec       :      0.09s CPU      0.13s WALL (     116 calls)
     fft          :      0.38s CPU      0.43s WALL (     140 calls)
     ffts         :      0.00s CPU      0.00s WALL (      11 calls)
     fftw         :      0.76s CPU      0.78s WALL (    7682 calls)

     Parallel routines

     PWSCF        :      2.53s CPU      5.91s WALL


   This run was terminated on:  21:35:29  18Mar2026            

=------------------------------------------------------------------------------=
   JOB DONE.
=------------------------------------------------------------------------------=
