
     Program PWSCF v.7.3.1 starts on 18Mar2026 at 21:36:31 

     This program is part of the open-source Quantum ESPRESSO suite
     for quantum simulation of materials; please cite
         "P. Giannozzi et al., J. Phys.:Condens. Matter 21 395502 (2009);
         "P. Giannozzi et al., J. Phys.:Condens. Matter 29 465901 (2017);
         "P. Giannozzi et al., J. Chem. Phys. 152 154105 (2020);
          URL http://www.quantum-espresso.org", 
     in publications or presentations arising from this work. More details at
     http://www.quantum-espresso.org/quote

     Parallel version (MPI), running on   128 processors

     MPI processes distributed on     1 nodes
     243207 MiB available memory on the printing compute node when the environment starts

     Waiting for input...
     Reading input from standard input

     Current dimensions of program PWSCF are:
     Max number of different atomic species (ntypx) = 10
     Max number of k-points (npk) =  40000
     Max angular momentum in pseudopotentials (lmaxx) =  4

     K-points division:     npool     =       4
     R & G space division:  proc/nbgrp/npool/nimage =      32
     Subspace diagonalization in iterative solution of the eigenvalue problem:
     a serial algorithm will be used


     Parallelization info
     --------------------
     sticks:   dense  smooth     PW     G-vecs:    dense   smooth      PW
     Min          90      90     28                 2704     2704     471
     Max          91      91     29                 2707     2707     474
     Sum        2903    2903    903                86579    86579   15117

     Using Slab Decomposition



     bravais-lattice index     =            5
     lattice parameter (alat)  =      14.7021  a.u.
     unit-cell volume          =    2053.1832 (a.u.)^3
     number of atoms/cell      =           36
     number of atomic types    =            2
     number of electrons       =        96.00
     number of Kohn-Sham states=           48
     kinetic-energy cutoff     =      46.0000  Ry
     charge density cutoff     =     184.0000  Ry
     scf convergence threshold =      1.0E-07
     mixing beta               =       0.7000
     number of iterations used =            8  plain     mixing
     Exchange-correlation=  SLA  PW   PBE  PBE
                           (   1   4   3   4   0   0   0)

     celldm(1)=  14.702068  celldm(2)=   0.000000  celldm(3)=   0.000000
     celldm(4)=  -0.392337  celldm(5)=   0.000000  celldm(6)=   0.000000

     crystal axes: (cart. coord. in units of alat)
               a(1) = (   0.834367  -0.481722   0.267909 )  
               a(2) = (   0.000000   0.963444   0.267909 )  
               a(3) = (  -0.834367  -0.481722   0.267909 )  

     reciprocal axes: (cart. coord. in units 2 pi/alat)
               b(1) = (  0.599257 -0.345981  1.244203 )  
               b(2) = ( -0.000000  0.691962  1.244203 )  
               b(3) = ( -0.599257 -0.345981  1.244203 )  


     PseudoPot. # 1 for H  read from file:
     ./H.pbe-van_ak.UPF
     MD5 check sum: 077eb6d537518a38cb46c6de387227b7
     Pseudo is Ultrasoft, Zval =  1.0
     Generated by new atomic code, or converted to UPF format
     Using radial grid of  615 points,  1 beta functions with: 
                l(1) =   0
     Q(r) pseudized with  8 coefficients,  rinner =    0.800

     PseudoPot. # 2 for O  read from file:
     ./O.pbe-van_ak.UPF
     MD5 check sum: 78c19812648e8988a0fe644b0f25305e
     Pseudo is Ultrasoft, Zval =  6.0
     Generated by new atomic code, or converted to UPF format
     Using radial grid of  737 points,  4 beta functions with: 
                l(1) =   0
                l(2) =   0
                l(3) =   1
                l(4) =   1
     Q(r) pseudized with  8 coefficients,  rinner =    0.800   0.800   0.800


     atomic species   valence    mass     pseudopotential
     H                 1.00     1.00800     H ( 1.00)
     O                 6.00    16.00000     O ( 1.00)

      6 Sym. Ops., with inversion, found



   Cartesian axes

     site n.     atom                  positions (alat units)
         1        O      tau(   1) = (  -0.4847673  -0.5197781   0.3083633  )
         2        O      tau(   2) = (   0.4847673   0.5197782   0.4953638  )
         3        O      tau(   3) = (   0.6925247  -0.1599317   0.3083633  )
         4        O      tau(   4) = (  -0.6925248   0.1599317   0.4953638  )
         5        O      tau(   5) = (  -0.2077574   0.6797099   0.3083633  )
         6        O      tau(   6) = (   0.2077574  -0.6797099   0.4953638  )
         7        O      tau(   7) = (   0.1218176   0.3323883   0.4179381  )
         8        O      tau(   8) = (  -0.1218176  -0.3323883   0.3857890  )
         9        O      tau(   9) = (  -0.3487655  -0.0606970   0.4179381  )
        10        O      tau(  10) = (   0.3487655   0.0606970   0.3857890  )
        11        O      tau(  11) = (   0.2269479  -0.2716913   0.4179381  )
        12        O      tau(  12) = (  -0.2269479   0.2716912   0.3857890  )
        13        H      tau(  13) = (  -0.5381668  -0.4032014   0.2796970  )
        14        H      tau(  14) = (   0.5381668   0.4032014   0.5240301  )
        15        H      tau(  15) = (   0.6182661  -0.2644654   0.2796970  )
        16        H      tau(  16) = (  -0.6182661   0.2644654   0.5240301  )
        17        H      tau(  17) = (  -0.0800993   0.6676668   0.2796970  )
        18        H      tau(  18) = (   0.0800993  -0.6676668   0.5240301  )
        19        H      tau(  19) = (  -0.4872704  -0.4817221   0.4326731  )
        20        H      tau(  20) = (   0.4872704   0.4817221   0.3710540  )
        21        H      tau(  21) = (   0.6608188  -0.1811275   0.4326731  )
        22        H      tau(  22) = (  -0.6608188   0.1811275   0.3710540  )
        23        H      tau(  23) = (  -0.1735484   0.6628496   0.4326731  )
        24        H      tau(  24) = (   0.1735484  -0.6628496   0.3710540  )
        25        H      tau(  25) = (   0.2703349  -0.1502973   0.4058822  )
        26        H      tau(  26) = (  -0.2703350   0.1502973   0.3978449  )
        27        H      tau(  27) = (  -0.0050062   0.3092656   0.4058822  )
        28        H      tau(  28) = (   0.0050062  -0.3092656   0.3978449  )
        29        H      tau(  29) = (  -0.2653287  -0.1589683   0.4058822  )
        30        H      tau(  30) = (   0.2653287   0.1589683   0.3978449  )
        31        H      tau(  31) = (   0.3178939  -0.3347969   0.3493534  )
        32        H      tau(  32) = (  -0.3178939   0.3347969   0.4543737  )
        33        H      tau(  33) = (   0.1309957   0.4427026   0.3493534  )
        34        H      tau(  34) = (  -0.1309956  -0.4427026   0.4543737  )
        35        H      tau(  35) = (  -0.4488895  -0.1079057   0.3493534  )
        36        H      tau(  36) = (   0.4488895   0.1079057   0.4543737  )

     number of k points=    14
                       cart. coord. in units 2pi/alat
        k(    1) = (   0.0000000   0.0000000   0.0000000), wk =   0.0312500
        k(    2) = (  -0.1498141  -0.0864952   0.3110508), wk =   0.1875000
        k(    3) = (   0.2996283   0.1729905  -0.6221017), wk =   0.0937500
        k(    4) = (  -0.1498141   0.0864952   0.6221017), wk =   0.1875000
        k(    5) = (   0.2996283   0.3459809  -0.3110508), wk =   0.1875000
        k(    6) = (   0.1498141   0.2594857   0.0000000), wk =   0.1875000
        k(    7) = (   0.2996283  -0.1729905  -1.2442034), wk =   0.0937500
        k(    8) = (   0.0000000   0.0000000   0.9331525), wk =   0.0625000
        k(    9) = (   0.4494424   0.2594857   0.0000000), wk =   0.1875000
        k(   10) = (   0.2996283   0.1729905   0.3110508), wk =   0.1875000
        k(   11) = (   0.4494424  -0.2594857  -0.9331525), wk =   0.1875000
        k(   12) = (   0.2996283  -0.3459809  -0.6221017), wk =   0.1875000
        k(   13) = (   0.0000000   0.0000000  -1.8663050), wk =   0.0312500
        k(   14) = (   0.2996283  -0.3459809   0.3110508), wk =   0.1875000

     Dense  grid:    86579 G-vectors     FFT dimensions: (  64,  64,  64)

     Estimated max dynamical RAM per process >       6.25 MB

     Estimated total dynamical RAM >     735.92 MB

     Initial potential from superposition of free atoms

     starting charge      95.9998, renormalised to      96.0000
     Starting wfcs are   72 randomized atomic wfcs

     total cpu time spent up to now is        0.8 secs

     per-process dynamical memory:    12.2 Mb

     Self-consistent Calculation

     iteration #  1     ecut=    46.00 Ry     beta= 0.70
     Davidson diagonalization with overlap
     ethr =  1.00E-02,  avg # of iterations =  2.0

     total cpu time spent up to now is        1.1 secs

     total energy              =    -412.22936878 Ry
     estimated scf accuracy    <       3.71229723 Ry

     iteration #  2     ecut=    46.00 Ry     beta= 0.70
     Davidson diagonalization with overlap
     ethr =  3.87E-03,  avg # of iterations =  3.0

     total cpu time spent up to now is        1.5 secs

     total energy              =    -413.40407083 Ry
     estimated scf accuracy    <       2.33558259 Ry

     iteration #  3     ecut=    46.00 Ry     beta= 0.70
     Davidson diagonalization with overlap
     ethr =  2.43E-03,  avg # of iterations =  2.0

     negative rho (up, down):  1.609E-07 0.000E+00

     total cpu time spent up to now is        1.9 secs

     total energy              =    -413.69927893 Ry
     estimated scf accuracy    <       0.09816212 Ry

     iteration #  4     ecut=    46.00 Ry     beta= 0.70
     Davidson diagonalization with overlap
     ethr =  1.02E-04,  avg # of iterations =  4.0

     negative rho (up, down):  6.252E-07 0.000E+00

     total cpu time spent up to now is        2.3 secs

     total energy              =    -413.77698271 Ry
     estimated scf accuracy    <       0.11860827 Ry

     iteration #  5     ecut=    46.00 Ry     beta= 0.70
     Davidson diagonalization with overlap
     ethr =  1.02E-04,  avg # of iterations =  2.0

     negative rho (up, down):  7.299E-07 0.000E+00

     total cpu time spent up to now is        2.6 secs

     total energy              =    -413.78078693 Ry
     estimated scf accuracy    <       0.02013463 Ry

     iteration #  6     ecut=    46.00 Ry     beta= 0.70
     Davidson diagonalization with overlap
     ethr =  2.10E-05,  avg # of iterations =  2.0

     negative rho (up, down):  8.185E-07 0.000E+00

     total cpu time spent up to now is        2.9 secs

     total energy              =    -413.77976629 Ry
     estimated scf accuracy    <       0.00748368 Ry

     iteration #  7     ecut=    46.00 Ry     beta= 0.70
     Davidson diagonalization with overlap
     ethr =  7.80E-06,  avg # of iterations =  3.0

     negative rho (up, down):  8.336E-07 0.000E+00

     total cpu time spent up to now is        3.2 secs

     total energy              =    -413.78144798 Ry
     estimated scf accuracy    <       0.00016318 Ry

     iteration #  8     ecut=    46.00 Ry     beta= 0.70
     Davidson diagonalization with overlap
     ethr =  1.70E-07,  avg # of iterations =  6.0

     negative rho (up, down):  8.327E-07 0.000E+00

     total cpu time spent up to now is        3.8 secs

     total energy              =    -413.78152489 Ry
     estimated scf accuracy    <       0.00104158 Ry

     iteration #  9     ecut=    46.00 Ry     beta= 0.70
     Davidson diagonalization with overlap
     ethr =  1.70E-07,  avg # of iterations =  4.0

     negative rho (up, down):  7.971E-07 0.000E+00

     total cpu time spent up to now is        4.2 secs

     total energy              =    -413.78159431 Ry
     estimated scf accuracy    <       0.00007656 Ry

     iteration # 10     ecut=    46.00 Ry     beta= 0.70
     Davidson diagonalization with overlap
     ethr =  7.97E-08,  avg # of iterations =  2.5

     negative rho (up, down):  7.990E-07 0.000E+00

     total cpu time spent up to now is        4.6 secs

     total energy              =    -413.78161821 Ry
     estimated scf accuracy    <       0.00000124 Ry

     iteration # 11     ecut=    46.00 Ry     beta= 0.70
     Davidson diagonalization with overlap
     ethr =  1.29E-09,  avg # of iterations =  3.1

     negative rho (up, down):  7.977E-07 0.000E+00

     total cpu time spent up to now is        4.9 secs

     total energy              =    -413.78161873 Ry
     estimated scf accuracy    <       0.00000017 Ry

     iteration # 12     ecut=    46.00 Ry     beta= 0.70
     Davidson diagonalization with overlap
     ethr =  1.76E-10,  avg # of iterations =  2.8

     negative rho (up, down):  7.987E-07 0.000E+00

     total cpu time spent up to now is        5.2 secs

     total energy              =    -413.78161868 Ry
     estimated scf accuracy    <       0.00000018 Ry

     iteration # 13     ecut=    46.00 Ry     beta= 0.70
     Davidson diagonalization with overlap
     ethr =  1.76E-10,  avg # of iterations =  2.0

     negative rho (up, down):  7.994E-07 0.000E+00

     total cpu time spent up to now is        5.5 secs

     End of self-consistent calculation

          k = 0.0000 0.0000 0.0000 ( 10851 PWs)   bands (ev):

   -20.8762 -20.4144 -20.4144 -20.1899 -20.1899 -20.1627 -20.1627 -20.1464
   -20.1440 -19.8398 -19.8398 -19.5246  -8.2092  -8.0090  -7.9509  -7.9509
    -7.8661  -7.8661  -7.4467  -7.2923  -7.2923  -7.0749  -7.0749  -6.9411
    -6.8761  -5.9773  -5.9773  -5.3869  -5.3869  -5.3087  -5.3087  -5.0091
    -4.8206  -4.1758  -4.1758  -3.5113  -2.8095  -2.8095  -2.7078  -2.6295
    -2.5805  -2.5805  -2.4397  -2.4397  -2.4190  -2.3994  -2.3511  -2.3511

          k =-0.1498-0.0865 0.3111 ( 10809 PWs)   bands (ev):

   -20.8017 -20.4555 -20.4022 -20.3352 -20.3113 -20.2366 -20.0917 -20.0484
   -19.9934 -19.8465 -19.8043 -19.5850  -8.1540  -8.0747  -7.9968  -7.9491
    -7.8482  -7.7859  -7.4441  -7.2623  -7.2477  -7.1099  -6.9809  -6.9446
    -6.7399  -6.1243  -5.9930  -5.7226  -5.3995  -5.2615  -5.1211  -4.8959
    -4.8398  -4.1660  -4.1046  -3.6443  -2.9274  -2.8539  -2.7331  -2.6749
    -2.6178  -2.5817  -2.5397  -2.4758  -2.4109  -2.3717  -2.3363  -2.2884

          k = 0.2996 0.1730-0.6221 ( 10814 PWs)   bands (ev):

   -20.6089 -20.6070 -20.4370 -20.4211 -20.3112 -20.3065 -20.0354 -20.0253
   -19.8537 -19.8502 -19.7414 -19.7214  -8.1295  -8.0714  -7.9864  -7.9647
    -7.8528  -7.7907  -7.3901  -7.2650  -7.2236  -7.1197  -6.8970  -6.8961
    -6.4953  -6.3546  -6.0470  -5.8877  -5.3994  -5.3171  -5.1167  -4.9587
    -4.4239  -4.3030  -4.0429  -3.8142  -3.0341  -2.8748  -2.7594  -2.7302
    -2.6570  -2.6354  -2.5451  -2.4852  -2.4663  -2.3335  -2.3221  -2.2423

          k =-0.1498 0.0865 0.6221 ( 10804 PWs)   bands (ev):

   -20.6505 -20.5131 -20.5031 -20.3832 -20.3610 -20.2949 -20.0412 -19.9592
   -19.9240 -19.8059 -19.7873 -19.6955  -8.1375  -8.0485  -8.0297  -7.9219
    -7.8705  -7.7764  -7.3950  -7.3030  -7.2501  -7.0149  -6.9466  -6.8920
    -6.5007  -6.2870  -6.1886  -5.7174  -5.5434  -5.3598  -5.0403  -4.8334
    -4.6293  -4.1316  -4.1065  -3.8284  -3.0109  -2.9186  -2.7475  -2.7000
    -2.6661  -2.6162  -2.5720  -2.4867  -2.4553  -2.3431  -2.3258  -2.2361

          k = 0.2996 0.3460-0.3111 ( 10801 PWs)   bands (ev):

   -20.7040 -20.5466 -20.4378 -20.4146 -20.3309 -20.2617 -20.0448 -19.9427
   -19.9327 -19.8436 -19.7819 -19.6700  -8.1449  -8.1191  -7.9658  -7.9427
    -7.8823  -7.7858  -7.4278  -7.3655  -7.2386  -6.9824  -6.9508  -6.8796
    -6.6280  -6.3226  -6.0825  -5.7394  -5.6982  -5.1926  -5.0075  -4.7448
    -4.5168  -4.2886  -4.0871  -3.8017  -2.9208  -2.8503  -2.7640  -2.6921
    -2.6383  -2.5859  -2.5245  -2.5151  -2.4300  -2.3892  -2.3285  -2.2235

          k = 0.1498 0.2595 0.0000 ( 10814 PWs)   bands (ev):

   -20.8224 -20.4899 -20.4337 -20.3017 -20.2737 -20.1916 -20.1127 -20.0399
   -19.9996 -19.8511 -19.8150 -19.5727  -8.1931  -8.0877  -7.9880  -7.9422
    -7.8230  -7.8168  -7.5006  -7.3577  -7.1690  -7.0783  -7.0103  -6.8977
    -6.8735  -6.1074  -5.9743  -5.7148  -5.6023  -5.1379  -5.0039  -4.8787
    -4.6937  -4.2453  -4.1536  -3.6029  -2.8108  -2.7903  -2.7458  -2.6583
    -2.6188  -2.5916  -2.4740  -2.4583  -2.4236  -2.4151  -2.3101  -2.2955

          k = 0.2996-0.1730-1.2442 ( 10812 PWs)   bands (ev):

   -20.6930 -20.6552 -20.4489 -20.3518 -20.2735 -20.2150 -20.0571 -20.0215
   -19.9074 -19.8860 -19.7052 -19.6888  -8.1726  -8.1336  -7.9986  -7.9629
    -7.7973  -7.7919  -7.4979  -7.4270  -7.1522  -7.1030  -6.9205  -6.8751
    -6.5594  -6.5169  -6.0463  -5.8251  -5.5095  -5.2589  -4.8785  -4.6239
    -4.5147  -4.4499  -4.0030  -3.8150  -2.8274  -2.7765  -2.7592  -2.6925
    -2.6212  -2.5616  -2.5414  -2.4669  -2.4573  -2.4108  -2.2746  -2.2605

          k = 0.0000 0.0000 0.9332 ( 10773 PWs)   bands (ev):

   -20.5958 -20.5958 -20.5156 -20.4704 -20.2908 -20.2908 -19.9691 -19.9691
   -19.8466 -19.8072 -19.7801 -19.7801  -8.1204  -8.1204  -7.9819  -7.8808
    -7.8808  -7.8715  -7.4364  -7.3333  -7.3333  -6.8885  -6.8885  -6.8501
    -6.4235  -6.4229  -6.4229  -5.7642  -5.4539  -5.4539  -4.7936  -4.6088
    -4.6088  -4.1526  -4.1526  -3.9841  -2.8628  -2.8628  -2.7389  -2.6776
    -2.6098  -2.6098  -2.5519  -2.4886  -2.4886  -2.3745  -2.3745  -2.1992

          k = 0.4494 0.2595 0.0000 ( 10830 PWs)   bands (ev):

   -20.7227 -20.5553 -20.5490 -20.3535 -20.2181 -20.2073 -20.0721 -20.0650
   -19.9082 -19.8138 -19.7795 -19.6592  -8.1665  -8.1231  -8.0545  -7.8991
    -7.8393  -7.7751  -7.5151  -7.3765  -7.2464  -6.9978  -6.9449  -6.8972
    -6.6651  -6.2861  -6.2084  -5.7776  -5.5228  -5.2541  -4.8035  -4.7641
    -4.5584  -4.2562  -4.1162  -3.7881  -2.8090  -2.8014  -2.7473  -2.6973
    -2.6365  -2.5771  -2.5075  -2.4845  -2.4321  -2.3874  -2.3273  -2.2417

          k = 0.2996 0.1730 0.3111 ( 10818 PWs)   bands (ev):

   -20.7514 -20.5012 -20.4115 -20.3990 -20.3104 -20.2522 -20.0592 -20.0297
   -19.9577 -19.8349 -19.7807 -19.6232  -8.1649  -8.1061  -8.0222  -7.8927
    -7.8873  -7.7351  -7.4638  -7.3332  -7.1516  -7.0773  -7.0304  -6.9307
    -6.6551  -6.1287  -5.9543  -5.8696  -5.6405  -5.2884  -4.9921  -4.7913
    -4.6343  -4.2322  -4.0961  -3.6871  -2.9393  -2.8632  -2.7865  -2.7322
    -2.6335  -2.5923  -2.5156  -2.4827  -2.3983  -2.3574  -2.2981  -2.2810

          k = 0.4494-0.2595-0.9332 ( 10840 PWs)   bands (ev):

   -20.6208 -20.6183 -20.4801 -20.4247 -20.2981 -20.2219 -20.0985 -20.0144
   -19.8706 -19.8164 -19.7651 -19.6818  -8.1938  -8.0935  -8.0527  -7.8996
    -7.8526  -7.7157  -7.5097  -7.2916  -7.1705  -7.1141  -6.9667  -6.9366
    -6.3922  -6.3538  -6.0306  -5.8816  -5.6934  -5.3773  -4.9495  -4.6680
    -4.3638  -4.3248  -4.1386  -3.7572  -2.9383  -2.8832  -2.8455  -2.7325
    -2.6968  -2.6082  -2.4649  -2.4427  -2.4113  -2.3705  -2.3001  -2.2452

          k = 0.2996-0.3460-0.6221 ( 10828 PWs)   bands (ev):

   -20.5756 -20.5696 -20.4685 -20.4577 -20.3301 -20.3282 -20.0182 -20.0108
   -19.8586 -19.8507 -19.7355 -19.7149  -8.2075  -8.0070  -7.9766  -7.9576
    -7.9215  -7.7193  -7.4222  -7.3014  -7.1480  -7.1015  -6.9451  -6.9398
    -6.3563  -6.2286  -6.0657  -5.9388  -5.6153  -5.5795  -4.8675  -4.7953
    -4.3708  -4.3280  -4.1465  -3.7408  -3.0648  -2.8978  -2.8430  -2.7722
    -2.7167  -2.5781  -2.5099  -2.4703  -2.4474  -2.3240  -2.3066  -2.2265

          k = 0.0000 0.0000-1.8663 ( 10850 PWs)   bands (ev):

   -20.5436 -20.5251 -20.4315 -20.4315 -20.4295 -20.4295 -19.9432 -19.9432
   -19.9089 -19.9089 -19.7201 -19.7028  -8.2558  -7.9698  -7.9698  -7.9488
    -7.9488  -7.6883  -7.4725  -7.2989  -7.0517  -7.0517  -7.0204  -7.0204
    -6.1803  -6.0009  -5.9432  -5.9432  -5.9381  -5.9381  -4.6470  -4.6470
    -4.4098  -4.4098  -4.1643  -3.6905  -3.0962  -2.9006  -2.9006  -2.8102
    -2.8102  -2.5229  -2.5051  -2.4064  -2.4064  -2.3374  -2.3374  -2.2012

          k = 0.2996-0.3460 0.3111 ( 10801 PWs)   bands (ev):

   -20.7040 -20.5455 -20.4449 -20.4098 -20.3279 -20.2624 -20.0460 -19.9570
   -19.9122 -19.8549 -19.7747 -19.6718  -8.1604  -8.0858  -8.0026  -7.9377
    -7.8549  -7.7928  -7.4756  -7.3340  -7.2141  -7.0209  -6.9145  -6.9007
    -6.6203  -6.2548  -6.1773  -5.7898  -5.5527  -5.2555  -5.0883  -4.6543
    -4.4945  -4.2764  -4.1576  -3.7796  -2.9288  -2.8215  -2.7804  -2.6892
    -2.6442  -2.5911  -2.5255  -2.5149  -2.4476  -2.3579  -2.3293  -2.2319

     highest occupied level (ev):    -2.1992

!    total energy              =    -413.78161867 Ry
     estimated scf accuracy    <       0.00000002 Ry

     The total energy is the sum of the following terms:
     one-electron contribution =    -290.87317006 Ry
     hartree contribution      =     179.88558767 Ry
     xc contribution           =    -101.24944406 Ry
     ewald contribution        =    -201.54459222 Ry

     convergence has been achieved in  13 iterations

     Forces acting on atoms (cartesian axes, Ry/au):

     atom    1 type  2   force =    -0.03448022    0.06355891    0.03044708
     atom    2 type  2   force =     0.03448022   -0.06355891   -0.03044708
     atom    3 type  2   force =    -0.03780352   -0.06164020    0.03044708
     atom    4 type  2   force =     0.03780352    0.06164020   -0.03044708
     atom    5 type  2   force =     0.07228374   -0.00191871    0.03044708
     atom    6 type  2   force =    -0.07228374    0.00191871   -0.03044708
     atom    7 type  2   force =    -0.03063518    0.02365190   -0.02128726
     atom    8 type  2   force =     0.03063518   -0.02365190    0.02128726
     atom    9 type  2   force =    -0.00516556   -0.03835680   -0.02128726
     atom   10 type  2   force =     0.00516556    0.03835680    0.02128726
     atom   11 type  2   force =     0.03580074    0.01470489   -0.02128726
     atom   12 type  2   force =    -0.03580074   -0.01470489    0.02128726
     atom   13 type  1   force =     0.00315498   -0.02585791   -0.05128337
     atom   14 type  1   force =    -0.00315498    0.02585791    0.05128337
     atom   15 type  1   force =     0.02081611    0.01566125   -0.05128337
     atom   16 type  1   force =    -0.02081611   -0.01566125    0.05128337
     atom   17 type  1   force =    -0.02397110    0.01019666   -0.05128337
     atom   18 type  1   force =     0.02397110   -0.01019666    0.05128337
     atom   19 type  1   force =     0.02974535   -0.04467681    0.01024638
     atom   20 type  1   force =    -0.02974535    0.04467681   -0.01024638
     atom   21 type  1   force =     0.02381858    0.04809863    0.01024638
     atom   22 type  1   force =    -0.02381858   -0.04809863   -0.01024638
     atom   23 type  1   force =    -0.05356392   -0.00342182    0.01024638
     atom   24 type  1   force =     0.05356392    0.00342182   -0.01024638
     atom   25 type  1   force =    -0.01365793   -0.00237202    0.01259323
     atom   26 type  1   force =     0.01365793    0.00237202   -0.01259323
     atom   27 type  1   force =     0.00888320   -0.01064210    0.01259323
     atom   28 type  1   force =    -0.00888320    0.01064210   -0.01259323
     atom   29 type  1   force =     0.00477473    0.01301413    0.01259323
     atom   30 type  1   force =    -0.00477473   -0.01301413   -0.01259323
     atom   31 type  1   force =    -0.02866375   -0.00936718    0.01620404
     atom   32 type  1   force =     0.02866375    0.00936718   -0.01620404
     atom   33 type  1   force =     0.02244409   -0.02013994    0.01620404
     atom   34 type  1   force =    -0.02244409    0.02013994   -0.01620404
     atom   35 type  1   force =     0.00621966    0.02950712    0.01620404
     atom   36 type  1   force =    -0.00621966   -0.02950712   -0.01620404

     Total force =     0.309100     Total SCF correction =     0.000147


     Computing stress (Cartesian axis) and pressure

          total   stress  (Ry/bohr**3)                   (kbar)     P=      -30.07
  -0.00028172   0.00000000  -0.00000000          -41.44        0.00       -0.00
  -0.00000000  -0.00028172  -0.00000000           -0.00      -41.44       -0.00
   0.00000000  -0.00000000  -0.00004972            0.00       -0.00       -7.31


     Writing all to output data dir ./iceII_2/iceII_2.save/ :
     XML data file, charge density, pseudopotentials, collected wavefunctions

     init_run     :      0.52s CPU      0.58s WALL (       1 calls)
     electrons    :      4.56s CPU      4.74s WALL (       1 calls)
     forces       :      0.05s CPU      0.06s WALL (       1 calls)
     stress       :      0.31s CPU      0.33s WALL (       1 calls)

     Called by init_run:
     wfcinit      :      0.19s CPU      0.19s WALL (       1 calls)
     potinit      :      0.02s CPU      0.03s WALL (       1 calls)
     hinit0       :      0.28s CPU      0.29s WALL (       1 calls)

     Called by electrons:
     c_bands      :      3.99s CPU      4.08s WALL (      13 calls)
     sum_band     :      0.44s CPU      0.47s WALL (      13 calls)
     v_of_rho     :      0.09s CPU      0.10s WALL (      14 calls)
     newd         :      0.02s CPU      0.02s WALL (      14 calls)
     mix_rho      :      0.02s CPU      0.02s WALL (      13 calls)

     Called by c_bands:
     init_us_2    :      0.04s CPU      0.04s WALL (     116 calls)
     cegterg      :      3.90s CPU      3.97s WALL (      52 calls)

     Called by *egterg:
     cdiaghg      :      0.78s CPU      0.79s WALL (     206 calls)
     h_psi        :      2.63s CPU      2.69s WALL (     210 calls)
     s_psi        :      0.12s CPU      0.12s WALL (     210 calls)
     g_psi        :      0.01s CPU      0.01s WALL (     154 calls)

     Called by h_psi:
     h_psi:calbec :      0.18s CPU      0.19s WALL (     210 calls)
     vloc_psi     :      2.30s CPU      2.36s WALL (     210 calls)
     add_vuspsi   :      0.13s CPU      0.13s WALL (     210 calls)

     General routines
     calbec       :      0.25s CPU      0.25s WALL (     282 calls)
     fft          :      0.31s CPU      0.31s WALL (     162 calls)
     ffts         :      0.00s CPU      0.00s WALL (      13 calls)
     fftw         :      2.44s CPU      2.50s WALL (   18362 calls)

     Parallel routines

     PWSCF        :      5.73s CPU      6.16s WALL


   This run was terminated on:  21:36:37  18Mar2026            

=------------------------------------------------------------------------------=
   JOB DONE.
=------------------------------------------------------------------------------=
