
     Program PWSCF v.7.3.1 starts on 18Mar2026 at 21:40:16 

     This program is part of the open-source Quantum ESPRESSO suite
     for quantum simulation of materials; please cite
         "P. Giannozzi et al., J. Phys.:Condens. Matter 21 395502 (2009);
         "P. Giannozzi et al., J. Phys.:Condens. Matter 29 465901 (2017);
         "P. Giannozzi et al., J. Chem. Phys. 152 154105 (2020);
          URL http://www.quantum-espresso.org", 
     in publications or presentations arising from this work. More details at
     http://www.quantum-espresso.org/quote

     Parallel version (MPI), running on   128 processors

     MPI processes distributed on     1 nodes
     242913 MiB available memory on the printing compute node when the environment starts

     Waiting for input...
     Reading input from standard input

     Current dimensions of program PWSCF are:
     Max number of different atomic species (ntypx) = 10
     Max number of k-points (npk) =  40000
     Max angular momentum in pseudopotentials (lmaxx) =  4

     K-points division:     npool     =       4
     R & G space division:  proc/nbgrp/npool/nimage =      32
     Subspace diagonalization in iterative solution of the eigenvalue problem:
     a serial algorithm will be used


     Parallelization info
     --------------------
     sticks:   dense  smooth     PW     G-vecs:    dense   smooth      PW
     Min         154     154     45                 5971     5971     965
     Max         155     155     46                 5974     5974     970
     Sum        4933    4933   1465               191087   191087   30973

     Using Slab Decomposition



     bravais-lattice index     =            5
     lattice parameter (alat)  =      14.7021  a.u.
     unit-cell volume          =    2053.1832 (a.u.)^3
     number of atoms/cell      =           36
     number of atomic types    =            2
     number of electrons       =        96.00
     number of Kohn-Sham states=           48
     kinetic-energy cutoff     =      78.0000  Ry
     charge density cutoff     =     312.0000  Ry
     scf convergence threshold =      1.0E-07
     mixing beta               =       0.7000
     number of iterations used =            8  plain     mixing
     Exchange-correlation=  SLA  PW   PBE  PBE
                           (   1   4   3   4   0   0   0)

     celldm(1)=  14.702068  celldm(2)=   0.000000  celldm(3)=   0.000000
     celldm(4)=  -0.392337  celldm(5)=   0.000000  celldm(6)=   0.000000

     crystal axes: (cart. coord. in units of alat)
               a(1) = (   0.834367  -0.481722   0.267909 )  
               a(2) = (   0.000000   0.963444   0.267909 )  
               a(3) = (  -0.834367  -0.481722   0.267909 )  

     reciprocal axes: (cart. coord. in units 2 pi/alat)
               b(1) = (  0.599257 -0.345981  1.244203 )  
               b(2) = ( -0.000000  0.691962  1.244203 )  
               b(3) = ( -0.599257 -0.345981  1.244203 )  


     PseudoPot. # 1 for H  read from file:
     ./H.pbe-van_ak.UPF
     MD5 check sum: 077eb6d537518a38cb46c6de387227b7
     Pseudo is Ultrasoft, Zval =  1.0
     Generated by new atomic code, or converted to UPF format
     Using radial grid of  615 points,  1 beta functions with: 
                l(1) =   0
     Q(r) pseudized with  8 coefficients,  rinner =    0.800

     PseudoPot. # 2 for O  read from file:
     ./O.pbe-van_ak.UPF
     MD5 check sum: 78c19812648e8988a0fe644b0f25305e
     Pseudo is Ultrasoft, Zval =  6.0
     Generated by new atomic code, or converted to UPF format
     Using radial grid of  737 points,  4 beta functions with: 
                l(1) =   0
                l(2) =   0
                l(3) =   1
                l(4) =   1
     Q(r) pseudized with  8 coefficients,  rinner =    0.800   0.800   0.800


     atomic species   valence    mass     pseudopotential
     H                 1.00     1.00800     H ( 1.00)
     O                 6.00    16.00000     O ( 1.00)

      6 Sym. Ops., with inversion, found



   Cartesian axes

     site n.     atom                  positions (alat units)
         1        O      tau(   1) = (  -0.4847673  -0.5197781   0.3083633  )
         2        O      tau(   2) = (   0.4847673   0.5197782   0.4953638  )
         3        O      tau(   3) = (   0.6925247  -0.1599317   0.3083633  )
         4        O      tau(   4) = (  -0.6925248   0.1599317   0.4953638  )
         5        O      tau(   5) = (  -0.2077574   0.6797099   0.3083633  )
         6        O      tau(   6) = (   0.2077574  -0.6797099   0.4953638  )
         7        O      tau(   7) = (   0.1218176   0.3323883   0.4179381  )
         8        O      tau(   8) = (  -0.1218176  -0.3323883   0.3857890  )
         9        O      tau(   9) = (  -0.3487655  -0.0606970   0.4179381  )
        10        O      tau(  10) = (   0.3487655   0.0606970   0.3857890  )
        11        O      tau(  11) = (   0.2269479  -0.2716913   0.4179381  )
        12        O      tau(  12) = (  -0.2269479   0.2716912   0.3857890  )
        13        H      tau(  13) = (  -0.5381668  -0.4032014   0.2796970  )
        14        H      tau(  14) = (   0.5381668   0.4032014   0.5240301  )
        15        H      tau(  15) = (   0.6182661  -0.2644654   0.2796970  )
        16        H      tau(  16) = (  -0.6182661   0.2644654   0.5240301  )
        17        H      tau(  17) = (  -0.0800993   0.6676668   0.2796970  )
        18        H      tau(  18) = (   0.0800993  -0.6676668   0.5240301  )
        19        H      tau(  19) = (  -0.4872704  -0.4817221   0.4326731  )
        20        H      tau(  20) = (   0.4872704   0.4817221   0.3710540  )
        21        H      tau(  21) = (   0.6608188  -0.1811275   0.4326731  )
        22        H      tau(  22) = (  -0.6608188   0.1811275   0.3710540  )
        23        H      tau(  23) = (  -0.1735484   0.6628496   0.4326731  )
        24        H      tau(  24) = (   0.1735484  -0.6628496   0.3710540  )
        25        H      tau(  25) = (   0.2703349  -0.1502973   0.4058822  )
        26        H      tau(  26) = (  -0.2703350   0.1502973   0.3978449  )
        27        H      tau(  27) = (  -0.0050062   0.3092656   0.4058822  )
        28        H      tau(  28) = (   0.0050062  -0.3092656   0.3978449  )
        29        H      tau(  29) = (  -0.2653287  -0.1589683   0.4058822  )
        30        H      tau(  30) = (   0.2653287   0.1589683   0.3978449  )
        31        H      tau(  31) = (   0.3178939  -0.3347969   0.3493534  )
        32        H      tau(  32) = (  -0.3178939   0.3347969   0.4543737  )
        33        H      tau(  33) = (   0.1309957   0.4427026   0.3493534  )
        34        H      tau(  34) = (  -0.1309956  -0.4427026   0.4543737  )
        35        H      tau(  35) = (  -0.4488895  -0.1079057   0.3493534  )
        36        H      tau(  36) = (   0.4488895   0.1079057   0.4543737  )

     number of k points=    14
                       cart. coord. in units 2pi/alat
        k(    1) = (   0.0000000   0.0000000   0.0000000), wk =   0.0312500
        k(    2) = (  -0.1498141  -0.0864952   0.3110508), wk =   0.1875000
        k(    3) = (   0.2996283   0.1729905  -0.6221017), wk =   0.0937500
        k(    4) = (  -0.1498141   0.0864952   0.6221017), wk =   0.1875000
        k(    5) = (   0.2996283   0.3459809  -0.3110508), wk =   0.1875000
        k(    6) = (   0.1498141   0.2594857   0.0000000), wk =   0.1875000
        k(    7) = (   0.2996283  -0.1729905  -1.2442034), wk =   0.0937500
        k(    8) = (   0.0000000   0.0000000   0.9331525), wk =   0.0625000
        k(    9) = (   0.4494424   0.2594857   0.0000000), wk =   0.1875000
        k(   10) = (   0.2996283   0.1729905   0.3110508), wk =   0.1875000
        k(   11) = (   0.4494424  -0.2594857  -0.9331525), wk =   0.1875000
        k(   12) = (   0.2996283  -0.3459809  -0.6221017), wk =   0.1875000
        k(   13) = (   0.0000000   0.0000000  -1.8663050), wk =   0.0312500
        k(   14) = (   0.2996283  -0.3459809   0.3110508), wk =   0.1875000

     Dense  grid:   191087 G-vectors     FFT dimensions: (  90,  90,  90)

     Estimated max dynamical RAM per process >      13.03 MB

     Estimated total dynamical RAM >       1.49 GB

     Initial potential from superposition of free atoms

     starting charge      95.9998, renormalised to      96.0000
     Starting wfcs are   72 randomized atomic wfcs

     total cpu time spent up to now is        1.1 secs

     per-process dynamical memory:    17.6 Mb

     Self-consistent Calculation

     iteration #  1     ecut=    78.00 Ry     beta= 0.70
     Davidson diagonalization with overlap
     ethr =  1.00E-02,  avg # of iterations =  2.0

     total cpu time spent up to now is        1.9 secs

     total energy              =    -412.27117832 Ry
     estimated scf accuracy    <       3.73036068 Ry

     iteration #  2     ecut=    78.00 Ry     beta= 0.70
     Davidson diagonalization with overlap
     ethr =  3.89E-03,  avg # of iterations =  3.0

     total cpu time spent up to now is        2.8 secs

     total energy              =    -413.45187333 Ry
     estimated scf accuracy    <       2.34326254 Ry

     iteration #  3     ecut=    78.00 Ry     beta= 0.70
     Davidson diagonalization with overlap
     ethr =  2.44E-03,  avg # of iterations =  2.0

     total cpu time spent up to now is        3.5 secs

     total energy              =    -413.74916686 Ry
     estimated scf accuracy    <       0.09995175 Ry

     iteration #  4     ecut=    78.00 Ry     beta= 0.70
     Davidson diagonalization with overlap
     ethr =  1.04E-04,  avg # of iterations =  4.0

     total cpu time spent up to now is        4.6 secs

     total energy              =    -413.82731056 Ry
     estimated scf accuracy    <       0.11799474 Ry

     iteration #  5     ecut=    78.00 Ry     beta= 0.70
     Davidson diagonalization with overlap
     ethr =  1.04E-04,  avg # of iterations =  2.0

     total cpu time spent up to now is        5.2 secs

     total energy              =    -413.83088189 Ry
     estimated scf accuracy    <       0.02008562 Ry

     iteration #  6     ecut=    78.00 Ry     beta= 0.70
     Davidson diagonalization with overlap
     ethr =  2.09E-05,  avg # of iterations =  2.0

     total cpu time spent up to now is        5.9 secs

     total energy              =    -413.83012417 Ry
     estimated scf accuracy    <       0.00704958 Ry

     iteration #  7     ecut=    78.00 Ry     beta= 0.70
     Davidson diagonalization with overlap
     ethr =  7.34E-06,  avg # of iterations =  3.0

     total cpu time spent up to now is        6.7 secs

     total energy              =    -413.83172632 Ry
     estimated scf accuracy    <       0.00016012 Ry

     iteration #  8     ecut=    78.00 Ry     beta= 0.70
     Davidson diagonalization with overlap
     ethr =  1.67E-07,  avg # of iterations =  6.0

     total cpu time spent up to now is        8.0 secs

     total energy              =    -413.83179856 Ry
     estimated scf accuracy    <       0.00105501 Ry

     iteration #  9     ecut=    78.00 Ry     beta= 0.70
     Davidson diagonalization with overlap
     ethr =  1.67E-07,  avg # of iterations =  4.0

     total cpu time spent up to now is        8.9 secs

     total energy              =    -413.83184387 Ry
     estimated scf accuracy    <       0.00010782 Ry

     iteration # 10     ecut=    78.00 Ry     beta= 0.70
     Davidson diagonalization with overlap
     ethr =  1.12E-07,  avg # of iterations =  2.3

     total cpu time spent up to now is        9.8 secs

     total energy              =    -413.83187403 Ry
     estimated scf accuracy    <       0.00000051 Ry

     iteration # 11     ecut=    78.00 Ry     beta= 0.70
     Davidson diagonalization with overlap
     ethr =  5.26E-10,  avg # of iterations =  5.0

     total cpu time spent up to now is       10.8 secs

     End of self-consistent calculation

          k = 0.0000 0.0000 0.0000 ( 23867 PWs)   bands (ev):

   -20.8695 -20.4075 -20.4075 -20.1828 -20.1828 -20.1556 -20.1556 -20.1393
   -20.1368 -19.8325 -19.8325 -19.5171  -8.2102  -8.0101  -7.9521  -7.9521
    -7.8673  -7.8673  -7.4472  -7.2938  -7.2938  -7.0767  -7.0767  -6.9429
    -6.8783  -5.9781  -5.9781  -5.3878  -5.3878  -5.3100  -5.3100  -5.0102
    -4.8224  -4.1777  -4.1777  -3.5136  -2.8118  -2.8118  -2.7101  -2.6318
    -2.5830  -2.5830  -2.4422  -2.4422  -2.4216  -2.4019  -2.3535  -2.3535

          k =-0.1498-0.0865 0.3111 ( 23900 PWs)   bands (ev):

   -20.7950 -20.4485 -20.3952 -20.3282 -20.3043 -20.2296 -20.0845 -20.0413
   -19.9863 -19.8392 -19.7970 -19.5776  -8.1549  -8.0758  -7.9980  -7.9505
    -7.8496  -7.7873  -7.4451  -7.2639  -7.2492  -7.1117  -6.9830  -6.9467
    -6.7418  -6.1254  -5.9942  -5.7237  -5.4009  -5.2626  -5.1225  -4.8971
    -4.8414  -4.1681  -4.1067  -3.6465  -2.9298  -2.8564  -2.7354  -2.6773
    -2.6203  -2.5842  -2.5421  -2.4784  -2.4136  -2.3746  -2.3391  -2.2913

          k = 0.2996 0.1730-0.6221 ( 23884 PWs)   bands (ev):

   -20.6021 -20.6000 -20.4301 -20.4140 -20.3042 -20.2994 -20.0283 -20.0181
   -19.8465 -19.8429 -19.7341 -19.7140  -8.1305  -8.0723  -7.9877  -7.9659
    -7.8542  -7.7921  -7.3913  -7.2666  -7.2250  -7.1218  -6.8990  -6.8983
    -6.4966  -6.3557  -6.0481  -5.8888  -5.4008  -5.3185  -5.1178  -4.9598
    -4.4256  -4.3047  -4.0449  -3.8162  -3.0364  -2.8772  -2.7617  -2.7324
    -2.6593  -2.6379  -2.5477  -2.4878  -2.4689  -2.3364  -2.3248  -2.2453

          k =-0.1498 0.0865 0.6221 ( 23877 PWs)   bands (ev):

   -20.6437 -20.5062 -20.4962 -20.3762 -20.3540 -20.2879 -20.0340 -19.9521
   -19.9168 -19.7986 -19.7800 -19.6882  -8.1384  -8.0497  -8.0308  -7.9235
    -7.8718  -7.7778  -7.3961  -7.3045  -7.2517  -7.0168  -6.9487  -6.8941
    -6.5019  -6.2881  -6.1898  -5.7187  -5.5447  -5.3610  -5.0415  -4.8347
    -4.6308  -4.1336  -4.1086  -3.8304  -3.0133  -2.9210  -2.7501  -2.7024
    -2.6684  -2.6187  -2.5748  -2.4893  -2.4579  -2.3459  -2.3287  -2.2391

          k = 0.2996 0.3460-0.3111 ( 23883 PWs)   bands (ev):

   -20.6972 -20.5397 -20.4308 -20.4077 -20.3238 -20.2546 -20.0377 -19.9355
   -19.9256 -19.8363 -19.7746 -19.6626  -8.1459  -8.1201  -7.9670  -7.9441
    -7.8837  -7.7874  -7.4292  -7.3672  -7.2404  -6.9842  -6.9529  -6.8818
    -6.6293  -6.3235  -6.0833  -5.7406  -5.6996  -5.1941  -5.0086  -4.7464
    -4.5185  -4.2904  -4.0891  -3.8038  -2.9232  -2.8529  -2.7665  -2.6944
    -2.6409  -2.5883  -2.5271  -2.5178  -2.4326  -2.3920  -2.3312  -2.2265

          k = 0.1498 0.2595 0.0000 ( 23892 PWs)   bands (ev):

   -20.8156 -20.4830 -20.4268 -20.2947 -20.2666 -20.1845 -20.1056 -20.0327
   -19.9924 -19.8439 -19.8078 -19.5653  -8.1941  -8.0887  -7.9892  -7.9436
    -7.8245  -7.8182  -7.5018  -7.3593  -7.1706  -7.0802  -7.0120  -6.8993
    -6.8757  -6.1082  -5.9753  -5.7160  -5.6034  -5.1392  -5.0053  -4.8801
    -4.6956  -4.2472  -4.1555  -3.6052  -2.8133  -2.7927  -2.7482  -2.6606
    -2.6211  -2.5942  -2.4767  -2.4610  -2.4264  -2.4176  -2.3128  -2.2982

          k = 0.2996-0.1730-1.2442 ( 23900 PWs)   bands (ev):

   -20.6862 -20.6484 -20.4420 -20.3448 -20.2664 -20.2079 -20.0500 -20.0144
   -19.9002 -19.8787 -19.6979 -19.6815  -8.1736  -8.1346  -7.9999  -7.9641
    -7.7989  -7.7935  -7.4994  -7.4285  -7.1539  -7.1047  -6.9226  -6.8770
    -6.5602  -6.5178  -6.0472  -5.8265  -5.5109  -5.2605  -4.8801  -4.6258
    -4.5164  -4.4514  -4.0051  -3.8171  -2.8298  -2.7791  -2.7616  -2.6944
    -2.6236  -2.5640  -2.5441  -2.4697  -2.4600  -2.4133  -2.2774  -2.2633

          k = 0.0000 0.0000 0.9332 ( 23876 PWs)   bands (ev):

   -20.5889 -20.5889 -20.5088 -20.4634 -20.2838 -20.2838 -19.9619 -19.9619
   -19.8394 -19.7998 -19.7728 -19.7728  -8.1216  -8.1216  -7.9830  -7.8823
    -7.8823  -7.8731  -7.4380  -7.3350  -7.3350  -6.8907  -6.8907  -6.8524
    -6.4242  -6.4238  -6.4238  -5.7656  -5.4555  -5.4555  -4.7948  -4.6106
    -4.6106  -4.1547  -4.1547  -3.9861  -2.8654  -2.8654  -2.7411  -2.6802
    -2.6125  -2.6125  -2.5547  -2.4913  -2.4913  -2.3775  -2.3775  -2.2023

          k = 0.4494 0.2595 0.0000 ( 23896 PWs)   bands (ev):

   -20.7160 -20.5484 -20.5421 -20.3464 -20.2110 -20.2001 -20.0650 -20.0578
   -19.9010 -19.8065 -19.7721 -19.6518  -8.1675  -8.1242  -8.0555  -7.9005
    -7.8407  -7.7765  -7.5165  -7.3781  -7.2481  -6.9996  -6.9468  -6.8992
    -6.6660  -6.2868  -6.2092  -5.7789  -5.5241  -5.2555  -4.8050  -4.7657
    -4.5600  -4.2579  -4.1181  -3.7902  -2.8114  -2.8038  -2.7497  -2.6992
    -2.6390  -2.5796  -2.5101  -2.4871  -2.4348  -2.3901  -2.3299  -2.2444

          k = 0.2996 0.1730 0.3111 ( 23900 PWs)   bands (ev):

   -20.7446 -20.4943 -20.4046 -20.3920 -20.3033 -20.2452 -20.0521 -20.0226
   -19.9505 -19.8277 -19.7734 -19.6158  -8.1657  -8.1073  -8.0234  -7.8942
    -7.8886  -7.7365  -7.4651  -7.3346  -7.1534  -7.0791  -7.0322  -6.9328
    -6.6566  -6.1297  -5.9554  -5.8706  -5.6416  -5.2896  -4.9936  -4.7928
    -4.6358  -4.2341  -4.0981  -3.6892  -2.9417  -2.8656  -2.7887  -2.7345
    -2.6359  -2.5946  -2.5181  -2.4854  -2.4010  -2.3601  -2.3008  -2.2840

          k = 0.4494-0.2595-0.9332 ( 23864 PWs)   bands (ev):

   -20.6140 -20.6114 -20.4732 -20.4176 -20.2911 -20.2148 -20.0914 -20.0072
   -19.8633 -19.8091 -19.7578 -19.6744  -8.1945  -8.0946  -8.0538  -7.9010
    -7.8539  -7.7171  -7.5110  -7.2932  -7.1722  -7.1159  -6.9687  -6.9385
    -6.3930  -6.3547  -6.0314  -5.8828  -5.6945  -5.3784  -4.9510  -4.6696
    -4.3654  -4.3265  -4.1403  -3.7591  -2.9406  -2.8854  -2.8478  -2.7348
    -2.6992  -2.6102  -2.4675  -2.4453  -2.4138  -2.3732  -2.3028  -2.2479

          k = 0.2996-0.3460-0.6221 ( 23866 PWs)   bands (ev):

   -20.5688 -20.5626 -20.4615 -20.4507 -20.3231 -20.3212 -20.0111 -20.0036
   -19.8513 -19.8434 -19.7283 -19.7075  -8.2082  -8.0082  -7.9779  -7.9588
    -7.9228  -7.7207  -7.4234  -7.3030  -7.1496  -7.1033  -6.9471  -6.9419
    -6.3575  -6.2297  -6.0667  -5.9399  -5.6163  -5.5804  -4.8690  -4.7967
    -4.3725  -4.3296  -4.1484  -3.7428  -3.0671  -2.9001  -2.8453  -2.7744
    -2.7190  -2.5805  -2.5123  -2.4730  -2.4500  -2.3268  -2.3093  -2.2295

          k = 0.0000 0.0000-1.8663 ( 23868 PWs)   bands (ev):

   -20.5368 -20.5180 -20.4244 -20.4244 -20.4226 -20.4226 -19.9361 -19.9361
   -19.9016 -19.9016 -19.7128 -19.6954  -8.2563  -7.9709  -7.9709  -7.9501
    -7.9501  -7.6897  -7.4736  -7.3005  -7.0535  -7.0535  -7.0223  -7.0223
    -6.1813  -6.0022  -5.9442  -5.9442  -5.9389  -5.9389  -4.6486  -4.6486
    -4.4111  -4.4111  -4.1660  -3.6927  -3.0985  -2.9029  -2.9029  -2.8125
    -2.8125  -2.5252  -2.5074  -2.4090  -2.4090  -2.3401  -2.3401  -2.2040

          k = 0.2996-0.3460 0.3111 ( 23883 PWs)   bands (ev):

   -20.6972 -20.5386 -20.4380 -20.4028 -20.3208 -20.2554 -20.0389 -19.9499
   -19.9049 -19.8478 -19.7674 -19.6645  -8.1613  -8.0870  -8.0039  -7.9390
    -7.8564  -7.7942  -7.4770  -7.3356  -7.2159  -7.0227  -6.9166  -6.9028
    -6.6216  -6.2557  -6.1782  -5.7910  -5.5541  -5.2570  -5.0895  -4.6558
    -4.4963  -4.2784  -4.1595  -3.7818  -2.9311  -2.8239  -2.7829  -2.6916
    -2.6465  -2.5935  -2.5282  -2.5177  -2.4503  -2.3608  -2.3320  -2.2349

     highest occupied level (ev):    -2.2023

!    total energy              =    -413.83187479 Ry
     estimated scf accuracy    <       0.00000005 Ry

     The total energy is the sum of the following terms:
     one-electron contribution =    -290.96373764 Ry
     hartree contribution      =     179.93770795 Ry
     xc contribution           =    -101.26125294 Ry
     ewald contribution        =    -201.54459216 Ry

     convergence has been achieved in  11 iterations

     Forces acting on atoms (cartesian axes, Ry/au):

     atom    1 type  2   force =    -0.03444510    0.06360349    0.03055569
     atom    2 type  2   force =     0.03444510   -0.06360349   -0.03055569
     atom    3 type  2   force =    -0.03785969   -0.06163207    0.03055569
     atom    4 type  2   force =     0.03785969    0.06163207   -0.03055569
     atom    5 type  2   force =     0.07230479   -0.00197142    0.03055569
     atom    6 type  2   force =    -0.07230479    0.00197142   -0.03055569
     atom    7 type  2   force =    -0.03072978    0.02386189   -0.02140388
     atom    8 type  2   force =     0.03072978   -0.02386189    0.02140388
     atom    9 type  2   force =    -0.00530011   -0.03854371   -0.02140388
     atom   10 type  2   force =     0.00530011    0.03854371    0.02140388
     atom   11 type  2   force =     0.03602989    0.01468183   -0.02140388
     atom   12 type  2   force =    -0.03602989   -0.01468183    0.02140388
     atom   13 type  1   force =     0.00320841   -0.02590376   -0.05125176
     atom   14 type  1   force =    -0.00320841    0.02590376    0.05125176
     atom   15 type  1   force =     0.02082911    0.01573044   -0.05125176
     atom   16 type  1   force =    -0.02082911   -0.01573044    0.05125176
     atom   17 type  1   force =    -0.02403752    0.01017332   -0.05125176
     atom   18 type  1   force =     0.02403752   -0.01017332    0.05125176
     atom   19 type  1   force =     0.02973964   -0.04468794    0.01013589
     atom   20 type  1   force =    -0.02973964    0.04468794   -0.01013589
     atom   21 type  1   force =     0.02383107    0.04809926    0.01013589
     atom   22 type  1   force =    -0.02383107   -0.04809926   -0.01013589
     atom   23 type  1   force =    -0.05357071   -0.00341132    0.01013589
     atom   24 type  1   force =     0.05357071    0.00341132   -0.01013589
     atom   25 type  1   force =    -0.01365880   -0.00244490    0.01258807
     atom   26 type  1   force =     0.01365880    0.00244490   -0.01258807
     atom   27 type  1   force =     0.00894674   -0.01060642    0.01258807
     atom   28 type  1   force =    -0.00894674    0.01060642   -0.01258807
     atom   29 type  1   force =     0.00471205    0.01305132    0.01258807
     atom   30 type  1   force =    -0.00471205   -0.01305132   -0.01258807
     atom   31 type  1   force =    -0.02870906   -0.00932477    0.01625547
     atom   32 type  1   force =     0.02870906    0.00932477   -0.01625547
     atom   33 type  1   force =     0.02243001   -0.02020039    0.01625547
     atom   34 type  1   force =    -0.02243001    0.02020039   -0.01625547
     atom   35 type  1   force =     0.00627904    0.02952516    0.01625547
     atom   36 type  1   force =    -0.00627904   -0.02952516   -0.01625547

     Total force =     0.309412     Total SCF correction =     0.000359


     Computing stress (Cartesian axis) and pressure

          total   stress  (Ry/bohr**3)                   (kbar)     P=      -25.63
  -0.00025132   0.00000000  -0.00000000          -36.97        0.00       -0.00
  -0.00000000  -0.00025132  -0.00000000           -0.00      -36.97       -0.00
   0.00000000  -0.00000000  -0.00002008            0.00       -0.00       -2.95


     Writing all to output data dir ./iceII_2/iceII_2.save/ :
     XML data file, charge density, pseudopotentials, collected wavefunctions

     init_run     :      0.84s CPU      0.91s WALL (       1 calls)
     electrons    :      9.58s CPU      9.80s WALL (       1 calls)
     forces       :      0.09s CPU      0.11s WALL (       1 calls)
     stress       :      0.69s CPU      0.70s WALL (       1 calls)

     Called by init_run:
     wfcinit      :      0.31s CPU      0.33s WALL (       1 calls)
     potinit      :      0.03s CPU      0.04s WALL (       1 calls)
     hinit0       :      0.38s CPU      0.40s WALL (       1 calls)

     Called by electrons:
     c_bands      :      8.21s CPU      8.30s WALL (      11 calls)
     sum_band     :      1.05s CPU      1.07s WALL (      11 calls)
     v_of_rho     :      0.22s CPU      0.24s WALL (      12 calls)
     newd         :      0.04s CPU      0.05s WALL (      12 calls)
     mix_rho      :      0.03s CPU      0.03s WALL (      11 calls)

     Called by c_bands:
     init_us_2    :      0.10s CPU      0.11s WALL (     100 calls)
     cegterg      :      8.05s CPU      8.12s WALL (      44 calls)

     Called by *egterg:
     cdiaghg      :      0.72s CPU      0.72s WALL (     185 calls)
     h_psi        :      6.39s CPU      6.46s WALL (     189 calls)
     s_psi        :      0.23s CPU      0.23s WALL (     189 calls)
     g_psi        :      0.01s CPU      0.01s WALL (     141 calls)

     Called by h_psi:
     h_psi:calbec :      0.41s CPU      0.41s WALL (     189 calls)
     vloc_psi     :      5.72s CPU      5.77s WALL (     189 calls)
     add_vuspsi   :      0.24s CPU      0.24s WALL (     189 calls)

     General routines
     calbec       :      0.53s CPU      0.54s WALL (     253 calls)
     fft          :      0.47s CPU      0.49s WALL (     140 calls)
     ffts         :      0.01s CPU      0.01s WALL (      11 calls)
     fftw         :      5.89s CPU      5.94s WALL (   16522 calls)

     Parallel routines

     PWSCF        :     11.49s CPU     12.15s WALL


   This run was terminated on:  21:40:28  18Mar2026            

=------------------------------------------------------------------------------=
   JOB DONE.
=------------------------------------------------------------------------------=
