
     Program PWSCF v.7.3.1 starts on 18Mar2026 at 21:36:41 

     This program is part of the open-source Quantum ESPRESSO suite
     for quantum simulation of materials; please cite
         "P. Giannozzi et al., J. Phys.:Condens. Matter 21 395502 (2009);
         "P. Giannozzi et al., J. Phys.:Condens. Matter 29 465901 (2017);
         "P. Giannozzi et al., J. Chem. Phys. 152 154105 (2020);
          URL http://www.quantum-espresso.org", 
     in publications or presentations arising from this work. More details at
     http://www.quantum-espresso.org/quote

     Parallel version (MPI), running on   128 processors

     MPI processes distributed on     1 nodes
     243240 MiB available memory on the printing compute node when the environment starts

     Waiting for input...
     Reading input from standard input

     Current dimensions of program PWSCF are:
     Max number of different atomic species (ntypx) = 10
     Max number of k-points (npk) =  40000
     Max angular momentum in pseudopotentials (lmaxx) =  4

     K-points division:     npool     =       4
     R & G space division:  proc/nbgrp/npool/nimage =      32
     Subspace diagonalization in iterative solution of the eigenvalue problem:
     a serial algorithm will be used


     Parallelization info
     --------------------
     sticks:   dense  smooth     PW     G-vecs:    dense   smooth      PW
     Min          95      95     29                 2881     2881     497
     Max          96      96     30                 2883     2883     499
     Sum        3041    3041    945                92225    92225   15921

     Using Slab Decomposition



     bravais-lattice index     =            5
     lattice parameter (alat)  =      14.7021  a.u.
     unit-cell volume          =    2053.1832 (a.u.)^3
     number of atoms/cell      =           36
     number of atomic types    =            2
     number of electrons       =        96.00
     number of Kohn-Sham states=           48
     kinetic-energy cutoff     =      48.0000  Ry
     charge density cutoff     =     192.0000  Ry
     scf convergence threshold =      1.0E-07
     mixing beta               =       0.7000
     number of iterations used =            8  plain     mixing
     Exchange-correlation=  SLA  PW   PBE  PBE
                           (   1   4   3   4   0   0   0)

     celldm(1)=  14.702068  celldm(2)=   0.000000  celldm(3)=   0.000000
     celldm(4)=  -0.392337  celldm(5)=   0.000000  celldm(6)=   0.000000

     crystal axes: (cart. coord. in units of alat)
               a(1) = (   0.834367  -0.481722   0.267909 )  
               a(2) = (   0.000000   0.963444   0.267909 )  
               a(3) = (  -0.834367  -0.481722   0.267909 )  

     reciprocal axes: (cart. coord. in units 2 pi/alat)
               b(1) = (  0.599257 -0.345981  1.244203 )  
               b(2) = ( -0.000000  0.691962  1.244203 )  
               b(3) = ( -0.599257 -0.345981  1.244203 )  


     PseudoPot. # 1 for H  read from file:
     ./H.pbe-van_ak.UPF
     MD5 check sum: 077eb6d537518a38cb46c6de387227b7
     Pseudo is Ultrasoft, Zval =  1.0
     Generated by new atomic code, or converted to UPF format
     Using radial grid of  615 points,  1 beta functions with: 
                l(1) =   0
     Q(r) pseudized with  8 coefficients,  rinner =    0.800

     PseudoPot. # 2 for O  read from file:
     ./O.pbe-van_ak.UPF
     MD5 check sum: 78c19812648e8988a0fe644b0f25305e
     Pseudo is Ultrasoft, Zval =  6.0
     Generated by new atomic code, or converted to UPF format
     Using radial grid of  737 points,  4 beta functions with: 
                l(1) =   0
                l(2) =   0
                l(3) =   1
                l(4) =   1
     Q(r) pseudized with  8 coefficients,  rinner =    0.800   0.800   0.800


     atomic species   valence    mass     pseudopotential
     H                 1.00     1.00800     H ( 1.00)
     O                 6.00    16.00000     O ( 1.00)

      6 Sym. Ops., with inversion, found



   Cartesian axes

     site n.     atom                  positions (alat units)
         1        O      tau(   1) = (  -0.4847673  -0.5197781   0.3083633  )
         2        O      tau(   2) = (   0.4847673   0.5197782   0.4953638  )
         3        O      tau(   3) = (   0.6925247  -0.1599317   0.3083633  )
         4        O      tau(   4) = (  -0.6925248   0.1599317   0.4953638  )
         5        O      tau(   5) = (  -0.2077574   0.6797099   0.3083633  )
         6        O      tau(   6) = (   0.2077574  -0.6797099   0.4953638  )
         7        O      tau(   7) = (   0.1218176   0.3323883   0.4179381  )
         8        O      tau(   8) = (  -0.1218176  -0.3323883   0.3857890  )
         9        O      tau(   9) = (  -0.3487655  -0.0606970   0.4179381  )
        10        O      tau(  10) = (   0.3487655   0.0606970   0.3857890  )
        11        O      tau(  11) = (   0.2269479  -0.2716913   0.4179381  )
        12        O      tau(  12) = (  -0.2269479   0.2716912   0.3857890  )
        13        H      tau(  13) = (  -0.5381668  -0.4032014   0.2796970  )
        14        H      tau(  14) = (   0.5381668   0.4032014   0.5240301  )
        15        H      tau(  15) = (   0.6182661  -0.2644654   0.2796970  )
        16        H      tau(  16) = (  -0.6182661   0.2644654   0.5240301  )
        17        H      tau(  17) = (  -0.0800993   0.6676668   0.2796970  )
        18        H      tau(  18) = (   0.0800993  -0.6676668   0.5240301  )
        19        H      tau(  19) = (  -0.4872704  -0.4817221   0.4326731  )
        20        H      tau(  20) = (   0.4872704   0.4817221   0.3710540  )
        21        H      tau(  21) = (   0.6608188  -0.1811275   0.4326731  )
        22        H      tau(  22) = (  -0.6608188   0.1811275   0.3710540  )
        23        H      tau(  23) = (  -0.1735484   0.6628496   0.4326731  )
        24        H      tau(  24) = (   0.1735484  -0.6628496   0.3710540  )
        25        H      tau(  25) = (   0.2703349  -0.1502973   0.4058822  )
        26        H      tau(  26) = (  -0.2703350   0.1502973   0.3978449  )
        27        H      tau(  27) = (  -0.0050062   0.3092656   0.4058822  )
        28        H      tau(  28) = (   0.0050062  -0.3092656   0.3978449  )
        29        H      tau(  29) = (  -0.2653287  -0.1589683   0.4058822  )
        30        H      tau(  30) = (   0.2653287   0.1589683   0.3978449  )
        31        H      tau(  31) = (   0.3178939  -0.3347969   0.3493534  )
        32        H      tau(  32) = (  -0.3178939   0.3347969   0.4543737  )
        33        H      tau(  33) = (   0.1309957   0.4427026   0.3493534  )
        34        H      tau(  34) = (  -0.1309956  -0.4427026   0.4543737  )
        35        H      tau(  35) = (  -0.4488895  -0.1079057   0.3493534  )
        36        H      tau(  36) = (   0.4488895   0.1079057   0.4543737  )

     number of k points=    14
                       cart. coord. in units 2pi/alat
        k(    1) = (   0.0000000   0.0000000   0.0000000), wk =   0.0312500
        k(    2) = (  -0.1498141  -0.0864952   0.3110508), wk =   0.1875000
        k(    3) = (   0.2996283   0.1729905  -0.6221017), wk =   0.0937500
        k(    4) = (  -0.1498141   0.0864952   0.6221017), wk =   0.1875000
        k(    5) = (   0.2996283   0.3459809  -0.3110508), wk =   0.1875000
        k(    6) = (   0.1498141   0.2594857   0.0000000), wk =   0.1875000
        k(    7) = (   0.2996283  -0.1729905  -1.2442034), wk =   0.0937500
        k(    8) = (   0.0000000   0.0000000   0.9331525), wk =   0.0625000
        k(    9) = (   0.4494424   0.2594857   0.0000000), wk =   0.1875000
        k(   10) = (   0.2996283   0.1729905   0.3110508), wk =   0.1875000
        k(   11) = (   0.4494424  -0.2594857  -0.9331525), wk =   0.1875000
        k(   12) = (   0.2996283  -0.3459809  -0.6221017), wk =   0.1875000
        k(   13) = (   0.0000000   0.0000000  -1.8663050), wk =   0.0312500
        k(   14) = (   0.2996283  -0.3459809   0.3110508), wk =   0.1875000

     Dense  grid:    92225 G-vectors     FFT dimensions: (  72,  72,  72)

     Estimated max dynamical RAM per process >       7.06 MB

     Estimated total dynamical RAM >     836.08 MB

     Initial potential from superposition of free atoms

     starting charge      95.9998, renormalised to      96.0000
     Starting wfcs are   72 randomized atomic wfcs

     total cpu time spent up to now is        1.1 secs

     per-process dynamical memory:    13.5 Mb

     Self-consistent Calculation

     iteration #  1     ecut=    48.00 Ry     beta= 0.70
     Davidson diagonalization with overlap
     ethr =  1.00E-02,  avg # of iterations =  2.0

     total cpu time spent up to now is        1.6 secs

     total energy              =    -412.23648728 Ry
     estimated scf accuracy    <       3.71720633 Ry

     iteration #  2     ecut=    48.00 Ry     beta= 0.70
     Davidson diagonalization with overlap
     ethr =  3.87E-03,  avg # of iterations =  3.0

     total cpu time spent up to now is        2.2 secs

     total energy              =    -413.41323685 Ry
     estimated scf accuracy    <       2.33694787 Ry

     iteration #  3     ecut=    48.00 Ry     beta= 0.70
     Davidson diagonalization with overlap
     ethr =  2.43E-03,  avg # of iterations =  2.0

     total cpu time spent up to now is        2.6 secs

     total energy              =    -413.70885352 Ry
     estimated scf accuracy    <       0.09861402 Ry

     iteration #  4     ecut=    48.00 Ry     beta= 0.70
     Davidson diagonalization with overlap
     ethr =  1.03E-04,  avg # of iterations =  4.0

     total cpu time spent up to now is        3.2 secs

     total energy              =    -413.78648889 Ry
     estimated scf accuracy    <       0.11832351 Ry

     iteration #  5     ecut=    48.00 Ry     beta= 0.70
     Davidson diagonalization with overlap
     ethr =  1.03E-04,  avg # of iterations =  2.0

     total cpu time spent up to now is        3.6 secs

     total energy              =    -413.79022947 Ry
     estimated scf accuracy    <       0.02000773 Ry

     iteration #  6     ecut=    48.00 Ry     beta= 0.70
     Davidson diagonalization with overlap
     ethr =  2.08E-05,  avg # of iterations =  2.0

     negative rho (up, down):  8.204E-08 0.000E+00

     total cpu time spent up to now is        4.0 secs

     total energy              =    -413.78934448 Ry
     estimated scf accuracy    <       0.00724215 Ry

     iteration #  7     ecut=    48.00 Ry     beta= 0.70
     Davidson diagonalization with overlap
     ethr =  7.54E-06,  avg # of iterations =  3.0

     negative rho (up, down):  1.240E-07 0.000E+00

     total cpu time spent up to now is        4.5 secs

     total energy              =    -413.79099909 Ry
     estimated scf accuracy    <       0.00015275 Ry

     iteration #  8     ecut=    48.00 Ry     beta= 0.70
     Davidson diagonalization with overlap
     ethr =  1.59E-07,  avg # of iterations =  6.0

     negative rho (up, down):  1.077E-07 0.000E+00

     total cpu time spent up to now is        5.3 secs

     total energy              =    -413.79106424 Ry
     estimated scf accuracy    <       0.00104304 Ry

     iteration #  9     ecut=    48.00 Ry     beta= 0.70
     Davidson diagonalization with overlap
     ethr =  1.59E-07,  avg # of iterations =  4.0

     negative rho (up, down):  7.007E-08 0.000E+00

     total cpu time spent up to now is        5.9 secs

     total energy              =    -413.79112819 Ry
     estimated scf accuracy    <       0.00008222 Ry

     iteration # 10     ecut=    48.00 Ry     beta= 0.70
     Davidson diagonalization with overlap
     ethr =  8.56E-08,  avg # of iterations =  2.1

     negative rho (up, down):  7.196E-08 0.000E+00

     total cpu time spent up to now is        6.4 secs

     total energy              =    -413.79115148 Ry
     estimated scf accuracy    <       0.00000051 Ry

     iteration # 11     ecut=    48.00 Ry     beta= 0.70
     Davidson diagonalization with overlap
     ethr =  5.32E-10,  avg # of iterations =  5.0

     negative rho (up, down):  7.132E-08 0.000E+00

     total cpu time spent up to now is        7.0 secs

     total energy              =    -413.79115205 Ry
     estimated scf accuracy    <       0.00000022 Ry

     iteration # 12     ecut=    48.00 Ry     beta= 0.70
     Davidson diagonalization with overlap
     ethr =  2.25E-10,  avg # of iterations =  1.0

     negative rho (up, down):  7.281E-08 0.000E+00

     total cpu time spent up to now is        7.3 secs

     total energy              =    -413.79115193 Ry
     estimated scf accuracy    <       0.00000026 Ry

     iteration # 13     ecut=    48.00 Ry     beta= 0.70
     Davidson diagonalization with overlap
     ethr =  2.25E-10,  avg # of iterations =  2.0

     negative rho (up, down):  7.337E-08 0.000E+00

     total cpu time spent up to now is        7.8 secs

     End of self-consistent calculation

          k = 0.0000 0.0000 0.0000 ( 11487 PWs)   bands (ev):

   -20.8744 -20.4126 -20.4126 -20.1880 -20.1880 -20.1609 -20.1609 -20.1446
   -20.1421 -19.8380 -19.8380 -19.5227  -8.2089  -8.0086  -7.9506  -7.9506
    -7.8657  -7.8657  -7.4466  -7.2920  -7.2920  -7.0747  -7.0747  -6.9409
    -6.8762  -5.9768  -5.9768  -5.3866  -5.3866  -5.3085  -5.3085  -5.0083
    -4.8203  -4.1753  -4.1753  -3.5111  -2.8089  -2.8089  -2.7074  -2.6293
    -2.5802  -2.5802  -2.4393  -2.4393  -2.4185  -2.3992  -2.3505  -2.3505

          k =-0.1498-0.0865 0.3111 ( 11513 PWs)   bands (ev):

   -20.7999 -20.4537 -20.4004 -20.3334 -20.3095 -20.2348 -20.0898 -20.0466
   -19.9916 -19.8446 -19.8024 -19.5831  -8.1537  -8.0745  -7.9966  -7.9490
    -7.8480  -7.7857  -7.4441  -7.2621  -7.2476  -7.1099  -6.9809  -6.9447
    -6.7401  -6.1242  -5.9929  -5.7225  -5.3995  -5.2612  -5.1210  -4.8953
    -4.8396  -4.1658  -4.1044  -3.6440  -2.9269  -2.8535  -2.7328  -2.6747
    -2.6175  -2.5813  -2.5394  -2.4756  -2.4107  -2.3717  -2.3362  -2.2883

          k = 0.2996 0.1730-0.6221 ( 11542 PWs)   bands (ev):

   -20.6071 -20.6052 -20.4353 -20.4192 -20.3094 -20.3047 -20.0336 -20.0234
   -19.8519 -19.8483 -19.7396 -19.7196  -8.1294  -8.0710  -7.9863  -7.9646
    -7.8526  -7.7905  -7.3901  -7.2650  -7.2235  -7.1199  -6.8971  -6.8963
    -6.4953  -6.3545  -6.0469  -5.8875  -5.3993  -5.3171  -5.1164  -4.9584
    -4.4238  -4.3028  -4.0427  -3.8138  -3.0338  -2.8746  -2.7592  -2.7298
    -2.6568  -2.6351  -2.5453  -2.4849  -2.4661  -2.3335  -2.3220  -2.2423

          k =-0.1498 0.0865 0.6221 ( 11536 PWs)   bands (ev):

   -20.6487 -20.5114 -20.5013 -20.3814 -20.3592 -20.2931 -20.0394 -19.9574
   -19.9222 -19.8041 -19.7855 -19.6937  -8.1373  -8.0484  -8.0295  -7.9219
    -7.8703  -7.7763  -7.3949  -7.3029  -7.2502  -7.0150  -6.9468  -6.8921
    -6.5006  -6.2869  -6.1885  -5.7174  -5.5434  -5.3597  -5.0400  -4.8330
    -4.6291  -4.1315  -4.1065  -3.8281  -3.0107  -2.9184  -2.7474  -2.6999
    -2.6657  -2.6161  -2.5721  -2.4865  -2.4551  -2.3431  -2.3260  -2.2361

          k = 0.2996 0.3460-0.3111 ( 11549 PWs)   bands (ev):

   -20.7022 -20.5448 -20.4360 -20.4129 -20.3291 -20.2599 -20.0430 -19.9409
   -19.9309 -19.8417 -19.7800 -19.6681  -8.1449  -8.1189  -7.9656  -7.9427
    -7.8822  -7.7857  -7.4278  -7.3655  -7.2387  -6.9826  -6.9510  -6.8799
    -6.6281  -6.3225  -6.0822  -5.7394  -5.6982  -5.1927  -5.0072  -4.7447
    -4.5167  -4.2884  -4.0871  -3.8017  -2.9206  -2.8502  -2.7639  -2.6920
    -2.6383  -2.5856  -2.5245  -2.5151  -2.4298  -2.3892  -2.3284  -2.2236

          k = 0.1498 0.2595 0.0000 ( 11509 PWs)   bands (ev):

   -20.8206 -20.4881 -20.4319 -20.2999 -20.2718 -20.1898 -20.1109 -20.0381
   -19.9978 -19.8493 -19.8132 -19.5708  -8.1929  -8.0874  -7.9878  -7.9421
    -7.8229  -7.8167  -7.5005  -7.3575  -7.1689  -7.0782  -7.0102  -6.8977
    -6.8736  -6.1071  -5.9741  -5.7147  -5.6021  -5.1376  -5.0037  -4.8785
    -4.6935  -4.2450  -4.1532  -3.6028  -2.8104  -2.7899  -2.7455  -2.6581
    -2.6185  -2.5915  -2.4737  -2.4582  -2.4236  -2.4148  -2.3098  -2.2953

          k = 0.2996-0.1730-1.2442 ( 11530 PWs)   bands (ev):

   -20.6913 -20.6534 -20.4471 -20.3500 -20.2716 -20.2131 -20.0553 -20.0197
   -19.9056 -19.8841 -19.7034 -19.6869  -8.1724  -8.1334  -7.9986  -7.9627
    -7.7973  -7.7919  -7.4978  -7.4268  -7.1520  -7.1028  -6.9206  -6.8750
    -6.5592  -6.5168  -6.0460  -5.8251  -5.5094  -5.2589  -4.8783  -4.6238
    -4.5145  -4.4496  -4.0030  -3.8149  -2.8270  -2.7765  -2.7589  -2.6921
    -2.6211  -2.5612  -2.5414  -2.4670  -2.4573  -2.4105  -2.2744  -2.2605

          k = 0.0000 0.0000 0.9332 ( 11547 PWs)   bands (ev):

   -20.5940 -20.5940 -20.5139 -20.4686 -20.2890 -20.2890 -19.9672 -19.9672
   -19.8448 -19.8053 -19.7783 -19.7783  -8.1204  -8.1204  -7.9818  -7.8808
    -7.8808  -7.8716  -7.4364  -7.3335  -7.3335  -6.8887  -6.8887  -6.8504
    -6.4234  -6.4226  -6.4226  -5.7643  -5.4540  -5.4540  -4.7934  -4.6088
    -4.6088  -4.1527  -4.1527  -3.9841  -2.8629  -2.8629  -2.7387  -2.6777
    -2.6098  -2.6098  -2.5522  -2.4886  -2.4886  -2.3748  -2.3748  -2.1992

          k = 0.4494 0.2595 0.0000 ( 11510 PWs)   bands (ev):

   -20.7210 -20.5535 -20.5472 -20.3517 -20.2163 -20.2054 -20.0703 -20.0631
   -19.9063 -19.8119 -19.7776 -19.6573  -8.1663  -8.1229  -8.0543  -7.8989
    -7.8391  -7.7749  -7.5149  -7.3764  -7.2463  -6.9976  -6.9448  -6.8971
    -6.6649  -6.2857  -6.2081  -5.7775  -5.5225  -5.2539  -4.8032  -4.7639
    -4.5581  -4.2559  -4.1160  -3.7879  -2.8087  -2.8010  -2.7468  -2.6969
    -2.6363  -2.5769  -2.5073  -2.4842  -2.4320  -2.3872  -2.3270  -2.2415

          k = 0.2996 0.1730 0.3111 ( 11527 PWs)   bands (ev):

   -20.7496 -20.4995 -20.4097 -20.3972 -20.3086 -20.2504 -20.0574 -20.0280
   -19.9559 -19.8331 -19.7788 -19.6213  -8.1647  -8.1061  -8.0220  -7.8926
    -7.8870  -7.7349  -7.4638  -7.3331  -7.1516  -7.0773  -7.0305  -6.9308
    -6.6552  -6.1285  -5.9541  -5.8694  -5.6403  -5.2881  -4.9918  -4.7910
    -4.6340  -4.2320  -4.0960  -3.6869  -2.9390  -2.8628  -2.7860  -2.7319
    -2.6332  -2.5920  -2.5153  -2.4827  -2.3982  -2.3570  -2.2979  -2.2811

          k = 0.4494-0.2595-0.9332 ( 11524 PWs)   bands (ev):

   -20.6190 -20.6165 -20.4783 -20.4228 -20.2963 -20.2201 -20.0967 -20.0126
   -19.8687 -19.8146 -19.7632 -19.6799  -8.1936  -8.0933  -8.0524  -7.8995
    -7.8523  -7.7154  -7.5096  -7.2916  -7.1705  -7.1141  -6.9669  -6.9366
    -6.3918  -6.3536  -6.0303  -5.8814  -5.6933  -5.3770  -4.9492  -4.6677
    -4.3635  -4.3246  -4.1382  -3.7569  -2.9379  -2.8827  -2.8450  -2.7322
    -2.6967  -2.6077  -2.4647  -2.4424  -2.4110  -2.3702  -2.2999  -2.2452

          k = 0.2996-0.3460-0.6221 ( 11534 PWs)   bands (ev):

   -20.5739 -20.5677 -20.4667 -20.4559 -20.3283 -20.3264 -20.0164 -20.0090
   -19.8567 -19.8488 -19.7338 -19.7130  -8.2074  -8.0068  -7.9765  -7.9574
    -7.9213  -7.7191  -7.4221  -7.3013  -7.1479  -7.1015  -6.9452  -6.9399
    -6.3562  -6.2285  -6.0655  -5.9386  -5.6151  -5.5792  -4.8673  -4.7949
    -4.3707  -4.3278  -4.1463  -3.7405  -3.0644  -2.8975  -2.8426  -2.7719
    -2.7164  -2.5779  -2.5097  -2.4703  -2.4473  -2.3238  -2.3064  -2.2267

          k = 0.0000 0.0000-1.8663 ( 11522 PWs)   bands (ev):

   -20.5419 -20.5232 -20.4296 -20.4296 -20.4277 -20.4277 -19.9414 -19.9414
   -19.9070 -19.9070 -19.7183 -19.7009  -8.2555  -7.9696  -7.9696  -7.9484
    -7.9484  -7.6881  -7.4724  -7.2986  -7.0518  -7.0518  -7.0204  -7.0204
    -6.1801  -6.0007  -5.9430  -5.9430  -5.9379  -5.9379  -4.6466  -4.6466
    -4.4093  -4.4093  -4.1640  -3.6903  -3.0959  -2.9003  -2.9003  -2.8099
    -2.8099  -2.5224  -2.5047  -2.4063  -2.4063  -2.3370  -2.3370  -2.2013

          k = 0.2996-0.3460 0.3111 ( 11549 PWs)   bands (ev):

   -20.7022 -20.5438 -20.4431 -20.4080 -20.3260 -20.2606 -20.0442 -19.9552
   -19.9103 -19.8531 -19.7728 -19.6700  -8.1602  -8.0857  -8.0026  -7.9377
    -7.8548  -7.7927  -7.4755  -7.3340  -7.2142  -7.0210  -6.9148  -6.9008
    -6.6203  -6.2547  -6.1771  -5.7898  -5.5528  -5.2555  -5.0881  -4.6540
    -4.4944  -4.2763  -4.1575  -3.7795  -2.9286  -2.8213  -2.7802  -2.6891
    -2.6440  -2.5909  -2.5256  -2.5149  -2.4475  -2.3581  -2.3292  -2.2320

     highest occupied level (ev):    -2.1992

!    total energy              =    -413.79115196 Ry
     estimated scf accuracy    <       0.00000001 Ry

     The total energy is the sum of the following terms:
     one-electron contribution =    -290.89256613 Ry
     hartree contribution      =     179.89845459 Ry
     xc contribution           =    -101.25244824 Ry
     ewald contribution        =    -201.54459218 Ry

     convergence has been achieved in  13 iterations

     Forces acting on atoms (cartesian axes, Ry/au):

     atom    1 type  2   force =    -0.03452155    0.06343184    0.03042492
     atom    2 type  2   force =     0.03452155   -0.06343184   -0.03042492
     atom    3 type  2   force =    -0.03767281   -0.06161245    0.03042492
     atom    4 type  2   force =     0.03767281    0.06161245   -0.03042492
     atom    5 type  2   force =     0.07219436   -0.00181938    0.03042492
     atom    6 type  2   force =    -0.07219436    0.00181938   -0.03042492
     atom    7 type  2   force =    -0.03067689    0.02363078   -0.02119673
     atom    8 type  2   force =     0.03067689   -0.02363078    0.02119673
     atom    9 type  2   force =    -0.00512641   -0.03838236   -0.02119673
     atom   10 type  2   force =     0.00512641    0.03838236    0.02119673
     atom   11 type  2   force =     0.03580330    0.01475158   -0.02119673
     atom   12 type  2   force =    -0.03580330   -0.01475158    0.02119673
     atom   13 type  1   force =     0.00314708   -0.02582399   -0.05129125
     atom   14 type  1   force =    -0.00314708    0.02582399    0.05129125
     atom   15 type  1   force =     0.02079069    0.01563745   -0.05129125
     atom   16 type  1   force =    -0.02079069   -0.01563745    0.05129125
     atom   17 type  1   force =    -0.02393777    0.01018654   -0.05129125
     atom   18 type  1   force =     0.02393777   -0.01018654    0.05129125
     atom   19 type  1   force =     0.02975134   -0.04467062    0.01027052
     atom   20 type  1   force =    -0.02975134    0.04467062   -0.01027052
     atom   21 type  1   force =     0.02381022    0.04810073    0.01027052
     atom   22 type  1   force =    -0.02381022   -0.04810073   -0.01027052
     atom   23 type  1   force =    -0.05356156   -0.00343011    0.01027052
     atom   24 type  1   force =     0.05356156    0.00343011   -0.01027052
     atom   25 type  1   force =    -0.01364317   -0.00234538    0.01258518
     atom   26 type  1   force =     0.01364317    0.00234538   -0.01258518
     atom   27 type  1   force =     0.00885275   -0.01064264    0.01258518
     atom   28 type  1   force =    -0.00885275    0.01064264   -0.01258518
     atom   29 type  1   force =     0.00479042    0.01298802    0.01258518
     atom   30 type  1   force =    -0.00479042   -0.01298802   -0.01258518
     atom   31 type  1   force =    -0.02865347   -0.00937794    0.01620154
     atom   32 type  1   force =     0.02865347    0.00937794   -0.01620154
     atom   33 type  1   force =     0.02244827   -0.02012566    0.01620154
     atom   34 type  1   force =    -0.02244827    0.02012566   -0.01620154
     atom   35 type  1   force =     0.00620520    0.02950360    0.01620154
     atom   36 type  1   force =    -0.00620520   -0.02950360   -0.01620154

     Total force =     0.308917     Total SCF correction =     0.000091


     Computing stress (Cartesian axis) and pressure

          total   stress  (Ry/bohr**3)                   (kbar)     P=      -28.00
  -0.00026770   0.00000000  -0.00000000          -39.38        0.00       -0.00
  -0.00000000  -0.00026770  -0.00000000           -0.00      -39.38       -0.00
  -0.00000000  -0.00000000  -0.00003570           -0.00       -0.00       -5.25


     Writing all to output data dir ./iceII_2/iceII_2.save/ :
     XML data file, charge density, pseudopotentials, collected wavefunctions

     init_run     :      0.84s CPU      0.88s WALL (       1 calls)
     electrons    :      6.55s CPU      6.73s WALL (       1 calls)
     forces       :      0.04s CPU      0.06s WALL (       1 calls)
     stress       :      0.33s CPU      0.35s WALL (       1 calls)

     Called by init_run:
     wfcinit      :      0.20s CPU      0.20s WALL (       1 calls)
     potinit      :      0.03s CPU      0.04s WALL (       1 calls)
     hinit0       :      0.55s CPU      0.57s WALL (       1 calls)

     Called by electrons:
     c_bands      :      5.63s CPU      5.73s WALL (      13 calls)
     sum_band     :      0.70s CPU      0.73s WALL (      13 calls)
     v_of_rho     :      0.17s CPU      0.18s WALL (      14 calls)
     newd         :      0.02s CPU      0.03s WALL (      14 calls)
     mix_rho      :      0.02s CPU      0.02s WALL (      13 calls)

     Called by c_bands:
     init_us_2    :      0.04s CPU      0.05s WALL (     116 calls)
     cegterg      :      5.54s CPU      5.62s WALL (      52 calls)

     Called by *egterg:
     cdiaghg      :      0.80s CPU      0.81s WALL (     205 calls)
     h_psi        :      4.24s CPU      4.30s WALL (     209 calls)
     s_psi        :      0.13s CPU      0.13s WALL (     209 calls)
     g_psi        :      0.01s CPU      0.01s WALL (     153 calls)

     Called by h_psi:
     h_psi:calbec :      0.21s CPU      0.21s WALL (     209 calls)
     vloc_psi     :      3.87s CPU      3.93s WALL (     209 calls)
     add_vuspsi   :      0.14s CPU      0.14s WALL (     209 calls)

     General routines
     calbec       :      0.28s CPU      0.28s WALL (     281 calls)
     fft          :      0.62s CPU      0.63s WALL (     162 calls)
     ffts         :      0.01s CPU      0.01s WALL (      13 calls)
     fftw         :      4.07s CPU      4.13s WALL (   18652 calls)

     Parallel routines

     PWSCF        :      8.02s CPU      8.45s WALL


   This run was terminated on:  21:36:50  18Mar2026            

=------------------------------------------------------------------------------=
   JOB DONE.
=------------------------------------------------------------------------------=
