
     Program PWSCF v.7.3.1 starts on 18Mar2026 at 21:38: 5 

     This program is part of the open-source Quantum ESPRESSO suite
     for quantum simulation of materials; please cite
         "P. Giannozzi et al., J. Phys.:Condens. Matter 21 395502 (2009);
         "P. Giannozzi et al., J. Phys.:Condens. Matter 29 465901 (2017);
         "P. Giannozzi et al., J. Chem. Phys. 152 154105 (2020);
          URL http://www.quantum-espresso.org", 
     in publications or presentations arising from this work. More details at
     http://www.quantum-espresso.org/quote

     Parallel version (MPI), running on   128 processors

     MPI processes distributed on     1 nodes
     243212 MiB available memory on the printing compute node when the environment starts

     Waiting for input...
     Reading input from standard input

     Current dimensions of program PWSCF are:
     Max number of different atomic species (ntypx) = 10
     Max number of k-points (npk) =  40000
     Max angular momentum in pseudopotentials (lmaxx) =  4

     K-points division:     npool     =       4
     R & G space division:  proc/nbgrp/npool/nimage =      32
     Subspace diagonalization in iterative solution of the eigenvalue problem:
     a serial algorithm will be used


     Parallelization info
     --------------------
     sticks:   dense  smooth     PW     G-vecs:    dense   smooth      PW
     Min         118     118     35                 4024     4024     671
     Max         119     119     36                 4027     4027     676
     Sum        3795    3795   1147               128821   128821   21515

     Using Slab Decomposition



     bravais-lattice index     =            5
     lattice parameter (alat)  =      14.7021  a.u.
     unit-cell volume          =    2053.1832 (a.u.)^3
     number of atoms/cell      =           36
     number of atomic types    =            2
     number of electrons       =        96.00
     number of Kohn-Sham states=           48
     kinetic-energy cutoff     =      60.0000  Ry
     charge density cutoff     =     240.0000  Ry
     scf convergence threshold =      1.0E-07
     mixing beta               =       0.7000
     number of iterations used =            8  plain     mixing
     Exchange-correlation=  SLA  PW   PBE  PBE
                           (   1   4   3   4   0   0   0)

     celldm(1)=  14.702068  celldm(2)=   0.000000  celldm(3)=   0.000000
     celldm(4)=  -0.392337  celldm(5)=   0.000000  celldm(6)=   0.000000

     crystal axes: (cart. coord. in units of alat)
               a(1) = (   0.834367  -0.481722   0.267909 )  
               a(2) = (   0.000000   0.963444   0.267909 )  
               a(3) = (  -0.834367  -0.481722   0.267909 )  

     reciprocal axes: (cart. coord. in units 2 pi/alat)
               b(1) = (  0.599257 -0.345981  1.244203 )  
               b(2) = ( -0.000000  0.691962  1.244203 )  
               b(3) = ( -0.599257 -0.345981  1.244203 )  


     PseudoPot. # 1 for H  read from file:
     ./H.pbe-van_ak.UPF
     MD5 check sum: 077eb6d537518a38cb46c6de387227b7
     Pseudo is Ultrasoft, Zval =  1.0
     Generated by new atomic code, or converted to UPF format
     Using radial grid of  615 points,  1 beta functions with: 
                l(1) =   0
     Q(r) pseudized with  8 coefficients,  rinner =    0.800

     PseudoPot. # 2 for O  read from file:
     ./O.pbe-van_ak.UPF
     MD5 check sum: 78c19812648e8988a0fe644b0f25305e
     Pseudo is Ultrasoft, Zval =  6.0
     Generated by new atomic code, or converted to UPF format
     Using radial grid of  737 points,  4 beta functions with: 
                l(1) =   0
                l(2) =   0
                l(3) =   1
                l(4) =   1
     Q(r) pseudized with  8 coefficients,  rinner =    0.800   0.800   0.800


     atomic species   valence    mass     pseudopotential
     H                 1.00     1.00800     H ( 1.00)
     O                 6.00    16.00000     O ( 1.00)

      6 Sym. Ops., with inversion, found



   Cartesian axes

     site n.     atom                  positions (alat units)
         1        O      tau(   1) = (  -0.4847673  -0.5197781   0.3083633  )
         2        O      tau(   2) = (   0.4847673   0.5197782   0.4953638  )
         3        O      tau(   3) = (   0.6925247  -0.1599317   0.3083633  )
         4        O      tau(   4) = (  -0.6925248   0.1599317   0.4953638  )
         5        O      tau(   5) = (  -0.2077574   0.6797099   0.3083633  )
         6        O      tau(   6) = (   0.2077574  -0.6797099   0.4953638  )
         7        O      tau(   7) = (   0.1218176   0.3323883   0.4179381  )
         8        O      tau(   8) = (  -0.1218176  -0.3323883   0.3857890  )
         9        O      tau(   9) = (  -0.3487655  -0.0606970   0.4179381  )
        10        O      tau(  10) = (   0.3487655   0.0606970   0.3857890  )
        11        O      tau(  11) = (   0.2269479  -0.2716913   0.4179381  )
        12        O      tau(  12) = (  -0.2269479   0.2716912   0.3857890  )
        13        H      tau(  13) = (  -0.5381668  -0.4032014   0.2796970  )
        14        H      tau(  14) = (   0.5381668   0.4032014   0.5240301  )
        15        H      tau(  15) = (   0.6182661  -0.2644654   0.2796970  )
        16        H      tau(  16) = (  -0.6182661   0.2644654   0.5240301  )
        17        H      tau(  17) = (  -0.0800993   0.6676668   0.2796970  )
        18        H      tau(  18) = (   0.0800993  -0.6676668   0.5240301  )
        19        H      tau(  19) = (  -0.4872704  -0.4817221   0.4326731  )
        20        H      tau(  20) = (   0.4872704   0.4817221   0.3710540  )
        21        H      tau(  21) = (   0.6608188  -0.1811275   0.4326731  )
        22        H      tau(  22) = (  -0.6608188   0.1811275   0.3710540  )
        23        H      tau(  23) = (  -0.1735484   0.6628496   0.4326731  )
        24        H      tau(  24) = (   0.1735484  -0.6628496   0.3710540  )
        25        H      tau(  25) = (   0.2703349  -0.1502973   0.4058822  )
        26        H      tau(  26) = (  -0.2703350   0.1502973   0.3978449  )
        27        H      tau(  27) = (  -0.0050062   0.3092656   0.4058822  )
        28        H      tau(  28) = (   0.0050062  -0.3092656   0.3978449  )
        29        H      tau(  29) = (  -0.2653287  -0.1589683   0.4058822  )
        30        H      tau(  30) = (   0.2653287   0.1589683   0.3978449  )
        31        H      tau(  31) = (   0.3178939  -0.3347969   0.3493534  )
        32        H      tau(  32) = (  -0.3178939   0.3347969   0.4543737  )
        33        H      tau(  33) = (   0.1309957   0.4427026   0.3493534  )
        34        H      tau(  34) = (  -0.1309956  -0.4427026   0.4543737  )
        35        H      tau(  35) = (  -0.4488895  -0.1079057   0.3493534  )
        36        H      tau(  36) = (   0.4488895   0.1079057   0.4543737  )

     number of k points=    14
                       cart. coord. in units 2pi/alat
        k(    1) = (   0.0000000   0.0000000   0.0000000), wk =   0.0312500
        k(    2) = (  -0.1498141  -0.0864952   0.3110508), wk =   0.1875000
        k(    3) = (   0.2996283   0.1729905  -0.6221017), wk =   0.0937500
        k(    4) = (  -0.1498141   0.0864952   0.6221017), wk =   0.1875000
        k(    5) = (   0.2996283   0.3459809  -0.3110508), wk =   0.1875000
        k(    6) = (   0.1498141   0.2594857   0.0000000), wk =   0.1875000
        k(    7) = (   0.2996283  -0.1729905  -1.2442034), wk =   0.0937500
        k(    8) = (   0.0000000   0.0000000   0.9331525), wk =   0.0625000
        k(    9) = (   0.4494424   0.2594857   0.0000000), wk =   0.1875000
        k(   10) = (   0.2996283   0.1729905   0.3110508), wk =   0.1875000
        k(   11) = (   0.4494424  -0.2594857  -0.9331525), wk =   0.1875000
        k(   12) = (   0.2996283  -0.3459809  -0.6221017), wk =   0.1875000
        k(   13) = (   0.0000000   0.0000000  -1.8663050), wk =   0.0312500
        k(   14) = (   0.2996283  -0.3459809   0.3110508), wk =   0.1875000

     Dense  grid:   128821 G-vectors     FFT dimensions: (  75,  75,  75)

     Estimated max dynamical RAM per process >       9.15 MB

     Estimated total dynamical RAM >       1.05 GB

     Initial potential from superposition of free atoms

     starting charge      95.9998, renormalised to      96.0000
     Starting wfcs are   72 randomized atomic wfcs

     total cpu time spent up to now is        0.8 secs

     per-process dynamical memory:    14.8 Mb

     Self-consistent Calculation

     iteration #  1     ecut=    60.00 Ry     beta= 0.70
     Davidson diagonalization with overlap
     ethr =  1.00E-02,  avg # of iterations =  2.0

     total cpu time spent up to now is        1.5 secs

     total energy              =    -412.25900319 Ry
     estimated scf accuracy    <       3.72225405 Ry

     iteration #  2     ecut=    60.00 Ry     beta= 0.70
     Davidson diagonalization with overlap
     ethr =  3.88E-03,  avg # of iterations =  3.0

     total cpu time spent up to now is        2.3 secs

     total energy              =    -413.43778186 Ry
     estimated scf accuracy    <       2.33236059 Ry

     iteration #  3     ecut=    60.00 Ry     beta= 0.70
     Davidson diagonalization with overlap
     ethr =  2.43E-03,  avg # of iterations =  2.0

     negative rho (up, down):  7.608E-08 0.000E+00

     total cpu time spent up to now is        2.9 secs

     total energy              =    -413.73316975 Ry
     estimated scf accuracy    <       0.09907667 Ry

     iteration #  4     ecut=    60.00 Ry     beta= 0.70
     Davidson diagonalization with overlap
     ethr =  1.03E-04,  avg # of iterations =  4.0

     negative rho (up, down):  3.959E-07 0.000E+00

     total cpu time spent up to now is        3.8 secs

     total energy              =    -413.81064002 Ry
     estimated scf accuracy    <       0.11740195 Ry

     iteration #  5     ecut=    60.00 Ry     beta= 0.70
     Davidson diagonalization with overlap
     ethr =  1.03E-04,  avg # of iterations =  2.0

     negative rho (up, down):  4.697E-07 0.000E+00

     total cpu time spent up to now is        4.3 secs

     total energy              =    -413.81429925 Ry
     estimated scf accuracy    <       0.01978364 Ry

     iteration #  6     ecut=    60.00 Ry     beta= 0.70
     Davidson diagonalization with overlap
     ethr =  2.06E-05,  avg # of iterations =  2.0

     negative rho (up, down):  5.318E-07 0.000E+00

     total cpu time spent up to now is        4.8 secs

     total energy              =    -413.81355864 Ry
     estimated scf accuracy    <       0.00691882 Ry

     iteration #  7     ecut=    60.00 Ry     beta= 0.70
     Davidson diagonalization with overlap
     ethr =  7.21E-06,  avg # of iterations =  3.0

     negative rho (up, down):  5.313E-07 0.000E+00

     total cpu time spent up to now is        5.5 secs

     total energy              =    -413.81517163 Ry
     estimated scf accuracy    <       0.00014094 Ry

     iteration #  8     ecut=    60.00 Ry     beta= 0.70
     Davidson diagonalization with overlap
     ethr =  1.47E-07,  avg # of iterations =  6.0

     negative rho (up, down):  5.348E-07 0.000E+00

     total cpu time spent up to now is        6.6 secs

     total energy              =    -413.81522176 Ry
     estimated scf accuracy    <       0.00102190 Ry

     iteration #  9     ecut=    60.00 Ry     beta= 0.70
     Davidson diagonalization with overlap
     ethr =  1.47E-07,  avg # of iterations =  4.0

     negative rho (up, down):  5.119E-07 0.000E+00

     total cpu time spent up to now is        7.4 secs

     total energy              =    -413.81527497 Ry
     estimated scf accuracy    <       0.00009286 Ry

     iteration # 10     ecut=    60.00 Ry     beta= 0.70
     Davidson diagonalization with overlap
     ethr =  9.67E-08,  avg # of iterations =  2.0

     negative rho (up, down):  5.112E-07 0.000E+00

     total cpu time spent up to now is        8.1 secs

     total energy              =    -413.81529823 Ry
     estimated scf accuracy    <       0.00000028 Ry

     iteration # 11     ecut=    60.00 Ry     beta= 0.70
     Davidson diagonalization with overlap
     ethr =  2.95E-10,  avg # of iterations =  5.6

     negative rho (up, down):  5.103E-07 0.000E+00

     total cpu time spent up to now is        9.0 secs

     total energy              =    -413.81529898 Ry
     estimated scf accuracy    <       0.00000017 Ry

     iteration # 12     ecut=    60.00 Ry     beta= 0.70
     Davidson diagonalization with overlap
     ethr =  1.76E-10,  avg # of iterations =  1.0

     negative rho (up, down):  5.109E-07 0.000E+00

     total cpu time spent up to now is        9.5 secs

     total energy              =    -413.81529890 Ry
     estimated scf accuracy    <       0.00000021 Ry

     iteration # 13     ecut=    60.00 Ry     beta= 0.70
     Davidson diagonalization with overlap
     ethr =  1.76E-10,  avg # of iterations =  2.0

     negative rho (up, down):  5.114E-07 0.000E+00

     total cpu time spent up to now is       10.1 secs

     End of self-consistent calculation

          k = 0.0000 0.0000 0.0000 ( 16089 PWs)   bands (ev):

   -20.8712 -20.4092 -20.4092 -20.1846 -20.1846 -20.1574 -20.1574 -20.1411
   -20.1386 -19.8344 -19.8344 -19.5191  -8.2115  -8.0111  -7.9529  -7.9529
    -7.8682  -7.8682  -7.4482  -7.2946  -7.2946  -7.0772  -7.0772  -6.9435
    -6.8789  -5.9790  -5.9790  -5.3887  -5.3887  -5.3108  -5.3108  -5.0112
    -4.8230  -4.1784  -4.1784  -3.5144  -2.8101  -2.8101  -2.7090  -2.6300
    -2.5814  -2.5814  -2.4404  -2.4404  -2.4198  -2.4001  -2.3516  -2.3516

          k =-0.1498-0.0865 0.3111 ( 16120 PWs)   bands (ev):

   -20.7967 -20.4503 -20.3970 -20.3300 -20.3061 -20.2314 -20.0864 -20.0432
   -19.9881 -19.8411 -19.7989 -19.5795  -8.1561  -8.0768  -7.9989  -7.9514
    -7.8506  -7.7882  -7.4460  -7.2646  -7.2499  -7.1123  -6.9835  -6.9473
    -6.7425  -6.1262  -5.9950  -5.7246  -5.4017  -5.2635  -5.1234  -4.8981
    -4.8422  -4.1688  -4.1075  -3.6472  -2.9282  -2.8547  -2.7341  -2.6755
    -2.6187  -2.5827  -2.5404  -2.4767  -2.4117  -2.3727  -2.3371  -2.2893

          k = 0.2996 0.1730-0.6221 ( 16110 PWs)   bands (ev):

   -20.6038 -20.6018 -20.4319 -20.4158 -20.3060 -20.3012 -20.0302 -20.0199
   -19.8484 -19.8448 -19.7360 -19.7160  -8.1316  -8.0734  -7.9886  -7.9669
    -7.8551  -7.7929  -7.3921  -7.2673  -7.2256  -7.1223  -6.8995  -6.8988
    -6.4974  -6.3566  -6.0490  -5.8896  -5.4016  -5.3193  -5.1188  -4.9608
    -4.4265  -4.3055  -4.0457  -3.8168  -3.0350  -2.8756  -2.7600  -2.7311
    -2.6579  -2.6366  -2.5461  -2.4859  -2.4672  -2.3343  -2.3229  -2.2432

          k =-0.1498 0.0865 0.6221 ( 16120 PWs)   bands (ev):

   -20.6455 -20.5080 -20.4980 -20.3780 -20.3558 -20.2897 -20.0359 -19.9539
   -19.9187 -19.8005 -19.7819 -19.6901  -8.1395  -8.0506  -8.0319  -7.9243
    -7.8727  -7.7787  -7.3969  -7.3052  -7.2523  -7.0174  -6.9493  -6.8946
    -6.5028  -6.2889  -6.1906  -5.7196  -5.5456  -5.3619  -5.0425  -4.8357
    -4.6316  -4.1343  -4.1094  -3.8311  -3.0119  -2.9195  -2.7484  -2.7012
    -2.6671  -2.6171  -2.5730  -2.4876  -2.4561  -2.3440  -2.3268  -2.2371

          k = 0.2996 0.3460-0.3111 ( 16111 PWs)   bands (ev):

   -20.6990 -20.5415 -20.4326 -20.4095 -20.3256 -20.2564 -20.0395 -19.9374
   -19.9274 -19.8382 -19.7765 -19.6645  -8.1470  -8.1213  -7.9680  -7.9450
    -7.8846  -7.7882  -7.4300  -7.3679  -7.2410  -6.9849  -6.9535  -6.8824
    -6.6301  -6.3244  -6.0843  -5.7414  -5.7004  -5.1950  -5.0097  -4.7472
    -4.5193  -4.2912  -4.0899  -3.8045  -2.9217  -2.8513  -2.7649  -2.6932
    -2.6392  -2.5867  -2.5254  -2.5161  -2.4307  -2.3901  -2.3293  -2.2245

          k = 0.1498 0.2595 0.0000 ( 16108 PWs)   bands (ev):

   -20.8174 -20.4848 -20.4286 -20.2965 -20.2684 -20.1863 -20.1075 -20.0346
   -19.9943 -19.8458 -19.8096 -19.5672  -8.1953  -8.0897  -7.9902  -7.9446
    -7.8254  -7.8191  -7.5026  -7.3600  -7.1713  -7.0807  -7.0127  -6.8999
    -6.8762  -6.1092  -5.9762  -5.7168  -5.6042  -5.1401  -5.0062  -4.8810
    -4.6963  -4.2480  -4.1562  -3.6060  -2.8116  -2.7910  -2.7467  -2.6592
    -2.6195  -2.5925  -2.4748  -2.4592  -2.4246  -2.4157  -2.3108  -2.2963

          k = 0.2996-0.1730-1.2442 ( 16126 PWs)   bands (ev):

   -20.6880 -20.6502 -20.4437 -20.3466 -20.2682 -20.2097 -20.0519 -20.0162
   -19.9021 -19.8806 -19.6998 -19.6834  -8.1746  -8.1358  -8.0008  -7.9651
    -7.7996  -7.7943  -7.5002  -7.4292  -7.1546  -7.1054  -6.9232  -6.8776
    -6.5612  -6.5187  -6.0481  -5.8272  -5.5117  -5.2614  -4.8809  -4.6265
    -4.5173  -4.4522  -4.0058  -3.8178  -2.8280  -2.7774  -2.7600  -2.6935
    -2.6219  -2.5622  -2.5423  -2.4679  -2.4581  -2.4114  -2.2755  -2.2613

          k = 0.0000 0.0000 0.9332 ( 16138 PWs)   bands (ev):

   -20.5907 -20.5907 -20.5105 -20.4652 -20.2856 -20.2856 -19.9637 -19.9637
   -19.8413 -19.8018 -19.7747 -19.7747  -8.1226  -8.1226  -7.9842  -7.8832
    -7.8832  -7.8739  -7.4388  -7.3357  -7.3357  -6.8913  -6.8913  -6.8529
    -6.4254  -6.4247  -6.4247  -5.7664  -5.4563  -5.4563  -4.7960  -4.6114
    -4.6114  -4.1554  -4.1554  -3.9868  -2.8638  -2.8638  -2.7402  -2.6786
    -2.6108  -2.6108  -2.5534  -2.4894  -2.4894  -2.3755  -2.3755  -2.2003

          k = 0.4494 0.2595 0.0000 ( 16126 PWs)   bands (ev):

   -20.7177 -20.5502 -20.5439 -20.3482 -20.2128 -20.2020 -20.0668 -20.0596
   -19.9028 -19.8084 -19.7740 -19.6538  -8.1686  -8.1252  -8.0566  -7.9013
    -7.8416  -7.7773  -7.5173  -7.3788  -7.2487  -7.0002  -6.9474  -6.8998
    -6.6669  -6.2878  -6.2101  -5.7797  -5.5249  -5.2564  -4.8059  -4.7665
    -4.5609  -4.2587  -4.1188  -3.7909  -2.8097  -2.8021  -2.7479  -2.6983
    -2.6373  -2.5778  -2.5083  -2.4853  -2.4330  -2.3881  -2.3279  -2.2425

          k = 0.2996 0.1730 0.3111 ( 16103 PWs)   bands (ev):

   -20.7464 -20.4961 -20.4063 -20.3938 -20.3052 -20.2470 -20.0539 -20.0245
   -19.9524 -19.8295 -19.7753 -19.6177  -8.1669  -8.1083  -8.0243  -7.8950
    -7.8895  -7.7374  -7.4659  -7.3353  -7.1540  -7.0798  -7.0328  -6.9334
    -6.6574  -6.1306  -5.9563  -5.8715  -5.6425  -5.2906  -4.9944  -4.7936
    -4.6366  -4.2349  -4.0988  -3.6899  -2.9402  -2.8639  -2.7872  -2.7329
    -2.6344  -2.5931  -2.5165  -2.4835  -2.3991  -2.3582  -2.2989  -2.2820

          k = 0.4494-0.2595-0.9332 ( 16120 PWs)   bands (ev):

   -20.6157 -20.6132 -20.4750 -20.4194 -20.2929 -20.2167 -20.0932 -20.0091
   -19.8652 -19.8110 -19.7597 -19.6763  -8.1958  -8.0956  -8.0547  -7.9019
    -7.8547  -7.7179  -7.5118  -7.2939  -7.1728  -7.1165  -6.9693  -6.9391
    -6.3941  -6.3556  -6.0324  -5.8836  -5.6955  -5.3794  -4.9518  -4.6704
    -4.3661  -4.3274  -4.1410  -3.7599  -2.9392  -2.8838  -2.8461  -2.7332
    -2.6976  -2.6091  -2.4657  -2.4435  -2.4119  -2.3713  -2.3009  -2.2461

          k = 0.2996-0.3460-0.6221 ( 16118 PWs)   bands (ev):

   -20.5705 -20.5644 -20.4633 -20.4525 -20.3249 -20.3230 -20.0129 -20.0055
   -19.8532 -19.8453 -19.7302 -19.7094  -8.2095  -8.0092  -7.9788  -7.9597
    -7.9237  -7.7216  -7.4242  -7.3037  -7.1502  -7.1039  -6.9477  -6.9424
    -6.3584  -6.2306  -6.0677  -5.9408  -5.6173  -5.5814  -4.8698  -4.7975
    -4.3733  -4.3304  -4.1492  -3.7435  -3.0658  -2.8986  -2.8437  -2.7729
    -2.7175  -2.5790  -2.5109  -2.4712  -2.4482  -2.3248  -2.3074  -2.2276

          k = 0.0000 0.0000-1.8663 ( 16024 PWs)   bands (ev):

   -20.5385 -20.5198 -20.4263 -20.4263 -20.4244 -20.4244 -19.9379 -19.9379
   -19.9035 -19.9035 -19.7147 -19.6973  -8.2575  -7.9719  -7.9719  -7.9509
    -7.9509  -7.6904  -7.4744  -7.3013  -7.0541  -7.0541  -7.0229  -7.0229
    -6.1822  -6.0030  -5.9452  -5.9452  -5.9399  -5.9399  -4.6494  -4.6494
    -4.4119  -4.4119  -4.1668  -3.6933  -3.0973  -2.9013  -2.9013  -2.8108
    -2.8108  -2.5237  -2.5062  -2.4071  -2.4071  -2.3381  -2.3381  -2.2022

          k = 0.2996-0.3460 0.3111 ( 16111 PWs)   bands (ev):

   -20.6989 -20.5404 -20.4398 -20.4047 -20.3226 -20.2572 -20.0407 -19.9517
   -19.9068 -19.8496 -19.7693 -19.6664  -8.1624  -8.0879  -8.0048  -7.9400
    -7.8572  -7.7951  -7.4777  -7.3363  -7.2165  -7.0234  -6.9172  -6.9033
    -6.6224  -6.2567  -6.1792  -5.7918  -5.5548  -5.2578  -5.0905  -4.6567
    -4.4971  -4.2791  -4.1603  -3.7825  -2.9297  -2.8223  -2.7812  -2.6901
    -2.6450  -2.5920  -2.5266  -2.5159  -2.4484  -2.3588  -2.3301  -2.2329

     highest occupied level (ev):    -2.2003

!    total energy              =    -413.81529890 Ry
     estimated scf accuracy    <       0.00000002 Ry

     The total energy is the sum of the following terms:
     one-electron contribution =    -290.93066695 Ry
     hartree contribution      =     179.92098932 Ry
     xc contribution           =    -101.26102909 Ry
     ewald contribution        =    -201.54459218 Ry

     convergence has been achieved in  13 iterations

     Forces acting on atoms (cartesian axes, Ry/au):

     atom    1 type  2   force =    -0.03451137    0.06352919    0.03047874
     atom    2 type  2   force =     0.03451137   -0.06352919   -0.03047874
     atom    3 type  2   force =    -0.03776220   -0.06165232    0.03047874
     atom    4 type  2   force =     0.03776220    0.06165232   -0.03047874
     atom    5 type  2   force =     0.07227358   -0.00187687    0.03047874
     atom    6 type  2   force =    -0.07227358    0.00187687   -0.03047874
     atom    7 type  2   force =    -0.03063291    0.02377553   -0.02140530
     atom    8 type  2   force =     0.03063291   -0.02377553    0.02140530
     atom    9 type  2   force =    -0.00527376   -0.03841665   -0.02140530
     atom   10 type  2   force =     0.00527376    0.03841665    0.02140530
     atom   11 type  2   force =     0.03590667    0.01464111   -0.02140530
     atom   12 type  2   force =    -0.03590667   -0.01464111    0.02140530
     atom   13 type  1   force =     0.00317398   -0.02589629   -0.05127137
     atom   14 type  1   force =    -0.00317398    0.02589629    0.05127137
     atom   15 type  1   force =     0.02083985    0.01569690   -0.05127137
     atom   16 type  1   force =    -0.02083985   -0.01569690    0.05127137
     atom   17 type  1   force =    -0.02401384    0.01019940   -0.05127137
     atom   18 type  1   force =     0.02401384   -0.01019940    0.05127137
     atom   19 type  1   force =     0.02973644   -0.04467656    0.01021023
     atom   20 type  1   force =    -0.02973644    0.04467656   -0.01021023
     atom   21 type  1   force =     0.02382282    0.04809079    0.01021023
     atom   22 type  1   force =    -0.02382282   -0.04809079   -0.01021023
     atom   23 type  1   force =    -0.05355926   -0.00341423    0.01021023
     atom   24 type  1   force =     0.05355926    0.00341423   -0.01021023
     atom   25 type  1   force =    -0.01367310   -0.00236826    0.01258979
     atom   26 type  1   force =     0.01367310    0.00236826   -0.01258979
     atom   27 type  1   force =     0.00888752   -0.01065712    0.01258979
     atom   28 type  1   force =    -0.00888752    0.01065712   -0.01258979
     atom   29 type  1   force =     0.00478558    0.01302538    0.01258979
     atom   30 type  1   force =    -0.00478558   -0.01302538   -0.01258979
     atom   31 type  1   force =    -0.02868819   -0.00934507    0.01623041
     atom   32 type  1   force =     0.02868819    0.00934507   -0.01623041
     atom   33 type  1   force =     0.02243716   -0.02017216    0.01623041
     atom   34 type  1   force =    -0.02243716    0.02017216   -0.01623041
     atom   35 type  1   force =     0.00625103    0.02951723    0.01623041
     atom   36 type  1   force =    -0.00625103   -0.02951723   -0.01623041

     Total force =     0.309224     Total SCF correction =     0.000156


     Computing stress (Cartesian axis) and pressure

          total   stress  (Ry/bohr**3)                   (kbar)     P=      -20.21
  -0.00021456  -0.00000000  -0.00000000          -31.56       -0.00       -0.00
   0.00000000  -0.00021456  -0.00000000            0.00      -31.56       -0.00
  -0.00000000  -0.00000000   0.00001700           -0.00       -0.00        2.50


     Writing all to output data dir ./iceII_2/iceII_2.save/ :
     XML data file, charge density, pseudopotentials, collected wavefunctions

     init_run     :      0.54s CPU      0.58s WALL (       1 calls)
     electrons    :      9.07s CPU      9.31s WALL (       1 calls)
     forces       :      0.07s CPU      0.08s WALL (       1 calls)
     stress       :      0.45s CPU      0.48s WALL (       1 calls)

     Called by init_run:
     wfcinit      :      0.27s CPU      0.28s WALL (       1 calls)
     potinit      :      0.03s CPU      0.04s WALL (       1 calls)
     hinit0       :      0.16s CPU      0.16s WALL (       1 calls)

     Called by electrons:
     c_bands      :      7.79s CPU      7.95s WALL (      13 calls)
     sum_band     :      1.02s CPU      1.04s WALL (      13 calls)
     v_of_rho     :      0.18s CPU      0.20s WALL (      14 calls)
     newd         :      0.03s CPU      0.04s WALL (      14 calls)
     mix_rho      :      0.03s CPU      0.03s WALL (      13 calls)

     Called by c_bands:
     init_us_2    :      0.06s CPU      0.07s WALL (     116 calls)
     cegterg      :      7.65s CPU      7.78s WALL (      52 calls)

     Called by *egterg:
     cdiaghg      :      0.80s CPU      0.81s WALL (     205 calls)
     h_psi        :      6.16s CPU      6.26s WALL (     209 calls)
     s_psi        :      0.17s CPU      0.18s WALL (     209 calls)
     g_psi        :      0.01s CPU      0.01s WALL (     153 calls)

     Called by h_psi:
     h_psi:calbec :      0.31s CPU      0.32s WALL (     209 calls)
     vloc_psi     :      5.64s CPU      5.72s WALL (     209 calls)
     add_vuspsi   :      0.19s CPU      0.19s WALL (     209 calls)

     General routines
     calbec       :      0.41s CPU      0.42s WALL (     281 calls)
     fft          :      0.25s CPU      0.25s WALL (     162 calls)
     ffts         :      0.01s CPU      0.01s WALL (      13 calls)
     fftw         :      5.99s CPU      6.07s WALL (   18786 calls)

     Parallel routines

     PWSCF        :     10.41s CPU     10.95s WALL


   This run was terminated on:  21:38:16  18Mar2026            

=------------------------------------------------------------------------------=
   JOB DONE.
=------------------------------------------------------------------------------=
