
     Program PWSCF v.7.3.1 starts on 18Mar2026 at 21:39:46 

     This program is part of the open-source Quantum ESPRESSO suite
     for quantum simulation of materials; please cite
         "P. Giannozzi et al., J. Phys.:Condens. Matter 21 395502 (2009);
         "P. Giannozzi et al., J. Phys.:Condens. Matter 29 465901 (2017);
         "P. Giannozzi et al., J. Chem. Phys. 152 154105 (2020);
          URL http://www.quantum-espresso.org", 
     in publications or presentations arising from this work. More details at
     http://www.quantum-espresso.org/quote

     Parallel version (MPI), running on   128 processors

     MPI processes distributed on     1 nodes
     243107 MiB available memory on the printing compute node when the environment starts

     Waiting for input...
     Reading input from standard input

     Current dimensions of program PWSCF are:
     Max number of different atomic species (ntypx) = 10
     Max number of k-points (npk) =  40000
     Max angular momentum in pseudopotentials (lmaxx) =  4

     K-points division:     npool     =       4
     R & G space division:  proc/nbgrp/npool/nimage =      32
     Subspace diagonalization in iterative solution of the eigenvalue problem:
     a serial algorithm will be used


     Parallelization info
     --------------------
     sticks:   dense  smooth     PW     G-vecs:    dense   smooth      PW
     Min         146     146     43                 5521     5521     899
     Max         147     147     44                 5524     5524     903
     Sum        4695    4695   1389               176727   176727   28817

     Using Slab Decomposition



     bravais-lattice index     =            5
     lattice parameter (alat)  =      14.7021  a.u.
     unit-cell volume          =    2053.1832 (a.u.)^3
     number of atoms/cell      =           36
     number of atomic types    =            2
     number of electrons       =        96.00
     number of Kohn-Sham states=           48
     kinetic-energy cutoff     =      74.0000  Ry
     charge density cutoff     =     296.0000  Ry
     scf convergence threshold =      1.0E-07
     mixing beta               =       0.7000
     number of iterations used =            8  plain     mixing
     Exchange-correlation=  SLA  PW   PBE  PBE
                           (   1   4   3   4   0   0   0)

     celldm(1)=  14.702068  celldm(2)=   0.000000  celldm(3)=   0.000000
     celldm(4)=  -0.392337  celldm(5)=   0.000000  celldm(6)=   0.000000

     crystal axes: (cart. coord. in units of alat)
               a(1) = (   0.834367  -0.481722   0.267909 )  
               a(2) = (   0.000000   0.963444   0.267909 )  
               a(3) = (  -0.834367  -0.481722   0.267909 )  

     reciprocal axes: (cart. coord. in units 2 pi/alat)
               b(1) = (  0.599257 -0.345981  1.244203 )  
               b(2) = ( -0.000000  0.691962  1.244203 )  
               b(3) = ( -0.599257 -0.345981  1.244203 )  


     PseudoPot. # 1 for H  read from file:
     ./H.pbe-van_ak.UPF
     MD5 check sum: 077eb6d537518a38cb46c6de387227b7
     Pseudo is Ultrasoft, Zval =  1.0
     Generated by new atomic code, or converted to UPF format
     Using radial grid of  615 points,  1 beta functions with: 
                l(1) =   0
     Q(r) pseudized with  8 coefficients,  rinner =    0.800

     PseudoPot. # 2 for O  read from file:
     ./O.pbe-van_ak.UPF
     MD5 check sum: 78c19812648e8988a0fe644b0f25305e
     Pseudo is Ultrasoft, Zval =  6.0
     Generated by new atomic code, or converted to UPF format
     Using radial grid of  737 points,  4 beta functions with: 
                l(1) =   0
                l(2) =   0
                l(3) =   1
                l(4) =   1
     Q(r) pseudized with  8 coefficients,  rinner =    0.800   0.800   0.800


     atomic species   valence    mass     pseudopotential
     H                 1.00     1.00800     H ( 1.00)
     O                 6.00    16.00000     O ( 1.00)

      6 Sym. Ops., with inversion, found



   Cartesian axes

     site n.     atom                  positions (alat units)
         1        O      tau(   1) = (  -0.4847673  -0.5197781   0.3083633  )
         2        O      tau(   2) = (   0.4847673   0.5197782   0.4953638  )
         3        O      tau(   3) = (   0.6925247  -0.1599317   0.3083633  )
         4        O      tau(   4) = (  -0.6925248   0.1599317   0.4953638  )
         5        O      tau(   5) = (  -0.2077574   0.6797099   0.3083633  )
         6        O      tau(   6) = (   0.2077574  -0.6797099   0.4953638  )
         7        O      tau(   7) = (   0.1218176   0.3323883   0.4179381  )
         8        O      tau(   8) = (  -0.1218176  -0.3323883   0.3857890  )
         9        O      tau(   9) = (  -0.3487655  -0.0606970   0.4179381  )
        10        O      tau(  10) = (   0.3487655   0.0606970   0.3857890  )
        11        O      tau(  11) = (   0.2269479  -0.2716913   0.4179381  )
        12        O      tau(  12) = (  -0.2269479   0.2716912   0.3857890  )
        13        H      tau(  13) = (  -0.5381668  -0.4032014   0.2796970  )
        14        H      tau(  14) = (   0.5381668   0.4032014   0.5240301  )
        15        H      tau(  15) = (   0.6182661  -0.2644654   0.2796970  )
        16        H      tau(  16) = (  -0.6182661   0.2644654   0.5240301  )
        17        H      tau(  17) = (  -0.0800993   0.6676668   0.2796970  )
        18        H      tau(  18) = (   0.0800993  -0.6676668   0.5240301  )
        19        H      tau(  19) = (  -0.4872704  -0.4817221   0.4326731  )
        20        H      tau(  20) = (   0.4872704   0.4817221   0.3710540  )
        21        H      tau(  21) = (   0.6608188  -0.1811275   0.4326731  )
        22        H      tau(  22) = (  -0.6608188   0.1811275   0.3710540  )
        23        H      tau(  23) = (  -0.1735484   0.6628496   0.4326731  )
        24        H      tau(  24) = (   0.1735484  -0.6628496   0.3710540  )
        25        H      tau(  25) = (   0.2703349  -0.1502973   0.4058822  )
        26        H      tau(  26) = (  -0.2703350   0.1502973   0.3978449  )
        27        H      tau(  27) = (  -0.0050062   0.3092656   0.4058822  )
        28        H      tau(  28) = (   0.0050062  -0.3092656   0.3978449  )
        29        H      tau(  29) = (  -0.2653287  -0.1589683   0.4058822  )
        30        H      tau(  30) = (   0.2653287   0.1589683   0.3978449  )
        31        H      tau(  31) = (   0.3178939  -0.3347969   0.3493534  )
        32        H      tau(  32) = (  -0.3178939   0.3347969   0.4543737  )
        33        H      tau(  33) = (   0.1309957   0.4427026   0.3493534  )
        34        H      tau(  34) = (  -0.1309956  -0.4427026   0.4543737  )
        35        H      tau(  35) = (  -0.4488895  -0.1079057   0.3493534  )
        36        H      tau(  36) = (   0.4488895   0.1079057   0.4543737  )

     number of k points=    14
                       cart. coord. in units 2pi/alat
        k(    1) = (   0.0000000   0.0000000   0.0000000), wk =   0.0312500
        k(    2) = (  -0.1498141  -0.0864952   0.3110508), wk =   0.1875000
        k(    3) = (   0.2996283   0.1729905  -0.6221017), wk =   0.0937500
        k(    4) = (  -0.1498141   0.0864952   0.6221017), wk =   0.1875000
        k(    5) = (   0.2996283   0.3459809  -0.3110508), wk =   0.1875000
        k(    6) = (   0.1498141   0.2594857   0.0000000), wk =   0.1875000
        k(    7) = (   0.2996283  -0.1729905  -1.2442034), wk =   0.0937500
        k(    8) = (   0.0000000   0.0000000   0.9331525), wk =   0.0625000
        k(    9) = (   0.4494424   0.2594857   0.0000000), wk =   0.1875000
        k(   10) = (   0.2996283   0.1729905   0.3110508), wk =   0.1875000
        k(   11) = (   0.4494424  -0.2594857  -0.9331525), wk =   0.1875000
        k(   12) = (   0.2996283  -0.3459809  -0.6221017), wk =   0.1875000
        k(   13) = (   0.0000000   0.0000000  -1.8663050), wk =   0.0312500
        k(   14) = (   0.2996283  -0.3459809   0.3110508), wk =   0.1875000

     Dense  grid:   176727 G-vectors     FFT dimensions: (  81,  81,  81)

     Estimated max dynamical RAM per process >      11.93 MB

     Estimated total dynamical RAM >       1.36 GB

     Initial potential from superposition of free atoms

     starting charge      95.9998, renormalised to      96.0000
     Starting wfcs are   72 randomized atomic wfcs

     total cpu time spent up to now is        0.9 secs

     per-process dynamical memory:    17.0 Mb

     Self-consistent Calculation

     iteration #  1     ecut=    74.00 Ry     beta= 0.70
     Davidson diagonalization with overlap
     ethr =  1.00E-02,  avg # of iterations =  2.0

     total cpu time spent up to now is        1.6 secs

     total energy              =    -412.26691624 Ry
     estimated scf accuracy    <       3.72557274 Ry

     iteration #  2     ecut=    74.00 Ry     beta= 0.70
     Davidson diagonalization with overlap
     ethr =  3.88E-03,  avg # of iterations =  3.0

     total cpu time spent up to now is        2.6 secs

     total energy              =    -413.44570121 Ry
     estimated scf accuracy    <       2.33858901 Ry

     iteration #  3     ecut=    74.00 Ry     beta= 0.70
     Davidson diagonalization with overlap
     ethr =  2.44E-03,  avg # of iterations =  2.0

     total cpu time spent up to now is        3.4 secs

     total energy              =    -413.74251936 Ry
     estimated scf accuracy    <       0.09946089 Ry

     iteration #  4     ecut=    74.00 Ry     beta= 0.70
     Davidson diagonalization with overlap
     ethr =  1.04E-04,  avg # of iterations =  4.0

     total cpu time spent up to now is        4.5 secs

     total energy              =    -413.82034507 Ry
     estimated scf accuracy    <       0.11756265 Ry

     iteration #  5     ecut=    74.00 Ry     beta= 0.70
     Davidson diagonalization with overlap
     ethr =  1.04E-04,  avg # of iterations =  2.0

     total cpu time spent up to now is        5.2 secs

     total energy              =    -413.82393343 Ry
     estimated scf accuracy    <       0.01991406 Ry

     iteration #  6     ecut=    74.00 Ry     beta= 0.70
     Davidson diagonalization with overlap
     ethr =  2.07E-05,  avg # of iterations =  2.0

     total cpu time spent up to now is        5.9 secs

     total energy              =    -413.82324441 Ry
     estimated scf accuracy    <       0.00688023 Ry

     iteration #  7     ecut=    74.00 Ry     beta= 0.70
     Davidson diagonalization with overlap
     ethr =  7.17E-06,  avg # of iterations =  3.0

     total cpu time spent up to now is        6.7 secs

     total energy              =    -413.82481985 Ry
     estimated scf accuracy    <       0.00014915 Ry

     iteration #  8     ecut=    74.00 Ry     beta= 0.70
     Davidson diagonalization with overlap
     ethr =  1.55E-07,  avg # of iterations =  6.0

     total cpu time spent up to now is        8.0 secs

     total energy              =    -413.82487998 Ry
     estimated scf accuracy    <       0.00100348 Ry

     iteration #  9     ecut=    74.00 Ry     beta= 0.70
     Davidson diagonalization with overlap
     ethr =  1.55E-07,  avg # of iterations =  4.0

     total cpu time spent up to now is        9.0 secs

     total energy              =    -413.82492179 Ry
     estimated scf accuracy    <       0.00010501 Ry

     iteration # 10     ecut=    74.00 Ry     beta= 0.70
     Davidson diagonalization with overlap
     ethr =  1.09E-07,  avg # of iterations =  2.0

     total cpu time spent up to now is        9.8 secs

     total energy              =    -413.82494949 Ry
     estimated scf accuracy    <       0.00000037 Ry

     iteration # 11     ecut=    74.00 Ry     beta= 0.70
     Davidson diagonalization with overlap
     ethr =  3.89E-10,  avg # of iterations =  5.1

     total cpu time spent up to now is       10.9 secs

     End of self-consistent calculation

          k = 0.0000 0.0000 0.0000 ( 22019 PWs)   bands (ev):

   -20.8702 -20.4082 -20.4082 -20.1836 -20.1836 -20.1564 -20.1564 -20.1401
   -20.1376 -19.8334 -19.8334 -19.5180  -8.2100  -8.0100  -7.9518  -7.9518
    -7.8670  -7.8670  -7.4470  -7.2935  -7.2935  -7.0761  -7.0761  -6.9425
    -6.8777  -5.9778  -5.9778  -5.3876  -5.3876  -5.3096  -5.3096  -5.0098
    -4.8217  -4.1771  -4.1771  -3.5131  -2.8109  -2.8109  -2.7088  -2.6308
    -2.5819  -2.5819  -2.4411  -2.4411  -2.4205  -2.4007  -2.3524  -2.3524

          k =-0.1498-0.0865 0.3111 ( 22060 PWs)   bands (ev):

   -20.7957 -20.4493 -20.3960 -20.3290 -20.3051 -20.2304 -20.0854 -20.0421
   -19.9871 -19.8401 -19.7978 -19.5785  -8.1547  -8.0756  -7.9978  -7.9503
    -7.8494  -7.7871  -7.4449  -7.2635  -7.2489  -7.1112  -6.9824  -6.9462
    -6.7413  -6.1251  -5.9939  -5.7234  -5.4006  -5.2624  -5.1221  -4.8968
    -4.8409  -4.1675  -4.1062  -3.6459  -2.9289  -2.8554  -2.7342  -2.6763
    -2.6191  -2.5830  -2.5410  -2.4773  -2.4125  -2.3735  -2.3380  -2.2902

          k = 0.2996 0.1730-0.6221 ( 22098 PWs)   bands (ev):

   -20.6028 -20.6009 -20.4309 -20.4149 -20.3050 -20.3002 -20.0291 -20.0189
   -19.8474 -19.8437 -19.7350 -19.7150  -8.1304  -8.0721  -7.9875  -7.9657
    -7.8540  -7.7919  -7.3910  -7.2663  -7.2246  -7.1213  -6.8985  -6.8977
    -6.4962  -6.3555  -6.0479  -5.8885  -5.4004  -5.3182  -5.1176  -4.9595
    -4.4253  -4.3043  -4.0444  -3.8156  -3.0356  -2.8763  -2.7607  -2.7313
    -2.6583  -2.6367  -2.5467  -2.4867  -2.4679  -2.3352  -2.3238  -2.2442

          k =-0.1498 0.0865 0.6221 ( 22085 PWs)   bands (ev):

   -20.6445 -20.5070 -20.4970 -20.3770 -20.3548 -20.2887 -20.0349 -19.9529
   -19.9177 -19.7995 -19.7809 -19.6891  -8.1382  -8.0495  -8.0306  -7.9233
    -7.8716  -7.7776  -7.3959  -7.3042  -7.2513  -7.0163  -6.9482  -6.8935
    -6.5016  -6.2878  -6.1895  -5.7185  -5.5444  -5.3607  -5.0412  -4.8343
    -4.6305  -4.1331  -4.1081  -3.8298  -3.0124  -2.9201  -2.7490  -2.7013
    -2.6672  -2.6177  -2.5737  -2.4882  -2.4568  -2.3449  -2.3277  -2.2380

          k = 0.2996 0.3460-0.3111 ( 22066 PWs)   bands (ev):

   -20.6980 -20.5405 -20.4316 -20.4085 -20.3246 -20.2554 -20.0385 -19.9364
   -19.9264 -19.8372 -19.7754 -19.6635  -8.1457  -8.1199  -7.9668  -7.9439
    -7.8834  -7.7871  -7.4289  -7.3668  -7.2400  -6.9838  -6.9524  -6.8813
    -6.6289  -6.3233  -6.0831  -5.7403  -5.6992  -5.1938  -5.0083  -4.7460
    -4.5181  -4.2900  -4.0886  -3.8033  -2.9223  -2.8519  -2.7654  -2.6932
    -2.6399  -2.5872  -2.5260  -2.5167  -2.4315  -2.3909  -2.3301  -2.2253

          k = 0.1498 0.2595 0.0000 ( 22056 PWs)   bands (ev):

   -20.8164 -20.4838 -20.4276 -20.2955 -20.2674 -20.1853 -20.1064 -20.0336
   -19.9932 -19.8447 -19.8086 -19.5662  -8.1939  -8.0885  -7.9890  -7.9434
    -7.8242  -7.8180  -7.5014  -7.3589  -7.1701  -7.0797  -7.0116  -6.8989
    -6.8751  -6.1080  -5.9750  -5.7157  -5.6031  -5.1389  -5.0050  -4.8797
    -4.6951  -4.2467  -4.1550  -3.6047  -2.8123  -2.7918  -2.7471  -2.6594
    -2.6201  -2.5931  -2.4756  -2.4600  -2.4253  -2.4165  -2.3117  -2.2971

          k = 0.2996-0.1730-1.2442 ( 22100 PWs)   bands (ev):

   -20.6870 -20.6491 -20.4427 -20.3456 -20.2672 -20.2087 -20.0508 -20.0152
   -19.9010 -19.8796 -19.6988 -19.6823  -8.1735  -8.1344  -7.9997  -7.9640
    -7.7986  -7.7932  -7.4990  -7.4282  -7.1535  -7.1043  -6.9221  -6.8765
    -6.5600  -6.5177  -6.0470  -5.8261  -5.5105  -5.2601  -4.8797  -4.6252
    -4.5160  -4.4510  -4.0046  -3.8165  -2.8288  -2.7781  -2.7607  -2.6932
    -2.6225  -2.5631  -2.5431  -2.4686  -2.4588  -2.4122  -2.2763  -2.2622

          k = 0.0000 0.0000 0.9332 ( 22040 PWs)   bands (ev):

   -20.5897 -20.5897 -20.5095 -20.4642 -20.2846 -20.2846 -19.9627 -19.9627
   -19.8402 -19.8008 -19.7737 -19.7737  -8.1214  -8.1214  -7.9828  -7.8820
    -7.8820  -7.8729  -7.4377  -7.3346  -7.3346  -6.8902  -6.8902  -6.8517
    -6.4240  -6.4236  -6.4236  -5.7653  -5.4551  -5.4551  -4.7944  -4.6102
    -4.6102  -4.1542  -4.1542  -3.9856  -2.8645  -2.8645  -2.7399  -2.6792
    -2.6115  -2.6115  -2.5536  -2.4901  -2.4901  -2.3764  -2.3764  -2.2011

          k = 0.4494 0.2595 0.0000 ( 22096 PWs)   bands (ev):

   -20.7167 -20.5492 -20.5429 -20.3473 -20.2118 -20.2010 -20.0658 -20.0586
   -19.9018 -19.8074 -19.7730 -19.6527  -8.1674  -8.1240  -8.0553  -7.9003
    -7.8405  -7.7763  -7.5161  -7.3777  -7.2476  -6.9991  -6.9463  -6.8986
    -6.6658  -6.2866  -6.2091  -5.7786  -5.5237  -5.2551  -4.8046  -4.7653
    -4.5596  -4.2575  -4.1176  -3.7896  -2.8104  -2.8028  -2.7487  -2.6980
    -2.6380  -2.5785  -2.5091  -2.4860  -2.4337  -2.3890  -2.3288  -2.2433

          k = 0.2996 0.1730 0.3111 ( 22079 PWs)   bands (ev):

   -20.7454 -20.4951 -20.4053 -20.3928 -20.3042 -20.2460 -20.0529 -20.0234
   -19.9513 -19.8285 -19.7743 -19.6167  -8.1655  -8.1071  -8.0232  -7.8940
    -7.8883  -7.7363  -7.4648  -7.3343  -7.1529  -7.0787  -7.0318  -6.9323
    -6.6562  -6.1295  -5.9552  -5.8703  -5.6413  -5.2893  -4.9931  -4.7924
    -4.6354  -4.2336  -4.0976  -3.6887  -2.9408  -2.8646  -2.7877  -2.7334
    -2.6348  -2.5935  -2.5170  -2.4843  -2.3999  -2.3590  -2.2997  -2.2829

          k = 0.4494-0.2595-0.9332 ( 22078 PWs)   bands (ev):

   -20.6147 -20.6122 -20.4740 -20.4184 -20.2919 -20.2156 -20.0922 -20.0081
   -19.8642 -19.8100 -19.7587 -19.6753  -8.1943  -8.0944  -8.0536  -7.9008
    -7.8537  -7.7169  -7.5107  -7.2928  -7.1718  -7.1155  -6.9682  -6.9380
    -6.3928  -6.3545  -6.0312  -5.8824  -5.6943  -5.3781  -4.9506  -4.6692
    -4.3649  -4.3261  -4.1399  -3.7585  -2.9397  -2.8844  -2.8468  -2.7338
    -2.6982  -2.6090  -2.4664  -2.4443  -2.4127  -2.3721  -2.3017  -2.2469

          k = 0.2996-0.3460-0.6221 ( 22068 PWs)   bands (ev):

   -20.5695 -20.5634 -20.4623 -20.4515 -20.3239 -20.3220 -20.0119 -20.0045
   -19.8522 -19.8443 -19.7291 -19.7084  -8.2080  -8.0080  -7.9777  -7.9586
    -7.9226  -7.7205  -7.4231  -7.3026  -7.1492  -7.1028  -6.9466  -6.9413
    -6.3572  -6.2295  -6.0665  -5.9396  -5.6161  -5.5803  -4.8686  -4.7962
    -4.3721  -4.3292  -4.1479  -3.7422  -3.0662  -2.8992  -2.8443  -2.7734
    -2.7180  -2.5794  -2.5111  -2.4719  -2.4489  -2.3257  -2.3083  -2.2284

          k = 0.0000 0.0000-1.8663 ( 22114 PWs)   bands (ev):

   -20.5375 -20.5188 -20.4253 -20.4253 -20.4233 -20.4233 -19.9369 -19.9369
   -19.9025 -19.9025 -19.7136 -19.6963  -8.2560  -7.9708  -7.9708  -7.9498
    -7.9498  -7.6895  -7.4733  -7.3002  -7.0531  -7.0531  -7.0218  -7.0218
    -6.1811  -6.0017  -5.9441  -5.9441  -5.9387  -5.9387  -4.6482  -4.6482
    -4.4108  -4.4108  -4.1656  -3.6920  -3.0976  -2.9019  -2.9019  -2.8115
    -2.8115  -2.5241  -2.5062  -2.4079  -2.4079  -2.3391  -2.3391  -2.2030

          k = 0.2996-0.3460 0.3111 ( 22066 PWs)   bands (ev):

   -20.6979 -20.5394 -20.4388 -20.4037 -20.3216 -20.2562 -20.0397 -19.9507
   -19.9058 -19.8486 -19.7682 -19.6654  -8.1611  -8.0868  -8.0037  -7.9388
    -7.8562  -7.7940  -7.4766  -7.3352  -7.2155  -7.0223  -6.9161  -6.9022
    -6.6213  -6.2555  -6.1780  -5.7907  -5.5537  -5.2566  -5.0892  -4.6554
    -4.4958  -4.2778  -4.1591  -3.7812  -2.9302  -2.8229  -2.7819  -2.6905
    -2.6454  -2.5925  -2.5272  -2.5166  -2.4492  -2.3597  -2.3309  -2.2338

     highest occupied level (ev):    -2.2011

!    total energy              =    -413.82495025 Ry
     estimated scf accuracy    <       0.00000005 Ry

     The total energy is the sum of the following terms:
     one-electron contribution =    -290.95065015 Ry
     hartree contribution      =     179.93028108 Ry
     xc contribution           =    -101.25998902 Ry
     ewald contribution        =    -201.54459216 Ry

     convergence has been achieved in  11 iterations

     Forces acting on atoms (cartesian axes, Ry/au):

     atom    1 type  2   force =    -0.03449432    0.06362745    0.03056059
     atom    2 type  2   force =     0.03449432   -0.06362745   -0.03056059
     atom    3 type  2   force =    -0.03785582   -0.06168668    0.03056059
     atom    4 type  2   force =     0.03785582    0.06168668   -0.03056059
     atom    5 type  2   force =     0.07235014   -0.00194077    0.03056059
     atom    6 type  2   force =    -0.07235014    0.00194077   -0.03056059
     atom    7 type  2   force =    -0.03075779    0.02384109   -0.02142576
     atom    8 type  2   force =     0.03075779   -0.02384109    0.02142576
     atom    9 type  2   force =    -0.00526809   -0.03855757   -0.02142576
     atom   10 type  2   force =     0.00526809    0.03855757    0.02142576
     atom   11 type  2   force =     0.03602588    0.01471648   -0.02142576
     atom   12 type  2   force =    -0.03602588   -0.01471648    0.02142576
     atom   13 type  1   force =     0.00321539   -0.02592158   -0.05124812
     atom   14 type  1   force =    -0.00321539    0.02592158    0.05124812
     atom   15 type  1   force =     0.02084105    0.01574540   -0.05124812
     atom   16 type  1   force =    -0.02084105   -0.01574540    0.05124812
     atom   17 type  1   force =    -0.02405644    0.01017618   -0.05124812
     atom   18 type  1   force =     0.02405644   -0.01017618    0.05124812
     atom   19 type  1   force =     0.02974353   -0.04469337    0.01011750
     atom   20 type  1   force =    -0.02974353    0.04469337   -0.01011750
     atom   21 type  1   force =     0.02383383    0.04810534    0.01011750
     atom   22 type  1   force =    -0.02383383   -0.04810534   -0.01011750
     atom   23 type  1   force =    -0.05357736   -0.00341197    0.01011750
     atom   24 type  1   force =     0.05357736    0.00341197   -0.01011750
     atom   25 type  1   force =    -0.01365863   -0.00245683    0.01258642
     atom   26 type  1   force =     0.01365863    0.00245683   -0.01258642
     atom   27 type  1   force =     0.00895699   -0.01060030    0.01258642
     atom   28 type  1   force =    -0.00895699    0.01060030   -0.01258642
     atom   29 type  1   force =     0.00470164    0.01305713    0.01258642
     atom   30 type  1   force =    -0.00470164   -0.01305713   -0.01258642
     atom   31 type  1   force =    -0.02872353   -0.00931000    0.01626581
     atom   32 type  1   force =     0.02872353    0.00931000   -0.01626581
     atom   33 type  1   force =     0.02242446   -0.02022031    0.01626581
     atom   34 type  1   force =    -0.02242446    0.02022031   -0.01626581
     atom   35 type  1   force =     0.00629907    0.02953031    0.01626581
     atom   36 type  1   force =    -0.00629907   -0.02953031   -0.01626581

     Total force =     0.309512     Total SCF correction =     0.000337


     Computing stress (Cartesian axis) and pressure

          total   stress  (Ry/bohr**3)                   (kbar)     P=      -23.65
  -0.00023796   0.00000000   0.00000000          -35.01        0.00        0.00
  -0.00000000  -0.00023796  -0.00000000           -0.00      -35.01       -0.00
  -0.00000000  -0.00000000  -0.00000634           -0.00       -0.00       -0.93


     Writing all to output data dir ./iceII_2/iceII_2.save/ :
     XML data file, charge density, pseudopotentials, collected wavefunctions

     init_run     :      0.59s CPU      0.64s WALL (       1 calls)
     electrons    :      9.96s CPU     10.14s WALL (       1 calls)
     forces       :      0.10s CPU      0.10s WALL (       1 calls)
     stress       :      0.63s CPU      0.65s WALL (       1 calls)

     Called by init_run:
     wfcinit      :      0.34s CPU      0.34s WALL (       1 calls)
     potinit      :      0.03s CPU      0.04s WALL (       1 calls)
     hinit0       :      0.12s CPU      0.13s WALL (       1 calls)

     Called by electrons:
     c_bands      :      8.56s CPU      8.65s WALL (      11 calls)
     sum_band     :      1.12s CPU      1.13s WALL (      11 calls)
     v_of_rho     :      0.20s CPU      0.21s WALL (      12 calls)
     newd         :      0.04s CPU      0.04s WALL (      12 calls)
     mix_rho      :      0.03s CPU      0.03s WALL (      11 calls)

     Called by c_bands:
     init_us_2    :      0.09s CPU      0.10s WALL (     100 calls)
     cegterg      :      8.43s CPU      8.48s WALL (      44 calls)

     Called by *egterg:
     cdiaghg      :      0.73s CPU      0.73s WALL (     185 calls)
     h_psi        :      6.88s CPU      6.94s WALL (     189 calls)
     s_psi        :      0.21s CPU      0.21s WALL (     189 calls)
     g_psi        :      0.01s CPU      0.01s WALL (     141 calls)

     Called by h_psi:
     h_psi:calbec :      0.37s CPU      0.38s WALL (     189 calls)
     vloc_psi     :      6.25s CPU      6.30s WALL (     189 calls)
     add_vuspsi   :      0.23s CPU      0.23s WALL (     189 calls)

     General routines
     calbec       :      0.49s CPU      0.49s WALL (     253 calls)
     fft          :      0.22s CPU      0.22s WALL (     140 calls)
     ffts         :      0.01s CPU      0.01s WALL (      11 calls)
     fftw         :      6.57s CPU      6.63s WALL (   16614 calls)

     Parallel routines

     PWSCF        :     11.57s CPU     12.12s WALL


   This run was terminated on:  21:39:58  18Mar2026            

=------------------------------------------------------------------------------=
   JOB DONE.
=------------------------------------------------------------------------------=
