
     Program PWSCF v.7.3.1 starts on 18Mar2026 at 21:36: 1 

     This program is part of the open-source Quantum ESPRESSO suite
     for quantum simulation of materials; please cite
         "P. Giannozzi et al., J. Phys.:Condens. Matter 21 395502 (2009);
         "P. Giannozzi et al., J. Phys.:Condens. Matter 29 465901 (2017);
         "P. Giannozzi et al., J. Chem. Phys. 152 154105 (2020);
          URL http://www.quantum-espresso.org", 
     in publications or presentations arising from this work. More details at
     http://www.quantum-espresso.org/quote

     Parallel version (MPI), running on   128 processors

     MPI processes distributed on     1 nodes
     243260 MiB available memory on the printing compute node when the environment starts

     Waiting for input...
     Reading input from standard input

     Current dimensions of program PWSCF are:
     Max number of different atomic species (ntypx) = 10
     Max number of k-points (npk) =  40000
     Max angular momentum in pseudopotentials (lmaxx) =  4

     K-points division:     npool     =       8
     R & G space division:  proc/nbgrp/npool/nimage =      16
     Subspace diagonalization in iterative solution of the eigenvalue problem:
     a serial algorithm will be used


     Parallelization info
     --------------------
     sticks:   dense  smooth     PW     G-vecs:    dense   smooth      PW
     Min         149     149     47                 4059     4059     729
     Max         150     150     48                 4062     4062     732
     Sum        2395    2395    767                64971    64971   11697

     Using Slab Decomposition



     bravais-lattice index     =            5
     lattice parameter (alat)  =      14.7021  a.u.
     unit-cell volume          =    2053.1832 (a.u.)^3
     number of atoms/cell      =           36
     number of atomic types    =            2
     number of electrons       =        96.00
     number of Kohn-Sham states=           48
     kinetic-energy cutoff     =      38.0000  Ry
     charge density cutoff     =     152.0000  Ry
     scf convergence threshold =      1.0E-07
     mixing beta               =       0.7000
     number of iterations used =            8  plain     mixing
     Exchange-correlation=  SLA  PW   PBE  PBE
                           (   1   4   3   4   0   0   0)

     celldm(1)=  14.702068  celldm(2)=   0.000000  celldm(3)=   0.000000
     celldm(4)=  -0.392337  celldm(5)=   0.000000  celldm(6)=   0.000000

     crystal axes: (cart. coord. in units of alat)
               a(1) = (   0.834367  -0.481722   0.267909 )  
               a(2) = (   0.000000   0.963444   0.267909 )  
               a(3) = (  -0.834367  -0.481722   0.267909 )  

     reciprocal axes: (cart. coord. in units 2 pi/alat)
               b(1) = (  0.599257 -0.345981  1.244203 )  
               b(2) = ( -0.000000  0.691962  1.244203 )  
               b(3) = ( -0.599257 -0.345981  1.244203 )  


     PseudoPot. # 1 for H  read from file:
     ./H.pbe-van_ak.UPF
     MD5 check sum: 077eb6d537518a38cb46c6de387227b7
     Pseudo is Ultrasoft, Zval =  1.0
     Generated by new atomic code, or converted to UPF format
     Using radial grid of  615 points,  1 beta functions with: 
                l(1) =   0
     Q(r) pseudized with  8 coefficients,  rinner =    0.800

     PseudoPot. # 2 for O  read from file:
     ./O.pbe-van_ak.UPF
     MD5 check sum: 78c19812648e8988a0fe644b0f25305e
     Pseudo is Ultrasoft, Zval =  6.0
     Generated by new atomic code, or converted to UPF format
     Using radial grid of  737 points,  4 beta functions with: 
                l(1) =   0
                l(2) =   0
                l(3) =   1
                l(4) =   1
     Q(r) pseudized with  8 coefficients,  rinner =    0.800   0.800   0.800


     atomic species   valence    mass     pseudopotential
     H                 1.00     1.00800     H ( 1.00)
     O                 6.00    16.00000     O ( 1.00)

      6 Sym. Ops., with inversion, found



   Cartesian axes

     site n.     atom                  positions (alat units)
         1        O      tau(   1) = (  -0.4847673  -0.5197781   0.3083633  )
         2        O      tau(   2) = (   0.4847673   0.5197782   0.4953638  )
         3        O      tau(   3) = (   0.6925247  -0.1599317   0.3083633  )
         4        O      tau(   4) = (  -0.6925248   0.1599317   0.4953638  )
         5        O      tau(   5) = (  -0.2077574   0.6797099   0.3083633  )
         6        O      tau(   6) = (   0.2077574  -0.6797099   0.4953638  )
         7        O      tau(   7) = (   0.1218176   0.3323883   0.4179381  )
         8        O      tau(   8) = (  -0.1218176  -0.3323883   0.3857890  )
         9        O      tau(   9) = (  -0.3487655  -0.0606970   0.4179381  )
        10        O      tau(  10) = (   0.3487655   0.0606970   0.3857890  )
        11        O      tau(  11) = (   0.2269479  -0.2716913   0.4179381  )
        12        O      tau(  12) = (  -0.2269479   0.2716912   0.3857890  )
        13        H      tau(  13) = (  -0.5381668  -0.4032014   0.2796970  )
        14        H      tau(  14) = (   0.5381668   0.4032014   0.5240301  )
        15        H      tau(  15) = (   0.6182661  -0.2644654   0.2796970  )
        16        H      tau(  16) = (  -0.6182661   0.2644654   0.5240301  )
        17        H      tau(  17) = (  -0.0800993   0.6676668   0.2796970  )
        18        H      tau(  18) = (   0.0800993  -0.6676668   0.5240301  )
        19        H      tau(  19) = (  -0.4872704  -0.4817221   0.4326731  )
        20        H      tau(  20) = (   0.4872704   0.4817221   0.3710540  )
        21        H      tau(  21) = (   0.6608188  -0.1811275   0.4326731  )
        22        H      tau(  22) = (  -0.6608188   0.1811275   0.3710540  )
        23        H      tau(  23) = (  -0.1735484   0.6628496   0.4326731  )
        24        H      tau(  24) = (   0.1735484  -0.6628496   0.3710540  )
        25        H      tau(  25) = (   0.2703349  -0.1502973   0.4058822  )
        26        H      tau(  26) = (  -0.2703350   0.1502973   0.3978449  )
        27        H      tau(  27) = (  -0.0050062   0.3092656   0.4058822  )
        28        H      tau(  28) = (   0.0050062  -0.3092656   0.3978449  )
        29        H      tau(  29) = (  -0.2653287  -0.1589683   0.4058822  )
        30        H      tau(  30) = (   0.2653287   0.1589683   0.3978449  )
        31        H      tau(  31) = (   0.3178939  -0.3347969   0.3493534  )
        32        H      tau(  32) = (  -0.3178939   0.3347969   0.4543737  )
        33        H      tau(  33) = (   0.1309957   0.4427026   0.3493534  )
        34        H      tau(  34) = (  -0.1309956  -0.4427026   0.4543737  )
        35        H      tau(  35) = (  -0.4488895  -0.1079057   0.3493534  )
        36        H      tau(  36) = (   0.4488895   0.1079057   0.4543737  )

     number of k points=    14
                       cart. coord. in units 2pi/alat
        k(    1) = (   0.0000000   0.0000000   0.0000000), wk =   0.0312500
        k(    2) = (  -0.1498141  -0.0864952   0.3110508), wk =   0.1875000
        k(    3) = (   0.2996283   0.1729905  -0.6221017), wk =   0.0937500
        k(    4) = (  -0.1498141   0.0864952   0.6221017), wk =   0.1875000
        k(    5) = (   0.2996283   0.3459809  -0.3110508), wk =   0.1875000
        k(    6) = (   0.1498141   0.2594857   0.0000000), wk =   0.1875000
        k(    7) = (   0.2996283  -0.1729905  -1.2442034), wk =   0.0937500
        k(    8) = (   0.0000000   0.0000000   0.9331525), wk =   0.0625000
        k(    9) = (   0.4494424   0.2594857   0.0000000), wk =   0.1875000
        k(   10) = (   0.2996283   0.1729905   0.3110508), wk =   0.1875000
        k(   11) = (   0.4494424  -0.2594857  -0.9331525), wk =   0.1875000
        k(   12) = (   0.2996283  -0.3459809  -0.6221017), wk =   0.1875000
        k(   13) = (   0.0000000   0.0000000  -1.8663050), wk =   0.0312500
        k(   14) = (   0.2996283  -0.3459809   0.3110508), wk =   0.1875000

     Dense  grid:    64971 G-vectors     FFT dimensions: (  60,  60,  60)

     Estimated max dynamical RAM per process >       8.15 MB

     Estimated total dynamical RAM >     931.77 MB

     Initial potential from superposition of free atoms

     starting charge      95.9998, renormalised to      96.0000
     Starting wfcs are   72 randomized atomic wfcs

     total cpu time spent up to now is        0.8 secs

     per-process dynamical memory:    12.3 Mb

     Self-consistent Calculation

     iteration #  1     ecut=    38.00 Ry     beta= 0.70
     Davidson diagonalization with overlap
     ethr =  1.00E-02,  avg # of iterations =  2.0

     total cpu time spent up to now is        1.1 secs

     total energy              =    -412.18040278 Ry
     estimated scf accuracy    <       3.69561778 Ry

     iteration #  2     ecut=    38.00 Ry     beta= 0.70
     Davidson diagonalization with overlap
     ethr =  3.85E-03,  avg # of iterations =  3.0

     total cpu time spent up to now is        1.4 secs

     total energy              =    -413.35625622 Ry
     estimated scf accuracy    <       2.32996222 Ry

     iteration #  3     ecut=    38.00 Ry     beta= 0.70
     Davidson diagonalization with overlap
     ethr =  2.43E-03,  avg # of iterations =  2.0

     total cpu time spent up to now is        1.6 secs

     total energy              =    -413.64561132 Ry
     estimated scf accuracy    <       0.09417621 Ry

     iteration #  4     ecut=    38.00 Ry     beta= 0.70
     Davidson diagonalization with overlap
     ethr =  9.81E-05,  avg # of iterations =  4.5

     negative rho (up, down):  1.513E-07 0.000E+00

     total cpu time spent up to now is        2.0 secs

     total energy              =    -413.71933887 Ry
     estimated scf accuracy    <       0.12711717 Ry

     iteration #  5     ecut=    38.00 Ry     beta= 0.70
     Davidson diagonalization with overlap
     ethr =  9.81E-05,  avg # of iterations =  2.0

     negative rho (up, down):  2.173E-07 0.000E+00

     total cpu time spent up to now is        2.2 secs

     total energy              =    -413.72430518 Ry
     estimated scf accuracy    <       0.02070584 Ry

     iteration #  6     ecut=    38.00 Ry     beta= 0.70
     Davidson diagonalization with overlap
     ethr =  2.16E-05,  avg # of iterations =  2.0

     negative rho (up, down):  2.646E-07 0.000E+00

     total cpu time spent up to now is        2.4 secs

     total energy              =    -413.72486710 Ry
     estimated scf accuracy    <       0.00495114 Ry

     iteration #  7     ecut=    38.00 Ry     beta= 0.70
     Davidson diagonalization with overlap
     ethr =  5.16E-06,  avg # of iterations =  2.5

     negative rho (up, down):  2.406E-07 0.000E+00

     total cpu time spent up to now is        2.7 secs

     total energy              =    -413.72609999 Ry
     estimated scf accuracy    <       0.00005565 Ry

     iteration #  8     ecut=    38.00 Ry     beta= 0.70
     Davidson diagonalization with overlap
     ethr =  5.80E-08,  avg # of iterations =  5.4

     negative rho (up, down):  2.439E-07 0.000E+00

     total cpu time spent up to now is        3.1 secs

     total energy              =    -413.72618399 Ry
     estimated scf accuracy    <       0.00018370 Ry

     iteration #  9     ecut=    38.00 Ry     beta= 0.70
     Davidson diagonalization with overlap
     ethr =  5.80E-08,  avg # of iterations =  2.0

     negative rho (up, down):  2.334E-07 0.000E+00

     total cpu time spent up to now is        3.3 secs

     total energy              =    -413.72616309 Ry
     estimated scf accuracy    <       0.00007208 Ry

     iteration # 10     ecut=    38.00 Ry     beta= 0.70
     Davidson diagonalization with overlap
     ethr =  5.80E-08,  avg # of iterations =  2.0

     negative rho (up, down):  2.308E-07 0.000E+00

     total cpu time spent up to now is        3.6 secs

     total energy              =    -413.72617022 Ry
     estimated scf accuracy    <       0.00000582 Ry

     iteration # 11     ecut=    38.00 Ry     beta= 0.70
     Davidson diagonalization with overlap
     ethr =  6.06E-09,  avg # of iterations =  3.4

     negative rho (up, down):  2.298E-07 0.000E+00

     total cpu time spent up to now is        3.8 secs

     End of self-consistent calculation

          k = 0.0000 0.0000 0.0000 (  8137 PWs)   bands (ev):

   -20.8848 -20.4232 -20.4232 -20.1988 -20.1988 -20.1715 -20.1715 -20.1554
   -20.1529 -19.8488 -19.8488 -19.5337  -8.2089  -8.0084  -7.9505  -7.9505
    -7.8653  -7.8653  -7.4478  -7.2917  -7.2917  -7.0739  -7.0739  -6.9407
    -6.8754  -5.9767  -5.9767  -5.3863  -5.3863  -5.3079  -5.3079  -5.0077
    -4.8191  -4.1736  -4.1736  -3.5081  -2.8060  -2.8060  -2.7040  -2.6262
    -2.5774  -2.5774  -2.4364  -2.4364  -2.4150  -2.3952  -2.3468  -2.3468

          k =-0.1498-0.0865 0.3111 (  8134 PWs)   bands (ev):

   -20.8103 -20.4642 -20.4110 -20.3441 -20.3201 -20.2455 -20.1006 -20.0574
   -20.0024 -19.8555 -19.8133 -19.5941  -8.1535  -8.0744  -7.9965  -7.9488
    -7.8476  -7.7854  -7.4445  -7.2618  -7.2477  -7.1091  -6.9800  -6.9439
    -6.7395  -6.1241  -5.9927  -5.7224  -5.3989  -5.2608  -5.1202  -4.8945
    -4.8385  -4.1639  -4.1026  -3.6414  -2.9242  -2.8506  -2.7296  -2.6718
    -2.6144  -2.5780  -2.5359  -2.4726  -2.4072  -2.3687  -2.3325  -2.2849

          k = 0.2996 0.1730-0.6221 (  8136 PWs)   bands (ev):

   -20.6176 -20.6157 -20.4458 -20.4299 -20.3200 -20.3153 -20.0444 -20.0342
   -19.8628 -19.8592 -19.7504 -19.7305  -8.1294  -8.0708  -7.9861  -7.9642
    -7.8524  -7.7901  -7.3899  -7.2647  -7.2234  -7.1192  -6.8959  -6.8951
    -6.4950  -6.3545  -6.0465  -5.8874  -5.3988  -5.3165  -5.1156  -4.9574
    -4.4219  -4.3013  -4.0409  -3.8116  -3.0312  -2.8716  -2.7560  -2.7268
    -2.6537  -2.6320  -2.5416  -2.4814  -2.4631  -2.3302  -2.3185  -2.2388

          k =-0.1498 0.0865 0.6221 (  8128 PWs)   bands (ev):

   -20.6592 -20.5219 -20.5118 -20.3920 -20.3698 -20.3037 -20.0502 -19.9682
   -19.9331 -19.8149 -19.7964 -19.7046  -8.1372  -8.0482  -8.0292  -7.9217
    -7.8699  -7.7758  -7.3950  -7.3027  -7.2498  -7.0141  -6.9457  -6.8909
    -6.5003  -6.2870  -6.1884  -5.7171  -5.5430  -5.3591  -5.0392  -4.8319
    -4.6276  -4.1297  -4.1045  -3.8258  -3.0079  -2.9155  -2.7443  -2.6966
    -2.6624  -2.6129  -2.5688  -2.4832  -2.4517  -2.3398  -2.3227  -2.2325

          k = 0.2996 0.3460-0.3111 (  8136 PWs)   bands (ev):

   -20.7127 -20.5553 -20.4466 -20.4234 -20.3397 -20.2705 -20.0538 -19.9517
   -19.9417 -19.8526 -19.7909 -19.6791  -8.1447  -8.1187  -7.9653  -7.9426
    -7.8819  -7.7855  -7.4278  -7.3652  -7.2383  -6.9819  -6.9501  -6.8787
    -6.6280  -6.3225  -6.0821  -5.7391  -5.6977  -5.1918  -5.0064  -4.7435
    -4.5151  -4.2869  -4.0849  -3.7990  -2.9176  -2.8474  -2.7607  -2.6887
    -2.6351  -2.5821  -2.5212  -2.5118  -2.4262  -2.3859  -2.3249  -2.2199

          k = 0.1498 0.2595 0.0000 (  8122 PWs)   bands (ev):

   -20.8310 -20.4987 -20.4425 -20.3106 -20.2825 -20.2005 -20.1216 -20.0488
   -20.0085 -19.8601 -19.8241 -19.5818  -8.1927  -8.0873  -7.9876  -7.9419
    -7.8225  -7.8163  -7.5008  -7.3573  -7.1688  -7.0775  -7.0095  -6.8974
    -6.8725  -6.1070  -5.9739  -5.7143  -5.6018  -5.1368  -5.0029  -4.8776
    -4.6923  -4.2433  -4.1514  -3.6000  -2.8075  -2.7868  -2.7425  -2.6549
    -2.6154  -2.5883  -2.4702  -2.4549  -2.4200  -2.4112  -2.3063  -2.2916

          k = 0.2996-0.1730-1.2442 (  8116 PWs)   bands (ev):

   -20.7017 -20.6639 -20.4576 -20.3607 -20.2823 -20.2239 -20.0660 -20.0305
   -19.9164 -19.8949 -19.7143 -19.6979  -8.1722  -8.1334  -7.9983  -7.9624
    -7.7969  -7.7916  -7.4977  -7.4267  -7.1517  -7.1024  -6.9197  -6.8739
    -6.5592  -6.5170  -6.0459  -5.8245  -5.5089  -5.2582  -4.8773  -4.6224
    -4.5132  -4.4481  -4.0007  -3.8121  -2.8242  -2.7734  -2.7556  -2.6888
    -2.6178  -2.5577  -2.5377  -2.4636  -2.4539  -2.4067  -2.2709  -2.2566

          k = 0.0000 0.0000 0.9332 (  8117 PWs)   bands (ev):

   -20.6045 -20.6045 -20.5243 -20.4791 -20.2997 -20.2997 -19.9781 -19.9780
   -19.8556 -19.8163 -19.7891 -19.7891  -8.1202  -8.1202  -7.9815  -7.8804
    -7.8804  -7.8713  -7.4363  -7.3330  -7.3330  -6.8876  -6.8876  -6.8490
    -6.4233  -6.4231  -6.4231  -5.7638  -5.4534  -5.4534  -4.7923  -4.6073
    -4.6073  -4.1506  -4.1506  -3.9817  -2.8597  -2.8597  -2.7351  -2.6745
    -2.6065  -2.6065  -2.5486  -2.4851  -2.4851  -2.3713  -2.3713  -2.1955

          k = 0.4494 0.2595 0.0000 (  8121 PWs)   bands (ev):

   -20.7314 -20.5640 -20.5577 -20.3623 -20.2270 -20.2161 -20.0810 -20.0739
   -19.9171 -19.8228 -19.7885 -19.6683  -8.1662  -8.1228  -8.0541  -7.8986
    -7.8388  -7.7746  -7.5148  -7.3763  -7.2460  -6.9969  -6.9440  -6.8962
    -6.6650  -6.2858  -6.2082  -5.7771  -5.5220  -5.2532  -4.8021  -4.7628
    -4.5568  -4.2540  -4.1140  -3.7852  -2.8057  -2.7982  -2.7436  -2.6935
    -2.6332  -2.5734  -2.5040  -2.4809  -2.4284  -2.3835  -2.3232  -2.2380

          k = 0.2996 0.1730 0.3111 (  8122 PWs)   bands (ev):

   -20.7600 -20.5100 -20.4203 -20.4077 -20.3192 -20.2610 -20.0682 -20.0387
   -19.9667 -19.8439 -19.7897 -19.6323  -8.1645  -8.1059  -8.0218  -7.8923
    -7.8866  -7.7344  -7.4637  -7.3331  -7.1509  -7.0767  -7.0297  -6.9299
    -6.6548  -6.1283  -5.9540  -5.8692  -5.6400  -5.2877  -4.9908  -4.7900
    -4.6326  -4.2302  -4.0939  -3.6842  -2.9361  -2.8600  -2.7832  -2.7290
    -2.6300  -2.5886  -2.5121  -2.4790  -2.3945  -2.3537  -2.2943  -2.2776

          k = 0.4494-0.2595-0.9332 (  8102 PWs)   bands (ev):

   -20.6295 -20.6270 -20.4889 -20.4334 -20.3069 -20.2307 -20.1074 -20.0233
   -19.8796 -19.8254 -19.7741 -19.6908  -8.1934  -8.0930  -8.0522  -7.8990
    -7.8519  -7.7150  -7.5093  -7.2912  -7.1698  -7.1134  -6.9660  -6.9355
    -6.3915  -6.3537  -6.0302  -5.8809  -5.6929  -5.3765  -4.9482  -4.6665
    -4.3617  -4.3227  -4.1362  -3.7542  -2.9348  -2.8800  -2.8423  -2.7293
    -2.6936  -2.6042  -2.4610  -2.4389  -2.4072  -2.3666  -2.2962  -2.2416

          k = 0.2996-0.3460-0.6221 (  8104 PWs)   bands (ev):

   -20.5843 -20.5783 -20.4772 -20.4665 -20.3388 -20.3370 -20.0272 -20.0198
   -19.8676 -19.8597 -19.7446 -19.7239  -8.2071  -8.0064  -7.9761  -7.9570
    -7.9209  -7.7187  -7.4219  -7.3009  -7.1475  -7.1008  -6.9441  -6.9388
    -6.3559  -6.2283  -6.0652  -5.9382  -5.6148  -5.5790  -4.8661  -4.7937
    -4.3689  -4.3260  -4.1443  -3.7379  -3.0618  -2.8947  -2.8398  -2.7690
    -2.7134  -2.5743  -2.5061  -2.4667  -2.4436  -2.3201  -2.3027  -2.2231

          k = 0.0000 0.0000-1.8663 (  8078 PWs)   bands (ev):

   -20.5523 -20.5338 -20.4402 -20.4402 -20.4382 -20.4382 -19.9521 -19.9521
   -19.9179 -19.9179 -19.7291 -19.7119  -8.2553  -7.9690  -7.9690  -7.9480
    -7.9480  -7.6876  -7.4722  -7.2980  -7.0510  -7.0510  -7.0194  -7.0194
    -6.1794  -6.0001  -5.9428  -5.9428  -5.9377  -5.9377  -4.6454  -4.6454
    -4.4075  -4.4075  -4.1619  -3.6874  -3.0929  -2.8975  -2.8975  -2.8071
    -2.8071  -2.5187  -2.5013  -2.4023  -2.4023  -2.3333  -2.3333  -2.1974

          k = 0.2996-0.3460 0.3111 (  8136 PWs)   bands (ev):

   -20.7127 -20.5543 -20.4537 -20.4186 -20.3367 -20.2713 -20.0550 -19.9660
   -19.9212 -19.8640 -19.7837 -19.6809  -8.1600  -8.0855  -8.0023  -7.9372
    -7.8546  -7.7923  -7.4756  -7.3338  -7.2137  -7.0205  -6.9137  -6.8997
    -6.6203  -6.2547  -6.1771  -5.7893  -5.5522  -5.2548  -5.0873  -4.6529
    -4.4927  -4.2745  -4.1557  -3.7770  -2.9256  -2.8184  -2.7771  -2.6859
    -2.6408  -2.5875  -2.5224  -2.5114  -2.4439  -2.3547  -2.3258  -2.2283

     highest occupied level (ev):    -2.1955

!    total energy              =    -413.72617197 Ry
     estimated scf accuracy    <       0.00000004 Ry

     The total energy is the sum of the following terms:
     one-electron contribution =    -290.76697052 Ry
     hartree contribution      =     179.81117042 Ry
     xc contribution           =    -101.22577956 Ry
     ewald contribution        =    -201.54459231 Ry

     convergence has been achieved in  11 iterations

     Forces acting on atoms (cartesian axes, Ry/au):

     atom    1 type  2   force =    -0.03439321    0.06359292    0.03043587
     atom    2 type  2   force =     0.03439321   -0.06359292   -0.03043587
     atom    3 type  2   force =    -0.03787647   -0.06158185    0.03043587
     atom    4 type  2   force =     0.03787647    0.06158185   -0.03043587
     atom    5 type  2   force =     0.07226969   -0.00201106    0.03043587
     atom    6 type  2   force =    -0.07226969    0.00201106   -0.03043587
     atom    7 type  2   force =    -0.03068705    0.02386518   -0.02141086
     atom    8 type  2   force =     0.03068705   -0.02386518    0.02141086
     atom    9 type  2   force =    -0.00532433   -0.03850835   -0.02141086
     atom   10 type  2   force =     0.00532433    0.03850835    0.02141086
     atom   11 type  2   force =     0.03601137    0.01464317   -0.02141086
     atom   12 type  2   force =    -0.03601137   -0.01464317    0.02141086
     atom   13 type  1   force =     0.00314904   -0.02583153   -0.05126740
     atom   14 type  1   force =    -0.00314904    0.02583153    0.05126740
     atom   15 type  1   force =     0.02079624    0.01564291   -0.05126740
     atom   16 type  1   force =    -0.02079624   -0.01564291    0.05126740
     atom   17 type  1   force =    -0.02394528    0.01018862   -0.05126740
     atom   18 type  1   force =     0.02394528   -0.01018862    0.05126740
     atom   19 type  1   force =     0.02973856   -0.04462701    0.01029590
     atom   20 type  1   force =    -0.02973856    0.04462701   -0.01029590
     atom   21 type  1   force =     0.02377884    0.04806785    0.01029590
     atom   22 type  1   force =    -0.02377884   -0.04806785   -0.01029590
     atom   23 type  1   force =    -0.05351740   -0.00344084    0.01029590
     atom   24 type  1   force =     0.05351740    0.00344084   -0.01029590
     atom   25 type  1   force =    -0.01360445   -0.00232255    0.01257649
     atom   26 type  1   force =     0.01360445    0.00232255   -0.01257649
     atom   27 type  1   force =     0.00881361   -0.01062052    0.01257649
     atom   28 type  1   force =    -0.00881361    0.01062052   -0.01257649
     atom   29 type  1   force =     0.00479084    0.01294307    0.01257649
     atom   30 type  1   force =    -0.00479084   -0.01294307   -0.01257649
     atom   31 type  1   force =    -0.02858839   -0.00940453    0.01615405
     atom   32 type  1   force =     0.02858839    0.00940453   -0.01615405
     atom   33 type  1   force =     0.02243876   -0.02005601    0.01615405
     atom   34 type  1   force =    -0.02243876    0.02005601   -0.01615405
     atom   35 type  1   force =     0.00614963    0.02946054    0.01615405
     atom   36 type  1   force =    -0.00614963   -0.02946054   -0.01615405

     Total force =     0.309119     Total SCF correction =     0.000109


     Computing stress (Cartesian axis) and pressure

          total   stress  (Ry/bohr**3)                   (kbar)     P=      -30.07
  -0.00028151   0.00000000  -0.00000000          -41.41        0.00       -0.00
  -0.00000000  -0.00028151  -0.00000000           -0.00      -41.41       -0.00
   0.00000000  -0.00000000  -0.00005020            0.00       -0.00       -7.38


     Writing all to output data dir ./iceII_2/iceII_2.save/ :
     XML data file, charge density, pseudopotentials, collected wavefunctions

     init_run     :      0.61s CPU      0.63s WALL (       1 calls)
     electrons    :      2.87s CPU      3.00s WALL (       1 calls)
     forces       :      0.06s CPU      0.06s WALL (       1 calls)
     stress       :      0.25s CPU      0.26s WALL (       1 calls)

     Called by init_run:
     wfcinit      :      0.10s CPU      0.10s WALL (       1 calls)
     potinit      :      0.03s CPU      0.03s WALL (       1 calls)
     hinit0       :      0.43s CPU      0.43s WALL (       1 calls)

     Called by electrons:
     c_bands      :      2.36s CPU      2.41s WALL (      11 calls)
     sum_band     :      0.30s CPU      0.33s WALL (      11 calls)
     v_of_rho     :      0.15s CPU      0.17s WALL (      12 calls)
     newd         :      0.03s CPU      0.03s WALL (      12 calls)
     mix_rho      :      0.02s CPU      0.02s WALL (      11 calls)

     Called by c_bands:
     init_us_2    :      0.03s CPU      0.03s WALL (      50 calls)
     cegterg      :      2.27s CPU      2.30s WALL (      22 calls)

     Called by *egterg:
     cdiaghg      :      0.33s CPU      0.33s WALL (      86 calls)
     h_psi        :      1.65s CPU      1.66s WALL (      88 calls)
     s_psi        :      0.07s CPU      0.07s WALL (      88 calls)
     g_psi        :      0.00s CPU      0.00s WALL (      64 calls)

     Called by h_psi:
     h_psi:calbec :      0.12s CPU      0.12s WALL (      88 calls)
     vloc_psi     :      1.43s CPU      1.44s WALL (      88 calls)
     add_vuspsi   :      0.08s CPU      0.08s WALL (      88 calls)

     General routines
     calbec       :      0.17s CPU      0.17s WALL (     120 calls)
     fft          :      0.50s CPU      0.52s WALL (     140 calls)
     ffts         :      0.01s CPU      0.01s WALL (      11 calls)
     fftw         :      1.48s CPU      1.49s WALL (    7816 calls)

     Parallel routines

     PWSCF        :      3.96s CPU      4.27s WALL


   This run was terminated on:  21:36: 5  18Mar2026            

=------------------------------------------------------------------------------=
   JOB DONE.
=------------------------------------------------------------------------------=
