
     Program PWSCF v.7.3.1 starts on 18Mar2026 at 21:41:26 

     This program is part of the open-source Quantum ESPRESSO suite
     for quantum simulation of materials; please cite
         "P. Giannozzi et al., J. Phys.:Condens. Matter 21 395502 (2009);
         "P. Giannozzi et al., J. Phys.:Condens. Matter 29 465901 (2017);
         "P. Giannozzi et al., J. Chem. Phys. 152 154105 (2020);
          URL http://www.quantum-espresso.org", 
     in publications or presentations arising from this work. More details at
     http://www.quantum-espresso.org/quote

     Parallel version (MPI), running on   128 processors

     MPI processes distributed on     1 nodes
     243083 MiB available memory on the printing compute node when the environment starts

     Waiting for input...
     Reading input from standard input

     Current dimensions of program PWSCF are:
     Max number of different atomic species (ntypx) = 10
     Max number of k-points (npk) =  40000
     Max angular momentum in pseudopotentials (lmaxx) =  4

     K-points division:     npool     =       4
     R & G space division:  proc/nbgrp/npool/nimage =      32
     Subspace diagonalization in iterative solution of the eigenvalue problem:
     a serial algorithm will be used


     Parallelization info
     --------------------
     sticks:   dense  smooth     PW     G-vecs:    dense   smooth      PW
     Min         170     170     50                 6913     6913    1104
     Max         171     171     51                 6916     6916    1106
     Sum        5447    5447   1603               221249   221249   35377

     Using Slab Decomposition



     bravais-lattice index     =            5
     lattice parameter (alat)  =      14.7021  a.u.
     unit-cell volume          =    2053.1832 (a.u.)^3
     number of atoms/cell      =           36
     number of atomic types    =            2
     number of electrons       =        96.00
     number of Kohn-Sham states=           48
     kinetic-energy cutoff     =      86.0000  Ry
     charge density cutoff     =     344.0000  Ry
     scf convergence threshold =      1.0E-07
     mixing beta               =       0.7000
     number of iterations used =            8  plain     mixing
     Exchange-correlation=  SLA  PW   PBE  PBE
                           (   1   4   3   4   0   0   0)

     celldm(1)=  14.702068  celldm(2)=   0.000000  celldm(3)=   0.000000
     celldm(4)=  -0.392337  celldm(5)=   0.000000  celldm(6)=   0.000000

     crystal axes: (cart. coord. in units of alat)
               a(1) = (   0.834367  -0.481722   0.267909 )  
               a(2) = (   0.000000   0.963444   0.267909 )  
               a(3) = (  -0.834367  -0.481722   0.267909 )  

     reciprocal axes: (cart. coord. in units 2 pi/alat)
               b(1) = (  0.599257 -0.345981  1.244203 )  
               b(2) = ( -0.000000  0.691962  1.244203 )  
               b(3) = ( -0.599257 -0.345981  1.244203 )  


     PseudoPot. # 1 for H  read from file:
     ./H.pbe-van_ak.UPF
     MD5 check sum: 077eb6d537518a38cb46c6de387227b7
     Pseudo is Ultrasoft, Zval =  1.0
     Generated by new atomic code, or converted to UPF format
     Using radial grid of  615 points,  1 beta functions with: 
                l(1) =   0
     Q(r) pseudized with  8 coefficients,  rinner =    0.800

     PseudoPot. # 2 for O  read from file:
     ./O.pbe-van_ak.UPF
     MD5 check sum: 78c19812648e8988a0fe644b0f25305e
     Pseudo is Ultrasoft, Zval =  6.0
     Generated by new atomic code, or converted to UPF format
     Using radial grid of  737 points,  4 beta functions with: 
                l(1) =   0
                l(2) =   0
                l(3) =   1
                l(4) =   1
     Q(r) pseudized with  8 coefficients,  rinner =    0.800   0.800   0.800


     atomic species   valence    mass     pseudopotential
     H                 1.00     1.00800     H ( 1.00)
     O                 6.00    16.00000     O ( 1.00)

      6 Sym. Ops., with inversion, found



   Cartesian axes

     site n.     atom                  positions (alat units)
         1        O      tau(   1) = (  -0.4847673  -0.5197781   0.3083633  )
         2        O      tau(   2) = (   0.4847673   0.5197782   0.4953638  )
         3        O      tau(   3) = (   0.6925247  -0.1599317   0.3083633  )
         4        O      tau(   4) = (  -0.6925248   0.1599317   0.4953638  )
         5        O      tau(   5) = (  -0.2077574   0.6797099   0.3083633  )
         6        O      tau(   6) = (   0.2077574  -0.6797099   0.4953638  )
         7        O      tau(   7) = (   0.1218176   0.3323883   0.4179381  )
         8        O      tau(   8) = (  -0.1218176  -0.3323883   0.3857890  )
         9        O      tau(   9) = (  -0.3487655  -0.0606970   0.4179381  )
        10        O      tau(  10) = (   0.3487655   0.0606970   0.3857890  )
        11        O      tau(  11) = (   0.2269479  -0.2716913   0.4179381  )
        12        O      tau(  12) = (  -0.2269479   0.2716912   0.3857890  )
        13        H      tau(  13) = (  -0.5381668  -0.4032014   0.2796970  )
        14        H      tau(  14) = (   0.5381668   0.4032014   0.5240301  )
        15        H      tau(  15) = (   0.6182661  -0.2644654   0.2796970  )
        16        H      tau(  16) = (  -0.6182661   0.2644654   0.5240301  )
        17        H      tau(  17) = (  -0.0800993   0.6676668   0.2796970  )
        18        H      tau(  18) = (   0.0800993  -0.6676668   0.5240301  )
        19        H      tau(  19) = (  -0.4872704  -0.4817221   0.4326731  )
        20        H      tau(  20) = (   0.4872704   0.4817221   0.3710540  )
        21        H      tau(  21) = (   0.6608188  -0.1811275   0.4326731  )
        22        H      tau(  22) = (  -0.6608188   0.1811275   0.3710540  )
        23        H      tau(  23) = (  -0.1735484   0.6628496   0.4326731  )
        24        H      tau(  24) = (   0.1735484  -0.6628496   0.3710540  )
        25        H      tau(  25) = (   0.2703349  -0.1502973   0.4058822  )
        26        H      tau(  26) = (  -0.2703350   0.1502973   0.3978449  )
        27        H      tau(  27) = (  -0.0050062   0.3092656   0.4058822  )
        28        H      tau(  28) = (   0.0050062  -0.3092656   0.3978449  )
        29        H      tau(  29) = (  -0.2653287  -0.1589683   0.4058822  )
        30        H      tau(  30) = (   0.2653287   0.1589683   0.3978449  )
        31        H      tau(  31) = (   0.3178939  -0.3347969   0.3493534  )
        32        H      tau(  32) = (  -0.3178939   0.3347969   0.4543737  )
        33        H      tau(  33) = (   0.1309957   0.4427026   0.3493534  )
        34        H      tau(  34) = (  -0.1309956  -0.4427026   0.4543737  )
        35        H      tau(  35) = (  -0.4488895  -0.1079057   0.3493534  )
        36        H      tau(  36) = (   0.4488895   0.1079057   0.4543737  )

     number of k points=    14
                       cart. coord. in units 2pi/alat
        k(    1) = (   0.0000000   0.0000000   0.0000000), wk =   0.0312500
        k(    2) = (  -0.1498141  -0.0864952   0.3110508), wk =   0.1875000
        k(    3) = (   0.2996283   0.1729905  -0.6221017), wk =   0.0937500
        k(    4) = (  -0.1498141   0.0864952   0.6221017), wk =   0.1875000
        k(    5) = (   0.2996283   0.3459809  -0.3110508), wk =   0.1875000
        k(    6) = (   0.1498141   0.2594857   0.0000000), wk =   0.1875000
        k(    7) = (   0.2996283  -0.1729905  -1.2442034), wk =   0.0937500
        k(    8) = (   0.0000000   0.0000000   0.9331525), wk =   0.0625000
        k(    9) = (   0.4494424   0.2594857   0.0000000), wk =   0.1875000
        k(   10) = (   0.2996283   0.1729905   0.3110508), wk =   0.1875000
        k(   11) = (   0.4494424  -0.2594857  -0.9331525), wk =   0.1875000
        k(   12) = (   0.2996283  -0.3459809  -0.6221017), wk =   0.1875000
        k(   13) = (   0.0000000   0.0000000  -1.8663050), wk =   0.0312500
        k(   14) = (   0.2996283  -0.3459809   0.3110508), wk =   0.1875000

     Dense  grid:   221249 G-vectors     FFT dimensions: (  90,  90,  90)

     Estimated max dynamical RAM per process >      14.66 MB

     Estimated total dynamical RAM >       1.67 GB

     Initial potential from superposition of free atoms

     starting charge      95.9998, renormalised to      96.0000
     Starting wfcs are   72 randomized atomic wfcs

     total cpu time spent up to now is        1.2 secs

     per-process dynamical memory:    19.0 Mb

     Self-consistent Calculation

     iteration #  1     ecut=    86.00 Ry     beta= 0.70
     Davidson diagonalization with overlap
     ethr =  1.00E-02,  avg # of iterations =  2.0

     total cpu time spent up to now is        2.0 secs

     total energy              =    -412.28293256 Ry
     estimated scf accuracy    <       3.73766896 Ry

     iteration #  2     ecut=    86.00 Ry     beta= 0.70
     Davidson diagonalization with overlap
     ethr =  3.89E-03,  avg # of iterations =  3.0

     total cpu time spent up to now is        3.0 secs

     total energy              =    -413.46597240 Ry
     estimated scf accuracy    <       2.34719498 Ry

     iteration #  3     ecut=    86.00 Ry     beta= 0.70
     Davidson diagonalization with overlap
     ethr =  2.44E-03,  avg # of iterations =  2.0

     total cpu time spent up to now is        3.8 secs

     total energy              =    -413.76376163 Ry
     estimated scf accuracy    <       0.10047600 Ry

     iteration #  4     ecut=    86.00 Ry     beta= 0.70
     Davidson diagonalization with overlap
     ethr =  1.05E-04,  avg # of iterations =  4.0

     total cpu time spent up to now is        4.9 secs

     total energy              =    -413.84215267 Ry
     estimated scf accuracy    <       0.11843554 Ry

     iteration #  5     ecut=    86.00 Ry     beta= 0.70
     Davidson diagonalization with overlap
     ethr =  1.05E-04,  avg # of iterations =  2.0

     total cpu time spent up to now is        5.6 secs

     total energy              =    -413.84572228 Ry
     estimated scf accuracy    <       0.02010339 Ry

     iteration #  6     ecut=    86.00 Ry     beta= 0.70
     Davidson diagonalization with overlap
     ethr =  2.09E-05,  avg # of iterations =  2.0

     total cpu time spent up to now is        6.3 secs

     total energy              =    -413.84501692 Ry
     estimated scf accuracy    <       0.00693944 Ry

     iteration #  7     ecut=    86.00 Ry     beta= 0.70
     Davidson diagonalization with overlap
     ethr =  7.23E-06,  avg # of iterations =  3.0

     total cpu time spent up to now is        7.2 secs

     total energy              =    -413.84662910 Ry
     estimated scf accuracy    <       0.00014576 Ry

     iteration #  8     ecut=    86.00 Ry     beta= 0.70
     Davidson diagonalization with overlap
     ethr =  1.52E-07,  avg # of iterations =  6.0

     total cpu time spent up to now is        8.5 secs

     total energy              =    -413.84668290 Ry
     estimated scf accuracy    <       0.00102995 Ry

     iteration #  9     ecut=    86.00 Ry     beta= 0.70
     Davidson diagonalization with overlap
     ethr =  1.52E-07,  avg # of iterations =  4.0

     total cpu time spent up to now is        9.6 secs

     total energy              =    -413.84673026 Ry
     estimated scf accuracy    <       0.00010211 Ry

     iteration # 10     ecut=    86.00 Ry     beta= 0.70
     Davidson diagonalization with overlap
     ethr =  1.06E-07,  avg # of iterations =  2.0

     total cpu time spent up to now is       10.4 secs

     total energy              =    -413.84675560 Ry
     estimated scf accuracy    <       0.00000036 Ry

     iteration # 11     ecut=    86.00 Ry     beta= 0.70
     Davidson diagonalization with overlap
     ethr =  3.79E-10,  avg # of iterations =  5.6

     total cpu time spent up to now is       11.7 secs

     total energy              =    -413.84675645 Ry
     estimated scf accuracy    <       0.00000011 Ry

     iteration # 12     ecut=    86.00 Ry     beta= 0.70
     Davidson diagonalization with overlap
     ethr =  1.12E-10,  avg # of iterations =  2.0

     total cpu time spent up to now is       12.4 secs

     total energy              =    -413.84675638 Ry
     estimated scf accuracy    <       0.00000020 Ry

     iteration # 13     ecut=    86.00 Ry     beta= 0.70
     Davidson diagonalization with overlap
     ethr =  1.12E-10,  avg # of iterations =  2.0

     total cpu time spent up to now is       13.2 secs

     End of self-consistent calculation

          k = 0.0000 0.0000 0.0000 ( 27725 PWs)   bands (ev):

   -20.8678 -20.4057 -20.4057 -20.1810 -20.1810 -20.1539 -20.1539 -20.1375
   -20.1351 -19.8307 -19.8307 -19.5153  -8.2122  -8.0119  -7.9538  -7.9538
    -7.8690  -7.8690  -7.4484  -7.2956  -7.2956  -7.0785  -7.0785  -6.9448
    -6.8804  -5.9796  -5.9796  -5.3893  -5.3893  -5.3114  -5.3114  -5.0119
    -4.8238  -4.1794  -4.1794  -3.5157  -2.8131  -2.8131  -2.7124  -2.6331
    -2.5845  -2.5845  -2.4435  -2.4435  -2.4231  -2.4034  -2.3549  -2.3549

          k =-0.1498-0.0865 0.3111 ( 27641 PWs)   bands (ev):

   -20.7933 -20.4468 -20.3935 -20.3264 -20.3025 -20.2278 -20.0828 -20.0395
   -19.9845 -19.8374 -19.7952 -19.5758  -8.1568  -8.0774  -7.9997  -7.9522
    -7.8514  -7.7890  -7.4466  -7.2656  -7.2508  -7.1135  -6.9847  -6.9486
    -6.7435  -6.1268  -5.9956  -5.7251  -5.4022  -5.2641  -5.1241  -4.8986
    -4.8428  -4.1697  -4.1084  -3.6484  -2.9311  -2.8576  -2.7374  -2.6785
    -2.6218  -2.5858  -2.5435  -2.4798  -2.4149  -2.3759  -2.3404  -2.2927

          k = 0.2996 0.1730-0.6221 ( 27656 PWs)   bands (ev):

   -20.6005 -20.5983 -20.4285 -20.4122 -20.3025 -20.2976 -20.0266 -20.0162
   -19.8448 -19.8410 -19.7324 -19.7121  -8.1322  -8.0741  -7.9894  -7.9676
    -7.8560  -7.7938  -7.3929  -7.2683  -7.2266  -7.1235  -6.9008  -6.9001
    -6.4981  -6.3572  -6.0495  -5.8903  -5.4023  -5.3199  -5.1193  -4.9615
    -4.4272  -4.3065  -4.0467  -3.8180  -3.0378  -2.8786  -2.7629  -2.7342
    -2.6610  -2.6399  -2.5493  -2.4891  -2.4704  -2.3376  -2.3261  -2.2466

          k =-0.1498 0.0865 0.6221 ( 27633 PWs)   bands (ev):

   -20.6420 -20.5045 -20.4945 -20.3744 -20.3522 -20.2861 -20.0323 -19.9503
   -19.9150 -19.7968 -19.7782 -19.6863  -8.1401  -8.0514  -8.0326  -7.9252
    -7.8735  -7.7796  -7.3976  -7.3062  -7.2534  -7.0186  -6.9505  -6.8959
    -6.5035  -6.2895  -6.1912  -5.7203  -5.5461  -5.3625  -5.0430  -4.8363
    -4.6323  -4.1353  -4.1103  -3.8323  -3.0146  -2.9223  -2.7513  -2.7043
    -2.6703  -2.6202  -2.5762  -2.4908  -2.4593  -2.3473  -2.3301  -2.2405

          k = 0.2996 0.3460-0.3111 ( 27682 PWs)   bands (ev):

   -20.6955 -20.5380 -20.4289 -20.4061 -20.3221 -20.2529 -20.0358 -19.9338
   -19.9238 -19.8344 -19.7728 -19.6608  -8.1476  -8.1219  -7.9688  -7.9458
    -7.8854  -7.7890  -7.4309  -7.3689  -7.2421  -6.9861  -6.9549  -6.8837
    -6.6308  -6.3249  -6.0848  -5.7420  -5.7011  -5.1957  -5.0103  -4.7478
    -4.5201  -4.2921  -4.0908  -3.8057  -2.9246  -2.8542  -2.7679  -2.6965
    -2.6423  -2.5898  -2.5286  -2.5193  -2.4340  -2.3933  -2.3326  -2.2279

          k = 0.1498 0.2595 0.0000 ( 27660 PWs)   bands (ev):

   -20.8140 -20.4813 -20.4251 -20.2929 -20.2648 -20.1827 -20.1039 -20.0309
   -19.9907 -19.8421 -19.8059 -19.5634  -8.1959  -8.0904  -7.9909  -7.9453
    -7.8262  -7.8199  -7.5033  -7.3610  -7.1723  -7.0820  -7.0138  -6.9009
    -6.8777  -6.1097  -5.9768  -5.7174  -5.6049  -5.1408  -5.0068  -4.8817
    -4.6970  -4.2489  -4.1572  -3.6072  -2.8146  -2.7940  -2.7499  -2.6624
    -2.6226  -2.5956  -2.4780  -2.4624  -2.4278  -2.4189  -2.3141  -2.2996

          k = 0.2996-0.1730-1.2442 ( 27664 PWs)   bands (ev):

   -20.6845 -20.6467 -20.4402 -20.3430 -20.2647 -20.2061 -20.0483 -20.0125
   -19.8985 -19.8768 -19.6961 -19.6796  -8.1753  -8.1364  -8.0015  -7.9659
    -7.8005  -7.7952  -7.5012  -7.4303  -7.1557  -7.1065  -6.9245  -6.8790
    -6.5616  -6.5192  -6.0486  -5.8279  -5.5124  -5.2621  -4.8815  -4.6272
    -4.5181  -4.4531  -4.0068  -3.8190  -2.8310  -2.7805  -2.7629  -2.6968
    -2.6250  -2.5654  -2.5455  -2.4710  -2.4613  -2.4146  -2.2788  -2.2647

          k = 0.0000 0.0000 0.9332 ( 27663 PWs)   bands (ev):

   -20.5872 -20.5872 -20.5071 -20.4616 -20.2820 -20.2820 -19.9601 -19.9601
   -19.8378 -19.7979 -19.7710 -19.7710  -8.1233  -8.1233  -7.9848  -7.8840
    -7.8840  -7.8748  -7.4397  -7.3367  -7.3367  -6.8926  -6.8926  -6.8543
    -6.4258  -6.4251  -6.4251  -5.7669  -5.4570  -5.4570  -4.7967  -4.6121
    -4.6121  -4.1563  -4.1563  -3.9880  -2.8667  -2.8667  -2.7434  -2.6817
    -2.6139  -2.6139  -2.5566  -2.4926  -2.4926  -2.3788  -2.3788  -2.2037

          k = 0.4494 0.2595 0.0000 ( 27654 PWs)   bands (ev):

   -20.7143 -20.5467 -20.5404 -20.3446 -20.2093 -20.1983 -20.0632 -20.0560
   -19.8992 -19.8046 -19.7703 -19.6500  -8.1693  -8.1258  -8.0572  -7.9022
    -7.8424  -7.7782  -7.5183  -7.3798  -7.2498  -7.0014  -6.9487  -6.9011
    -6.6674  -6.2883  -6.2106  -5.7804  -5.5256  -5.2571  -4.8065  -4.7672
    -4.5616  -4.2595  -4.1198  -3.7920  -2.8127  -2.8051  -2.7510  -2.7016
    -2.6404  -2.5810  -2.5114  -2.4884  -2.4362  -2.3914  -2.3312  -2.2459

          k = 0.2996 0.1730 0.3111 ( 27638 PWs)   bands (ev):

   -20.7429 -20.4926 -20.4028 -20.3903 -20.3016 -20.2434 -20.0503 -20.0209
   -19.9486 -19.8259 -19.7715 -19.6140  -8.1675  -8.1090  -8.0251  -7.8959
    -7.8903  -7.7382  -7.4668  -7.3362  -7.1551  -7.0809  -7.0340  -6.9347
    -6.6583  -6.1312  -5.9569  -5.8721  -5.6430  -5.2911  -4.9951  -4.7943
    -4.6373  -4.2357  -4.0998  -3.6911  -2.9431  -2.8668  -2.7902  -2.7359
    -2.6375  -2.5963  -2.5197  -2.4867  -2.4023  -2.3614  -2.3022  -2.2853

          k = 0.4494-0.2595-0.9332 ( 27628 PWs)   bands (ev):

   -20.6123 -20.6097 -20.4715 -20.4159 -20.2893 -20.2131 -20.0896 -20.0055
   -19.8614 -19.8074 -19.7560 -19.6725  -8.1963  -8.0963  -8.0554  -7.9027
    -7.8556  -7.7188  -7.5127  -7.2950  -7.1739  -7.1177  -6.9705  -6.9404
    -6.3946  -6.3561  -6.0329  -5.8843  -5.6960  -5.3799  -4.9525  -4.6712
    -4.3669  -4.3281  -4.1418  -3.7611  -2.9421  -2.8867  -2.8490  -2.7362
    -2.7006  -2.6124  -2.4689  -2.4468  -2.4151  -2.3746  -2.3042  -2.2494

          k = 0.2996-0.3460-0.6221 ( 27632 PWs)   bands (ev):

   -20.5672 -20.5608 -20.4599 -20.4489 -20.3214 -20.3194 -20.0094 -20.0018
   -19.8495 -19.8415 -19.7266 -19.7055  -8.2100  -8.0099  -7.9796  -7.9605
    -7.9245  -7.7225  -7.4250  -7.3048  -7.1513  -7.1050  -6.9489  -6.9437
    -6.3590  -6.2312  -6.0682  -5.9415  -5.6178  -5.5819  -4.8705  -4.7982
    -4.3741  -4.3313  -4.1500  -3.7447  -3.0686  -2.9015  -2.8466  -2.7759
    -2.7206  -2.5821  -2.5143  -2.4744  -2.4514  -2.3281  -2.3107  -2.2309

          k = 0.0000 0.0000-1.8663 ( 27564 PWs)   bands (ev):

   -20.5352 -20.5161 -20.4226 -20.4226 -20.4210 -20.4210 -19.9344 -19.9344
   -19.8997 -19.8997 -19.7111 -19.6934  -8.2580  -7.9726  -7.9726  -7.9517
    -7.9517  -7.6913  -7.4752  -7.3024  -7.0553  -7.0553  -7.0241  -7.0241
    -6.1828  -6.0039  -5.9458  -5.9458  -5.9402  -5.9402  -4.6501  -4.6501
    -4.4127  -4.4127  -4.1675  -3.6945  -3.1001  -2.9041  -2.9041  -2.8137
    -2.8137  -2.5269  -2.5097  -2.4103  -2.4103  -2.3414  -2.3414  -2.2054

          k = 0.2996-0.3460 0.3111 ( 27682 PWs)   bands (ev):

   -20.6955 -20.5369 -20.4363 -20.4011 -20.3190 -20.2536 -20.0371 -19.9481
   -19.9029 -19.8460 -19.7655 -19.6627  -8.1631  -8.0887  -8.0056  -7.9407
    -7.8581  -7.7959  -7.4786  -7.3373  -7.2177  -7.0245  -6.9185  -6.9046
    -6.6231  -6.2572  -6.1797  -5.7925  -5.5555  -5.2586  -5.0910  -4.6574
    -4.4978  -4.2800  -4.1612  -3.7837  -2.9326  -2.8253  -2.7842  -2.6933
    -2.6482  -2.5952  -2.5297  -2.5191  -2.4516  -2.3621  -2.3334  -2.2363

     highest occupied level (ev):    -2.2037

!    total energy              =    -413.84675639 Ry
     estimated scf accuracy    <       0.00000002 Ry

     The total energy is the sum of the following terms:
     one-electron contribution =    -290.98892850 Ry
     hartree contribution      =     179.95249006 Ry
     xc contribution           =    -101.26572579 Ry
     ewald contribution        =    -201.54459216 Ry

     convergence has been achieved in  13 iterations

     Forces acting on atoms (cartesian axes, Ry/au):

     atom    1 type  2   force =    -0.03455626    0.06365191    0.03055039
     atom    2 type  2   force =     0.03455626   -0.06365191   -0.03055039
     atom    3 type  2   force =    -0.03784604   -0.06175256    0.03055039
     atom    4 type  2   force =     0.03784604    0.06175256   -0.03055039
     atom    5 type  2   force =     0.07240231   -0.00189936    0.03055039
     atom    6 type  2   force =    -0.07240231    0.00189936   -0.03055039
     atom    7 type  2   force =    -0.03079137    0.02372400   -0.02138442
     atom    8 type  2   force =     0.03079137   -0.02372400    0.02138442
     atom    9 type  2   force =    -0.00514990   -0.03852811   -0.02138442
     atom   10 type  2   force =     0.00514990    0.03852811    0.02138442
     atom   11 type  2   force =     0.03594127    0.01480411   -0.02138442
     atom   12 type  2   force =    -0.03594127   -0.01480411    0.02138442
     atom   13 type  1   force =     0.00318817   -0.02595163   -0.05124552
     atom   14 type  1   force =    -0.00318817    0.02595163    0.05124552
     atom   15 type  1   force =     0.02088069    0.01573685   -0.05124552
     atom   16 type  1   force =    -0.02088069   -0.01573685    0.05124552
     atom   17 type  1   force =    -0.02406886    0.01021478   -0.05124552
     atom   18 type  1   force =     0.02406886   -0.01021478    0.05124552
     atom   19 type  1   force =     0.02971722   -0.04471520    0.01012493
     atom   20 type  1   force =    -0.02971722    0.04471520   -0.01012493
     atom   21 type  1   force =     0.02386589    0.04809346    0.01012493
     atom   22 type  1   force =    -0.02386589   -0.04809346   -0.01012493
     atom   23 type  1   force =    -0.05358311   -0.00337826    0.01012493
     atom   24 type  1   force =     0.05358311    0.00337826   -0.01012493
     atom   25 type  1   force =    -0.01371361   -0.00246705    0.01258932
     atom   26 type  1   force =     0.01371361    0.00246705   -0.01258932
     atom   27 type  1   force =     0.00899333   -0.01064281    0.01258932
     atom   28 type  1   force =    -0.00899333    0.01064281   -0.01258932
     atom   29 type  1   force =     0.00472028    0.01310986    0.01258932
     atom   30 type  1   force =    -0.00472028   -0.01310986   -0.01258932
     atom   31 type  1   force =    -0.02873247   -0.00932039    0.01627180
     atom   32 type  1   force =     0.02873247    0.00932039   -0.01627180
     atom   33 type  1   force =     0.02243793   -0.02022285    0.01627180
     atom   34 type  1   force =    -0.02243793    0.02022285   -0.01627180
     atom   35 type  1   force =     0.00629454    0.02954325    0.01627180
     atom   36 type  1   force =    -0.00629454   -0.02954325   -0.01627180

     Total force =     0.309567     Total SCF correction =     0.000144


     Computing stress (Cartesian axis) and pressure

          total   stress  (Ry/bohr**3)                   (kbar)     P=      -24.48
  -0.00024374   0.00000000   0.00000000          -35.86        0.00        0.00
  -0.00000000  -0.00024374  -0.00000000           -0.00      -35.86       -0.00
   0.00000000  -0.00000000  -0.00001167            0.00       -0.00       -1.72


     Writing all to output data dir ./iceII_2/iceII_2.save/ :
     XML data file, charge density, pseudopotentials, collected wavefunctions

     init_run     :      0.90s CPU      0.97s WALL (       1 calls)
     electrons    :     11.92s CPU     12.12s WALL (       1 calls)
     forces       :      0.13s CPU      0.13s WALL (       1 calls)
     stress       :      0.81s CPU      0.83s WALL (       1 calls)

     Called by init_run:
     wfcinit      :      0.34s CPU      0.35s WALL (       1 calls)
     potinit      :      0.03s CPU      0.06s WALL (       1 calls)
     hinit0       :      0.39s CPU      0.40s WALL (       1 calls)

     Called by electrons:
     c_bands      :     10.07s CPU     10.18s WALL (      13 calls)
     sum_band     :      1.37s CPU      1.38s WALL (      13 calls)
     v_of_rho     :      0.29s CPU      0.34s WALL (      14 calls)
     newd         :      0.09s CPU      0.10s WALL (      14 calls)
     mix_rho      :      0.05s CPU      0.05s WALL (      13 calls)

     Called by c_bands:
     init_us_2    :      0.15s CPU      0.16s WALL (     116 calls)
     cegterg      :      9.74s CPU      9.83s WALL (      52 calls)

     Called by *egterg:
     cdiaghg      :      0.81s CPU      0.82s WALL (     209 calls)
     h_psi        :      7.62s CPU      7.70s WALL (     213 calls)
     s_psi        :      0.30s CPU      0.31s WALL (     213 calls)
     g_psi        :      0.02s CPU      0.02s WALL (     157 calls)

     Called by h_psi:
     h_psi:calbec :      0.53s CPU      0.53s WALL (     213 calls)
     vloc_psi     :      6.73s CPU      6.80s WALL (     213 calls)
     add_vuspsi   :      0.32s CPU      0.32s WALL (     213 calls)

     General routines
     calbec       :      0.70s CPU      0.70s WALL (     285 calls)
     fft          :      0.56s CPU      0.60s WALL (     162 calls)
     ffts         :      0.02s CPU      0.03s WALL (      13 calls)
     fftw         :      7.00s CPU      7.06s WALL (   19172 calls)

     Parallel routines

     PWSCF        :     14.09s CPU     14.64s WALL


   This run was terminated on:  21:41:40  18Mar2026            

=------------------------------------------------------------------------------=
   JOB DONE.
=------------------------------------------------------------------------------=
