
     Program PWSCF v.7.3.1 starts on 18Mar2026 at 21:41: 9 

     This program is part of the open-source Quantum ESPRESSO suite
     for quantum simulation of materials; please cite
         "P. Giannozzi et al., J. Phys.:Condens. Matter 21 395502 (2009);
         "P. Giannozzi et al., J. Phys.:Condens. Matter 29 465901 (2017);
         "P. Giannozzi et al., J. Chem. Phys. 152 154105 (2020);
          URL http://www.quantum-espresso.org", 
     in publications or presentations arising from this work. More details at
     http://www.quantum-espresso.org/quote

     Parallel version (MPI), running on   128 processors

     MPI processes distributed on     1 nodes
     243056 MiB available memory on the printing compute node when the environment starts

     Waiting for input...
     Reading input from standard input

     Current dimensions of program PWSCF are:
     Max number of different atomic species (ntypx) = 10
     Max number of k-points (npk) =  40000
     Max angular momentum in pseudopotentials (lmaxx) =  4

     K-points division:     npool     =       4
     R & G space division:  proc/nbgrp/npool/nimage =      32
     Subspace diagonalization in iterative solution of the eigenvalue problem:
     a serial algorithm will be used


     Parallelization info
     --------------------
     sticks:   dense  smooth     PW     G-vecs:    dense   smooth      PW
     Min         166     166     49                 6675     6675    1072
     Max         167     167     50                 6677     6677    1074
     Sum        5313    5313   1575               213653   213653   34327

     Using Slab Decomposition



     bravais-lattice index     =            5
     lattice parameter (alat)  =      14.7021  a.u.
     unit-cell volume          =    2053.1832 (a.u.)^3
     number of atoms/cell      =           36
     number of atomic types    =            2
     number of electrons       =        96.00
     number of Kohn-Sham states=           48
     kinetic-energy cutoff     =      84.0000  Ry
     charge density cutoff     =     336.0000  Ry
     scf convergence threshold =      1.0E-07
     mixing beta               =       0.7000
     number of iterations used =            8  plain     mixing
     Exchange-correlation=  SLA  PW   PBE  PBE
                           (   1   4   3   4   0   0   0)

     celldm(1)=  14.702068  celldm(2)=   0.000000  celldm(3)=   0.000000
     celldm(4)=  -0.392337  celldm(5)=   0.000000  celldm(6)=   0.000000

     crystal axes: (cart. coord. in units of alat)
               a(1) = (   0.834367  -0.481722   0.267909 )  
               a(2) = (   0.000000   0.963444   0.267909 )  
               a(3) = (  -0.834367  -0.481722   0.267909 )  

     reciprocal axes: (cart. coord. in units 2 pi/alat)
               b(1) = (  0.599257 -0.345981  1.244203 )  
               b(2) = ( -0.000000  0.691962  1.244203 )  
               b(3) = ( -0.599257 -0.345981  1.244203 )  


     PseudoPot. # 1 for H  read from file:
     ./H.pbe-van_ak.UPF
     MD5 check sum: 077eb6d537518a38cb46c6de387227b7
     Pseudo is Ultrasoft, Zval =  1.0
     Generated by new atomic code, or converted to UPF format
     Using radial grid of  615 points,  1 beta functions with: 
                l(1) =   0
     Q(r) pseudized with  8 coefficients,  rinner =    0.800

     PseudoPot. # 2 for O  read from file:
     ./O.pbe-van_ak.UPF
     MD5 check sum: 78c19812648e8988a0fe644b0f25305e
     Pseudo is Ultrasoft, Zval =  6.0
     Generated by new atomic code, or converted to UPF format
     Using radial grid of  737 points,  4 beta functions with: 
                l(1) =   0
                l(2) =   0
                l(3) =   1
                l(4) =   1
     Q(r) pseudized with  8 coefficients,  rinner =    0.800   0.800   0.800


     atomic species   valence    mass     pseudopotential
     H                 1.00     1.00800     H ( 1.00)
     O                 6.00    16.00000     O ( 1.00)

      6 Sym. Ops., with inversion, found



   Cartesian axes

     site n.     atom                  positions (alat units)
         1        O      tau(   1) = (  -0.4847673  -0.5197781   0.3083633  )
         2        O      tau(   2) = (   0.4847673   0.5197782   0.4953638  )
         3        O      tau(   3) = (   0.6925247  -0.1599317   0.3083633  )
         4        O      tau(   4) = (  -0.6925248   0.1599317   0.4953638  )
         5        O      tau(   5) = (  -0.2077574   0.6797099   0.3083633  )
         6        O      tau(   6) = (   0.2077574  -0.6797099   0.4953638  )
         7        O      tau(   7) = (   0.1218176   0.3323883   0.4179381  )
         8        O      tau(   8) = (  -0.1218176  -0.3323883   0.3857890  )
         9        O      tau(   9) = (  -0.3487655  -0.0606970   0.4179381  )
        10        O      tau(  10) = (   0.3487655   0.0606970   0.3857890  )
        11        O      tau(  11) = (   0.2269479  -0.2716913   0.4179381  )
        12        O      tau(  12) = (  -0.2269479   0.2716912   0.3857890  )
        13        H      tau(  13) = (  -0.5381668  -0.4032014   0.2796970  )
        14        H      tau(  14) = (   0.5381668   0.4032014   0.5240301  )
        15        H      tau(  15) = (   0.6182661  -0.2644654   0.2796970  )
        16        H      tau(  16) = (  -0.6182661   0.2644654   0.5240301  )
        17        H      tau(  17) = (  -0.0800993   0.6676668   0.2796970  )
        18        H      tau(  18) = (   0.0800993  -0.6676668   0.5240301  )
        19        H      tau(  19) = (  -0.4872704  -0.4817221   0.4326731  )
        20        H      tau(  20) = (   0.4872704   0.4817221   0.3710540  )
        21        H      tau(  21) = (   0.6608188  -0.1811275   0.4326731  )
        22        H      tau(  22) = (  -0.6608188   0.1811275   0.3710540  )
        23        H      tau(  23) = (  -0.1735484   0.6628496   0.4326731  )
        24        H      tau(  24) = (   0.1735484  -0.6628496   0.3710540  )
        25        H      tau(  25) = (   0.2703349  -0.1502973   0.4058822  )
        26        H      tau(  26) = (  -0.2703350   0.1502973   0.3978449  )
        27        H      tau(  27) = (  -0.0050062   0.3092656   0.4058822  )
        28        H      tau(  28) = (   0.0050062  -0.3092656   0.3978449  )
        29        H      tau(  29) = (  -0.2653287  -0.1589683   0.4058822  )
        30        H      tau(  30) = (   0.2653287   0.1589683   0.3978449  )
        31        H      tau(  31) = (   0.3178939  -0.3347969   0.3493534  )
        32        H      tau(  32) = (  -0.3178939   0.3347969   0.4543737  )
        33        H      tau(  33) = (   0.1309957   0.4427026   0.3493534  )
        34        H      tau(  34) = (  -0.1309956  -0.4427026   0.4543737  )
        35        H      tau(  35) = (  -0.4488895  -0.1079057   0.3493534  )
        36        H      tau(  36) = (   0.4488895   0.1079057   0.4543737  )

     number of k points=    14
                       cart. coord. in units 2pi/alat
        k(    1) = (   0.0000000   0.0000000   0.0000000), wk =   0.0312500
        k(    2) = (  -0.1498141  -0.0864952   0.3110508), wk =   0.1875000
        k(    3) = (   0.2996283   0.1729905  -0.6221017), wk =   0.0937500
        k(    4) = (  -0.1498141   0.0864952   0.6221017), wk =   0.1875000
        k(    5) = (   0.2996283   0.3459809  -0.3110508), wk =   0.1875000
        k(    6) = (   0.1498141   0.2594857   0.0000000), wk =   0.1875000
        k(    7) = (   0.2996283  -0.1729905  -1.2442034), wk =   0.0937500
        k(    8) = (   0.0000000   0.0000000   0.9331525), wk =   0.0625000
        k(    9) = (   0.4494424   0.2594857   0.0000000), wk =   0.1875000
        k(   10) = (   0.2996283   0.1729905   0.3110508), wk =   0.1875000
        k(   11) = (   0.4494424  -0.2594857  -0.9331525), wk =   0.1875000
        k(   12) = (   0.2996283  -0.3459809  -0.6221017), wk =   0.1875000
        k(   13) = (   0.0000000   0.0000000  -1.8663050), wk =   0.0312500
        k(   14) = (   0.2996283  -0.3459809   0.3110508), wk =   0.1875000

     Dense  grid:   213653 G-vectors     FFT dimensions: (  90,  90,  90)

     Estimated max dynamical RAM per process >      14.25 MB

     Estimated total dynamical RAM >       1.63 GB

     Initial potential from superposition of free atoms

     starting charge      95.9998, renormalised to      96.0000
     Starting wfcs are   72 randomized atomic wfcs

     total cpu time spent up to now is        1.1 secs

     per-process dynamical memory:    18.8 Mb

     Self-consistent Calculation

     iteration #  1     ecut=    84.00 Ry     beta= 0.70
     Davidson diagonalization with overlap
     ethr =  1.00E-02,  avg # of iterations =  2.0

     total cpu time spent up to now is        1.9 secs

     total energy              =    -412.27999055 Ry
     estimated scf accuracy    <       3.73668861 Ry

     iteration #  2     ecut=    84.00 Ry     beta= 0.70
     Davidson diagonalization with overlap
     ethr =  3.89E-03,  avg # of iterations =  3.0

     total cpu time spent up to now is        2.9 secs

     total energy              =    -413.46167817 Ry
     estimated scf accuracy    <       2.35048884 Ry

     iteration #  3     ecut=    84.00 Ry     beta= 0.70
     Davidson diagonalization with overlap
     ethr =  2.45E-03,  avg # of iterations =  2.0

     negative rho (up, down):  2.651E-08 0.000E+00

     total cpu time spent up to now is        3.7 secs

     total energy              =    -413.76056688 Ry
     estimated scf accuracy    <       0.10031559 Ry

     iteration #  4     ecut=    84.00 Ry     beta= 0.70
     Davidson diagonalization with overlap
     ethr =  1.04E-04,  avg # of iterations =  4.0

     negative rho (up, down):  1.089E-07 0.000E+00

     total cpu time spent up to now is        4.8 secs

     total energy              =    -413.83894909 Ry
     estimated scf accuracy    <       0.11839078 Ry

     iteration #  5     ecut=    84.00 Ry     beta= 0.70
     Davidson diagonalization with overlap
     ethr =  1.04E-04,  avg # of iterations =  2.0

     negative rho (up, down):  1.322E-07 0.000E+00

     total cpu time spent up to now is        5.4 secs

     total energy              =    -413.84250827 Ry
     estimated scf accuracy    <       0.02009923 Ry

     iteration #  6     ecut=    84.00 Ry     beta= 0.70
     Davidson diagonalization with overlap
     ethr =  2.09E-05,  avg # of iterations =  2.0

     negative rho (up, down):  1.537E-07 0.000E+00

     total cpu time spent up to now is        6.1 secs

     total energy              =    -413.84179965 Ry
     estimated scf accuracy    <       0.00691974 Ry

     iteration #  7     ecut=    84.00 Ry     beta= 0.70
     Davidson diagonalization with overlap
     ethr =  7.21E-06,  avg # of iterations =  3.0

     negative rho (up, down):  1.603E-07 0.000E+00

     total cpu time spent up to now is        7.0 secs

     total energy              =    -413.84342501 Ry
     estimated scf accuracy    <       0.00013955 Ry

     iteration #  8     ecut=    84.00 Ry     beta= 0.70
     Davidson diagonalization with overlap
     ethr =  1.45E-07,  avg # of iterations =  6.0

     negative rho (up, down):  1.572E-07 0.000E+00

     total cpu time spent up to now is        8.4 secs

     total energy              =    -413.84346877 Ry
     estimated scf accuracy    <       0.00104588 Ry

     iteration #  9     ecut=    84.00 Ry     beta= 0.70
     Davidson diagonalization with overlap
     ethr =  1.45E-07,  avg # of iterations =  4.0

     negative rho (up, down):  1.511E-07 0.000E+00

     total cpu time spent up to now is        9.4 secs

     total energy              =    -413.84351897 Ry
     estimated scf accuracy    <       0.00010027 Ry

     iteration # 10     ecut=    84.00 Ry     beta= 0.70
     Davidson diagonalization with overlap
     ethr =  1.04E-07,  avg # of iterations =  2.0

     negative rho (up, down):  1.511E-07 0.000E+00

     total cpu time spent up to now is       10.2 secs

     total energy              =    -413.84354303 Ry
     estimated scf accuracy    <       0.00000039 Ry

     iteration # 11     ecut=    84.00 Ry     beta= 0.70
     Davidson diagonalization with overlap
     ethr =  4.01E-10,  avg # of iterations =  5.7

     negative rho (up, down):  1.510E-07 0.000E+00

     total cpu time spent up to now is       11.5 secs

     total energy              =    -413.84354389 Ry
     estimated scf accuracy    <       0.00000018 Ry

     iteration # 12     ecut=    84.00 Ry     beta= 0.70
     Davidson diagonalization with overlap
     ethr =  1.88E-10,  avg # of iterations =  2.0

     negative rho (up, down):  1.512E-07 0.000E+00

     total cpu time spent up to now is       12.1 secs

     total energy              =    -413.84354382 Ry
     estimated scf accuracy    <       0.00000021 Ry

     iteration # 13     ecut=    84.00 Ry     beta= 0.70
     Davidson diagonalization with overlap
     ethr =  1.88E-10,  avg # of iterations =  2.0

     negative rho (up, down):  1.514E-07 0.000E+00

     total cpu time spent up to now is       12.8 secs

     End of self-consistent calculation

          k = 0.0000 0.0000 0.0000 ( 26729 PWs)   bands (ev):

   -20.8683 -20.4062 -20.4062 -20.1815 -20.1815 -20.1544 -20.1544 -20.1380
   -20.1356 -19.8312 -19.8312 -19.5158  -8.2119  -8.0116  -7.9535  -7.9535
    -7.8687  -7.8687  -7.4483  -7.2953  -7.2953  -7.0782  -7.0782  -6.9444
    -6.8802  -5.9794  -5.9794  -5.3891  -5.3891  -5.3111  -5.3111  -5.0117
    -4.8235  -4.1792  -4.1792  -3.5154  -2.8131  -2.8131  -2.7120  -2.6330
    -2.5844  -2.5844  -2.4435  -2.4435  -2.4230  -2.4033  -2.3549  -2.3549

          k =-0.1498-0.0865 0.3111 ( 26698 PWs)   bands (ev):

   -20.7938 -20.4473 -20.3940 -20.3270 -20.3030 -20.2283 -20.0833 -20.0400
   -19.9850 -19.8379 -19.7957 -19.5763  -8.1566  -8.0772  -7.9994  -7.9519
    -7.8510  -7.7887  -7.4463  -7.2654  -7.2505  -7.1133  -6.9845  -6.9484
    -6.7433  -6.1266  -5.9954  -5.7249  -5.4021  -5.2639  -5.1239  -4.8985
    -4.8426  -4.1695  -4.1082  -3.6481  -2.9311  -2.8576  -2.7371  -2.6786
    -2.6217  -2.5856  -2.5435  -2.4797  -2.4149  -2.3758  -2.3404  -2.2926

          k = 0.2996 0.1730-0.6221 ( 26696 PWs)   bands (ev):

   -20.6009 -20.5988 -20.4289 -20.4127 -20.3030 -20.2981 -20.0271 -20.0167
   -19.8453 -19.8415 -19.7329 -19.7127  -8.1319  -8.0738  -7.9891  -7.9673
    -7.8557  -7.7935  -7.3927  -7.2681  -7.2264  -7.1233  -6.9006  -6.8999
    -6.4979  -6.3570  -6.0494  -5.8901  -5.4021  -5.3197  -5.1191  -4.9612
    -4.4269  -4.3062  -4.0464  -3.8177  -3.0379  -2.8785  -2.7629  -2.7340
    -2.6608  -2.6396  -2.5492  -2.4891  -2.4702  -2.3376  -2.3261  -2.2465

          k =-0.1498 0.0865 0.6221 ( 26728 PWs)   bands (ev):

   -20.6425 -20.5050 -20.4950 -20.3749 -20.3527 -20.2866 -20.0328 -19.9508
   -19.9155 -19.7973 -19.7787 -19.6868  -8.1398  -8.0511  -8.0323  -7.9249
    -7.8733  -7.7793  -7.3974  -7.3060  -7.2532  -7.0184  -6.9503  -6.8957
    -6.5033  -6.2893  -6.1910  -5.7201  -5.5460  -5.3623  -5.0429  -4.8361
    -4.6321  -4.1350  -4.1101  -3.8320  -3.0147  -2.9224  -2.7513  -2.7041
    -2.6701  -2.6201  -2.5761  -2.4907  -2.4593  -2.3473  -2.3300  -2.2405

          k = 0.2996 0.3460-0.3111 ( 26684 PWs)   bands (ev):

   -20.6960 -20.5385 -20.4295 -20.4066 -20.3226 -20.2534 -20.0364 -19.9343
   -19.9243 -19.8349 -19.7733 -19.6613  -8.1473  -8.1216  -7.9684  -7.9455
    -7.8851  -7.7887  -7.4306  -7.3687  -7.2418  -6.9858  -6.9546  -6.8834
    -6.6305  -6.3247  -6.0845  -5.7418  -5.7009  -5.1954  -5.0100  -4.7476
    -4.5199  -4.2918  -4.0906  -3.8054  -2.9245  -2.8542  -2.7678  -2.6963
    -2.6421  -2.5897  -2.5285  -2.5192  -2.4339  -2.3933  -2.3325  -2.2278

          k = 0.1498 0.2595 0.0000 ( 26698 PWs)   bands (ev):

   -20.8145 -20.4818 -20.4256 -20.2934 -20.2653 -20.1832 -20.1044 -20.0315
   -19.9912 -19.8426 -19.8064 -19.5639  -8.1957  -8.0901  -7.9906  -7.9450
    -7.8259  -7.8196  -7.5031  -7.3608  -7.1720  -7.0818  -7.0136  -6.9006
    -6.8774  -6.1095  -5.9765  -5.7172  -5.6047  -5.1406  -5.0066  -4.8814
    -4.6968  -4.2487  -4.1570  -3.6069  -2.8145  -2.7940  -2.7497  -2.6622
    -2.6225  -2.5955  -2.4779  -2.4623  -2.4278  -2.4189  -2.3141  -2.2995

          k = 0.2996-0.1730-1.2442 ( 26720 PWs)   bands (ev):

   -20.6850 -20.6472 -20.4407 -20.3435 -20.2652 -20.2066 -20.0488 -20.0131
   -19.8990 -19.8774 -19.6966 -19.6801  -8.1750  -8.1361  -8.0013  -7.9655
    -7.8002  -7.7948  -7.5010  -7.4299  -7.1556  -7.1062  -6.9243  -6.8788
    -6.5614  -6.5189  -6.0484  -5.8277  -5.5122  -5.2619  -4.8813  -4.6270
    -4.5179  -4.4529  -4.0065  -3.8187  -2.8310  -2.7804  -2.7630  -2.6966
    -2.6249  -2.5653  -2.5454  -2.4709  -2.4613  -2.4146  -2.2787  -2.2646

          k = 0.0000 0.0000 0.9332 ( 26678 PWs)   bands (ev):

   -20.5877 -20.5877 -20.5076 -20.4621 -20.2825 -20.2825 -19.9606 -19.9606
   -19.8383 -19.7984 -19.7715 -19.7715  -8.1230  -8.1230  -7.9845  -7.8837
    -7.8837  -7.8745  -7.4395  -7.3364  -7.3364  -6.8924  -6.8924  -6.8540
    -6.4256  -6.4249  -6.4249  -5.7667  -5.4568  -5.4568  -4.7965  -4.6119
    -4.6119  -4.1560  -4.1560  -3.9878  -2.8667  -2.8667  -2.7432  -2.6816
    -2.6137  -2.6137  -2.5564  -2.4925  -2.4925  -2.3787  -2.3787  -2.2036

          k = 0.4494 0.2595 0.0000 ( 26663 PWs)   bands (ev):

   -20.7148 -20.5472 -20.5409 -20.3452 -20.2098 -20.1988 -20.0637 -20.0565
   -19.8997 -19.8052 -19.7708 -19.6505  -8.1690  -8.1255  -8.0569  -7.9018
    -7.8421  -7.7778  -7.5180  -7.3795  -7.2496  -7.0012  -6.9484  -6.9008
    -6.6671  -6.2880  -6.2103  -5.7802  -5.5253  -5.2568  -4.8063  -4.7669
    -4.5614  -4.2593  -4.1195  -3.7917  -2.8126  -2.8050  -2.7509  -2.7013
    -2.6402  -2.5808  -2.5113  -2.4883  -2.4361  -2.3913  -2.3311  -2.2458

          k = 0.2996 0.1730 0.3111 ( 26702 PWs)   bands (ev):

   -20.7434 -20.4931 -20.4033 -20.3907 -20.3021 -20.2439 -20.0508 -20.0214
   -19.9491 -19.8264 -19.7721 -19.6145  -8.1673  -8.1087  -8.0248  -7.8955
    -7.8900  -7.7379  -7.4665  -7.3360  -7.1549  -7.0807  -7.0337  -6.9344
    -6.6581  -6.1310  -5.9567  -5.8719  -5.6428  -5.2909  -4.9950  -4.7941
    -4.6371  -4.2355  -4.0995  -3.6909  -2.9431  -2.8668  -2.7901  -2.7359
    -2.6374  -2.5961  -2.5196  -2.4867  -2.4024  -2.3614  -2.3021  -2.2853

          k = 0.4494-0.2595-0.9332 ( 26675 PWs)   bands (ev):

   -20.6128 -20.6102 -20.4720 -20.4164 -20.2898 -20.2136 -20.0901 -20.0060
   -19.8620 -19.8079 -19.7565 -19.6731  -8.1960  -8.0960  -8.0552  -7.9024
    -7.8553  -7.7185  -7.5125  -7.2947  -7.1737  -7.1175  -6.9703  -6.9401
    -6.3944  -6.3559  -6.0327  -5.8842  -5.6958  -5.3797  -4.9523  -4.6710
    -4.3667  -4.3279  -4.1416  -3.7608  -2.9421  -2.8866  -2.8490  -2.7361
    -2.7005  -2.6122  -2.4688  -2.4467  -2.4151  -2.3745  -2.3041  -2.2493

          k = 0.2996-0.3460-0.6221 ( 26680 PWs)   bands (ev):

   -20.5676 -20.5613 -20.4603 -20.4494 -20.3218 -20.3199 -20.0099 -20.0023
   -19.8500 -19.8421 -19.7271 -19.7061  -8.2097  -8.0096  -7.9793  -7.9602
    -7.9242  -7.7221  -7.4248  -7.3045  -7.1510  -7.1048  -6.9487  -6.9435
    -6.3588  -6.2310  -6.0680  -5.9413  -5.6176  -5.5817  -4.8703  -4.7980
    -4.3739  -4.3311  -4.1498  -3.7445  -3.0685  -2.9014  -2.8466  -2.7758
    -2.7204  -2.5820  -2.5141  -2.4743  -2.4514  -2.3281  -2.3106  -2.2308

          k = 0.0000 0.0000-1.8663 ( 26676 PWs)   bands (ev):

   -20.5356 -20.5167 -20.4231 -20.4231 -20.4215 -20.4215 -19.9349 -19.9349
   -19.9002 -19.9002 -19.7116 -19.6940  -8.2577  -7.9723  -7.9723  -7.9514
    -7.9514  -7.6910  -7.4750  -7.3021  -7.0551  -7.0551  -7.0239  -7.0239
    -6.1826  -6.0037  -5.9456  -5.9456  -5.9401  -5.9401  -4.6500  -4.6500
    -4.4125  -4.4125  -4.1673  -3.6943  -3.1000  -2.9041  -2.9041  -2.8137
    -2.8137  -2.5268  -2.5094  -2.4103  -2.4103  -2.3413  -2.3413  -2.2054

          k = 0.2996-0.3460 0.3111 ( 26684 PWs)   bands (ev):

   -20.6960 -20.5374 -20.4368 -20.4016 -20.3195 -20.2541 -20.0376 -19.9486
   -19.9035 -19.8465 -19.7660 -19.6632  -8.1628  -8.0884  -8.0053  -7.9404
    -7.8578  -7.7956  -7.4784  -7.3371  -7.2174  -7.0243  -6.9183  -6.9043
    -6.6229  -6.2569  -6.1795  -5.7922  -5.5553  -5.2583  -5.0909  -4.6572
    -4.4976  -4.2798  -4.1609  -3.7834  -2.9326  -2.8253  -2.7842  -2.6931
    -2.6480  -2.5950  -2.5295  -2.5190  -2.4516  -2.3621  -2.3332  -2.2362

     highest occupied level (ev):    -2.2036

!    total energy              =    -413.84354382 Ry
     estimated scf accuracy    <       0.00000002 Ry

     The total energy is the sum of the following terms:
     one-electron contribution =    -290.98334247 Ry
     hartree contribution      =     179.94926648 Ry
     xc contribution           =    -101.26487567 Ry
     ewald contribution        =    -201.54459216 Ry

     convergence has been achieved in  13 iterations

     Forces acting on atoms (cartesian axes, Ry/au):

     atom    1 type  2   force =    -0.03447808    0.06354495    0.03062618
     atom    2 type  2   force =     0.03447808   -0.06354495   -0.03062618
     atom    3 type  2   force =    -0.03779250   -0.06163136    0.03062618
     atom    4 type  2   force =     0.03779250    0.06163136   -0.03062618
     atom    5 type  2   force =     0.07227058   -0.00191358    0.03062618
     atom    6 type  2   force =    -0.07227058    0.00191358   -0.03062618
     atom    7 type  2   force =    -0.03066789    0.02380986   -0.02140314
     atom    8 type  2   force =     0.03066789   -0.02380986    0.02140314
     atom    9 type  2   force =    -0.00528600   -0.03846411   -0.02140314
     atom   10 type  2   force =     0.00528600    0.03846411    0.02140314
     atom   11 type  2   force =     0.03595389    0.01465424   -0.02140314
     atom   12 type  2   force =    -0.03595389   -0.01465424    0.02140314
     atom   13 type  1   force =     0.00320151   -0.02592860   -0.05126041
     atom   14 type  1   force =    -0.00320151    0.02592860    0.05126041
     atom   15 type  1   force =     0.02085407    0.01573689   -0.05126041
     atom   16 type  1   force =    -0.02085407   -0.01573689    0.05126041
     atom   17 type  1   force =    -0.02405559    0.01019171   -0.05126041
     atom   18 type  1   force =     0.02405559   -0.01019171    0.05126041
     atom   19 type  1   force =     0.02972593   -0.04470710    0.01012570
     atom   20 type  1   force =    -0.02972593    0.04470710   -0.01012570
     atom   21 type  1   force =     0.02385452    0.04809696    0.01012570
     atom   22 type  1   force =    -0.02385452   -0.04809696   -0.01012570
     atom   23 type  1   force =    -0.05358045   -0.00338986    0.01012570
     atom   24 type  1   force =     0.05358045    0.00338986   -0.01012570
     atom   25 type  1   force =    -0.01370409   -0.00244352    0.01259044
     atom   26 type  1   force =     0.01370409    0.00244352   -0.01259044
     atom   27 type  1   force =     0.00896820   -0.01064633    0.01259044
     atom   28 type  1   force =    -0.00896820    0.01064633   -0.01259044
     atom   29 type  1   force =     0.00473589    0.01308985    0.01259044
     atom   30 type  1   force =    -0.00473589   -0.01308985   -0.01259044
     atom   31 type  1   force =    -0.02873898   -0.00933576    0.01626572
     atom   32 type  1   force =     0.02873898    0.00933576   -0.01626572
     atom   33 type  1   force =     0.02245450   -0.02022081    0.01626572
     atom   34 type  1   force =    -0.02245450    0.02022081   -0.01626572
     atom   35 type  1   force =     0.00628448    0.02955657    0.01626572
     atom   36 type  1   force =    -0.00628448   -0.02955657   -0.01626572

     Total force =     0.309405     Total SCF correction =     0.000140


     Computing stress (Cartesian axis) and pressure

          total   stress  (Ry/bohr**3)                   (kbar)     P=      -25.40
  -0.00024985  -0.00000000   0.00000000          -36.75       -0.00        0.00
   0.00000000  -0.00024985  -0.00000000            0.00      -36.75       -0.00
  -0.00000000  -0.00000000  -0.00001832           -0.00       -0.00       -2.70


     Writing all to output data dir ./iceII_2/iceII_2.save/ :
     XML data file, charge density, pseudopotentials, collected wavefunctions

     init_run     :      0.89s CPU      0.93s WALL (       1 calls)
     electrons    :     11.49s CPU     11.71s WALL (       1 calls)
     forces       :      0.10s CPU      0.12s WALL (       1 calls)
     stress       :      0.79s CPU      0.80s WALL (       1 calls)

     Called by init_run:
     wfcinit      :      0.33s CPU      0.34s WALL (       1 calls)
     potinit      :      0.04s CPU      0.05s WALL (       1 calls)
     hinit0       :      0.39s CPU      0.39s WALL (       1 calls)

     Called by electrons:
     c_bands      :      9.78s CPU      9.89s WALL (      13 calls)
     sum_band     :      1.32s CPU      1.35s WALL (      13 calls)
     v_of_rho     :      0.28s CPU      0.28s WALL (      14 calls)
     newd         :      0.05s CPU      0.05s WALL (      14 calls)
     mix_rho      :      0.04s CPU      0.04s WALL (      13 calls)

     Called by c_bands:
     init_us_2    :      0.14s CPU      0.14s WALL (     116 calls)
     cegterg      :      9.48s CPU      9.57s WALL (      52 calls)

     Called by *egterg:
     cdiaghg      :      0.80s CPU      0.80s WALL (     210 calls)
     h_psi        :      7.42s CPU      7.51s WALL (     214 calls)
     s_psi        :      0.29s CPU      0.29s WALL (     214 calls)
     g_psi        :      0.02s CPU      0.02s WALL (     158 calls)

     Called by h_psi:
     h_psi:calbec :      0.51s CPU      0.51s WALL (     214 calls)
     vloc_psi     :      6.56s CPU      6.65s WALL (     214 calls)
     add_vuspsi   :      0.31s CPU      0.31s WALL (     214 calls)

     General routines
     calbec       :      0.67s CPU      0.67s WALL (     286 calls)
     fft          :      0.51s CPU      0.51s WALL (     162 calls)
     ffts         :      0.01s CPU      0.01s WALL (      13 calls)
     fftw         :      6.82s CPU      6.90s WALL (   18826 calls)

     Parallel routines

     PWSCF        :     13.58s CPU     14.27s WALL


   This run was terminated on:  21:41:24  18Mar2026            

=------------------------------------------------------------------------------=
   JOB DONE.
=------------------------------------------------------------------------------=
