
     Program PWSCF v.7.3.1 starts on 18Mar2026 at 21:42:25 

     This program is part of the open-source Quantum ESPRESSO suite
     for quantum simulation of materials; please cite
         "P. Giannozzi et al., J. Phys.:Condens. Matter 21 395502 (2009);
         "P. Giannozzi et al., J. Phys.:Condens. Matter 29 465901 (2017);
         "P. Giannozzi et al., J. Chem. Phys. 152 154105 (2020);
          URL http://www.quantum-espresso.org", 
     in publications or presentations arising from this work. More details at
     http://www.quantum-espresso.org/quote

     Parallel version (MPI), running on   128 processors

     MPI processes distributed on     1 nodes
     242979 MiB available memory on the printing compute node when the environment starts

     Waiting for input...
     Reading input from standard input

     Current dimensions of program PWSCF are:
     Max number of different atomic species (ntypx) = 10
     Max number of k-points (npk) =  40000
     Max angular momentum in pseudopotentials (lmaxx) =  4

     K-points division:     npool     =       4
     R & G space division:  proc/nbgrp/npool/nimage =      32
     Subspace diagonalization in iterative solution of the eigenvalue problem:
     a serial algorithm will be used


     Parallelization info
     --------------------
     sticks:   dense  smooth     PW     G-vecs:    dense   smooth      PW
     Min         181     181     53                 7644     7644    1212
     Max         182     182     54                 7646     7646    1214
     Sum        5815    5815   1711               244645   244645   38815

     Using Slab Decomposition



     bravais-lattice index     =            5
     lattice parameter (alat)  =      14.7021  a.u.
     unit-cell volume          =    2053.1832 (a.u.)^3
     number of atoms/cell      =           36
     number of atomic types    =            2
     number of electrons       =        96.00
     number of Kohn-Sham states=           48
     kinetic-energy cutoff     =      92.0000  Ry
     charge density cutoff     =     368.0000  Ry
     scf convergence threshold =      1.0E-07
     mixing beta               =       0.7000
     number of iterations used =            8  plain     mixing
     Exchange-correlation=  SLA  PW   PBE  PBE
                           (   1   4   3   4   0   0   0)

     celldm(1)=  14.702068  celldm(2)=   0.000000  celldm(3)=   0.000000
     celldm(4)=  -0.392337  celldm(5)=   0.000000  celldm(6)=   0.000000

     crystal axes: (cart. coord. in units of alat)
               a(1) = (   0.834367  -0.481722   0.267909 )  
               a(2) = (   0.000000   0.963444   0.267909 )  
               a(3) = (  -0.834367  -0.481722   0.267909 )  

     reciprocal axes: (cart. coord. in units 2 pi/alat)
               b(1) = (  0.599257 -0.345981  1.244203 )  
               b(2) = ( -0.000000  0.691962  1.244203 )  
               b(3) = ( -0.599257 -0.345981  1.244203 )  


     PseudoPot. # 1 for H  read from file:
     ./H.pbe-van_ak.UPF
     MD5 check sum: 077eb6d537518a38cb46c6de387227b7
     Pseudo is Ultrasoft, Zval =  1.0
     Generated by new atomic code, or converted to UPF format
     Using radial grid of  615 points,  1 beta functions with: 
                l(1) =   0
     Q(r) pseudized with  8 coefficients,  rinner =    0.800

     PseudoPot. # 2 for O  read from file:
     ./O.pbe-van_ak.UPF
     MD5 check sum: 78c19812648e8988a0fe644b0f25305e
     Pseudo is Ultrasoft, Zval =  6.0
     Generated by new atomic code, or converted to UPF format
     Using radial grid of  737 points,  4 beta functions with: 
                l(1) =   0
                l(2) =   0
                l(3) =   1
                l(4) =   1
     Q(r) pseudized with  8 coefficients,  rinner =    0.800   0.800   0.800


     atomic species   valence    mass     pseudopotential
     H                 1.00     1.00800     H ( 1.00)
     O                 6.00    16.00000     O ( 1.00)

      6 Sym. Ops., with inversion, found



   Cartesian axes

     site n.     atom                  positions (alat units)
         1        O      tau(   1) = (  -0.4847673  -0.5197781   0.3083633  )
         2        O      tau(   2) = (   0.4847673   0.5197782   0.4953638  )
         3        O      tau(   3) = (   0.6925247  -0.1599317   0.3083633  )
         4        O      tau(   4) = (  -0.6925248   0.1599317   0.4953638  )
         5        O      tau(   5) = (  -0.2077574   0.6797099   0.3083633  )
         6        O      tau(   6) = (   0.2077574  -0.6797099   0.4953638  )
         7        O      tau(   7) = (   0.1218176   0.3323883   0.4179381  )
         8        O      tau(   8) = (  -0.1218176  -0.3323883   0.3857890  )
         9        O      tau(   9) = (  -0.3487655  -0.0606970   0.4179381  )
        10        O      tau(  10) = (   0.3487655   0.0606970   0.3857890  )
        11        O      tau(  11) = (   0.2269479  -0.2716913   0.4179381  )
        12        O      tau(  12) = (  -0.2269479   0.2716912   0.3857890  )
        13        H      tau(  13) = (  -0.5381668  -0.4032014   0.2796970  )
        14        H      tau(  14) = (   0.5381668   0.4032014   0.5240301  )
        15        H      tau(  15) = (   0.6182661  -0.2644654   0.2796970  )
        16        H      tau(  16) = (  -0.6182661   0.2644654   0.5240301  )
        17        H      tau(  17) = (  -0.0800993   0.6676668   0.2796970  )
        18        H      tau(  18) = (   0.0800993  -0.6676668   0.5240301  )
        19        H      tau(  19) = (  -0.4872704  -0.4817221   0.4326731  )
        20        H      tau(  20) = (   0.4872704   0.4817221   0.3710540  )
        21        H      tau(  21) = (   0.6608188  -0.1811275   0.4326731  )
        22        H      tau(  22) = (  -0.6608188   0.1811275   0.3710540  )
        23        H      tau(  23) = (  -0.1735484   0.6628496   0.4326731  )
        24        H      tau(  24) = (   0.1735484  -0.6628496   0.3710540  )
        25        H      tau(  25) = (   0.2703349  -0.1502973   0.4058822  )
        26        H      tau(  26) = (  -0.2703350   0.1502973   0.3978449  )
        27        H      tau(  27) = (  -0.0050062   0.3092656   0.4058822  )
        28        H      tau(  28) = (   0.0050062  -0.3092656   0.3978449  )
        29        H      tau(  29) = (  -0.2653287  -0.1589683   0.4058822  )
        30        H      tau(  30) = (   0.2653287   0.1589683   0.3978449  )
        31        H      tau(  31) = (   0.3178939  -0.3347969   0.3493534  )
        32        H      tau(  32) = (  -0.3178939   0.3347969   0.4543737  )
        33        H      tau(  33) = (   0.1309957   0.4427026   0.3493534  )
        34        H      tau(  34) = (  -0.1309956  -0.4427026   0.4543737  )
        35        H      tau(  35) = (  -0.4488895  -0.1079057   0.3493534  )
        36        H      tau(  36) = (   0.4488895   0.1079057   0.4543737  )

     number of k points=    14
                       cart. coord. in units 2pi/alat
        k(    1) = (   0.0000000   0.0000000   0.0000000), wk =   0.0312500
        k(    2) = (  -0.1498141  -0.0864952   0.3110508), wk =   0.1875000
        k(    3) = (   0.2996283   0.1729905  -0.6221017), wk =   0.0937500
        k(    4) = (  -0.1498141   0.0864952   0.6221017), wk =   0.1875000
        k(    5) = (   0.2996283   0.3459809  -0.3110508), wk =   0.1875000
        k(    6) = (   0.1498141   0.2594857   0.0000000), wk =   0.1875000
        k(    7) = (   0.2996283  -0.1729905  -1.2442034), wk =   0.0937500
        k(    8) = (   0.0000000   0.0000000   0.9331525), wk =   0.0625000
        k(    9) = (   0.4494424   0.2594857   0.0000000), wk =   0.1875000
        k(   10) = (   0.2996283   0.1729905   0.3110508), wk =   0.1875000
        k(   11) = (   0.4494424  -0.2594857  -0.9331525), wk =   0.1875000
        k(   12) = (   0.2996283  -0.3459809  -0.6221017), wk =   0.1875000
        k(   13) = (   0.0000000   0.0000000  -1.8663050), wk =   0.0312500
        k(   14) = (   0.2996283  -0.3459809   0.3110508), wk =   0.1875000

     Dense  grid:   244645 G-vectors     FFT dimensions: (  90,  90,  90)

     Estimated max dynamical RAM per process >      15.92 MB

     Estimated total dynamical RAM >       1.82 GB

     Initial potential from superposition of free atoms

     starting charge      95.9998, renormalised to      96.0000
     Starting wfcs are   72 randomized atomic wfcs

     total cpu time spent up to now is        1.2 secs

     per-process dynamical memory:    19.9 Mb

     Self-consistent Calculation

     iteration #  1     ecut=    92.00 Ry     beta= 0.70
     Davidson diagonalization with overlap
     ethr =  1.00E-02,  avg # of iterations =  2.0

     total cpu time spent up to now is        2.1 secs

     total energy              =    -412.28651102 Ry
     estimated scf accuracy    <       3.74264163 Ry

     iteration #  2     ecut=    92.00 Ry     beta= 0.70
     Davidson diagonalization with overlap
     ethr =  3.90E-03,  avg # of iterations =  3.0

     total cpu time spent up to now is        3.2 secs

     total energy              =    -413.47071613 Ry
     estimated scf accuracy    <       2.35429304 Ry

     iteration #  3     ecut=    92.00 Ry     beta= 0.70
     Davidson diagonalization with overlap
     ethr =  2.45E-03,  avg # of iterations =  2.0

     total cpu time spent up to now is        4.0 secs

     total energy              =    -413.76976590 Ry
     estimated scf accuracy    <       0.10091010 Ry

     iteration #  4     ecut=    92.00 Ry     beta= 0.70
     Davidson diagonalization with overlap
     ethr =  1.05E-04,  avg # of iterations =  4.0

     negative rho (up, down):  1.429E-08 0.000E+00

     total cpu time spent up to now is        5.2 secs

     total energy              =    -413.84854381 Ry
     estimated scf accuracy    <       0.11888417 Ry

     iteration #  5     ecut=    92.00 Ry     beta= 0.70
     Davidson diagonalization with overlap
     ethr =  1.05E-04,  avg # of iterations =  2.0

     negative rho (up, down):  8.524E-08 0.000E+00

     total cpu time spent up to now is        5.9 secs

     total energy              =    -413.85209095 Ry
     estimated scf accuracy    <       0.02021184 Ry

     iteration #  6     ecut=    92.00 Ry     beta= 0.70
     Davidson diagonalization with overlap
     ethr =  2.11E-05,  avg # of iterations =  2.0

     negative rho (up, down):  1.542E-07 0.000E+00

     total cpu time spent up to now is        6.6 secs

     total energy              =    -413.85140622 Ry
     estimated scf accuracy    <       0.00692630 Ry

     iteration #  7     ecut=    92.00 Ry     beta= 0.70
     Davidson diagonalization with overlap
     ethr =  7.21E-06,  avg # of iterations =  3.0

     negative rho (up, down):  1.723E-07 0.000E+00

     total cpu time spent up to now is        7.5 secs

     total energy              =    -413.85301984 Ry
     estimated scf accuracy    <       0.00014469 Ry

     iteration #  8     ecut=    92.00 Ry     beta= 0.70
     Davidson diagonalization with overlap
     ethr =  1.51E-07,  avg # of iterations =  6.0

     negative rho (up, down):  1.633E-07 0.000E+00

     total cpu time spent up to now is        9.0 secs

     total energy              =    -413.85307175 Ry
     estimated scf accuracy    <       0.00103426 Ry

     iteration #  9     ecut=    92.00 Ry     beta= 0.70
     Davidson diagonalization with overlap
     ethr =  1.51E-07,  avg # of iterations =  4.0

     negative rho (up, down):  1.443E-07 0.000E+00

     total cpu time spent up to now is       10.1 secs

     total energy              =    -413.85311708 Ry
     estimated scf accuracy    <       0.00010487 Ry

     iteration # 10     ecut=    92.00 Ry     beta= 0.70
     Davidson diagonalization with overlap
     ethr =  1.09E-07,  avg # of iterations =  2.0

     negative rho (up, down):  1.446E-07 0.000E+00

     total cpu time spent up to now is       10.9 secs

     total energy              =    -413.85314284 Ry
     estimated scf accuracy    <       0.00000038 Ry

     iteration # 11     ecut=    92.00 Ry     beta= 0.70
     Davidson diagonalization with overlap
     ethr =  3.91E-10,  avg # of iterations =  5.6

     negative rho (up, down):  1.440E-07 0.000E+00

     total cpu time spent up to now is       12.2 secs

     total energy              =    -413.85314371 Ry
     estimated scf accuracy    <       0.00000011 Ry

     iteration # 12     ecut=    92.00 Ry     beta= 0.70
     Davidson diagonalization with overlap
     ethr =  1.12E-10,  avg # of iterations =  2.0

     negative rho (up, down):  1.447E-07 0.000E+00

     total cpu time spent up to now is       13.0 secs

     total energy              =    -413.85314365 Ry
     estimated scf accuracy    <       0.00000021 Ry

     iteration # 13     ecut=    92.00 Ry     beta= 0.70
     Davidson diagonalization with overlap
     ethr =  1.12E-10,  avg # of iterations =  2.0

     negative rho (up, down):  1.451E-07 0.000E+00

     total cpu time spent up to now is       13.9 secs

     End of self-consistent calculation

          k = 0.0000 0.0000 0.0000 ( 30607 PWs)   bands (ev):

   -20.8669 -20.4047 -20.4047 -20.1799 -20.1799 -20.1528 -20.1528 -20.1364
   -20.1340 -19.8296 -19.8296 -19.5142  -8.2128  -8.0124  -7.9543  -7.9543
    -7.8697  -7.8697  -7.4486  -7.2960  -7.2960  -7.0789  -7.0789  -6.9451
    -6.8808  -5.9798  -5.9798  -5.3896  -5.3896  -5.3117  -5.3117  -5.0122
    -4.8242  -4.1797  -4.1797  -3.5161  -2.8126  -2.8126  -2.7119  -2.6327
    -2.5841  -2.5841  -2.4431  -2.4431  -2.4226  -2.4029  -2.3544  -2.3544

          k =-0.1498-0.0865 0.3111 ( 30612 PWs)   bands (ev):

   -20.7923 -20.4457 -20.3925 -20.3254 -20.3015 -20.2268 -20.0817 -20.0384
   -19.9834 -19.8363 -19.7941 -19.5747  -8.1575  -8.0780  -8.0003  -7.9528
    -7.8520  -7.7896  -7.4469  -7.2660  -7.2511  -7.1140  -6.9852  -6.9490
    -6.7439  -6.1271  -5.9959  -5.7254  -5.4026  -5.2644  -5.1243  -4.8991
    -4.8432  -4.1701  -4.1088  -3.6488  -2.9307  -2.8572  -2.7369  -2.6781
    -2.6214  -2.5854  -2.5431  -2.4794  -2.4145  -2.3754  -2.3399  -2.2922

          k = 0.2996 0.1730-0.6221 ( 30618 PWs)   bands (ev):

   -20.5994 -20.5973 -20.4274 -20.4112 -20.3015 -20.2966 -20.0255 -20.0152
   -19.8437 -19.8399 -19.7313 -19.7111  -8.1328  -8.0747  -7.9899  -7.9682
    -7.8565  -7.7944  -7.3933  -7.2687  -7.2269  -7.1240  -6.9014  -6.9007
    -6.4984  -6.3575  -6.0499  -5.8905  -5.4026  -5.3202  -5.1197  -4.9618
    -4.4277  -4.3067  -4.0470  -3.8182  -3.0374  -2.8781  -2.7626  -2.7338
    -2.6606  -2.6394  -2.5488  -2.4886  -2.4699  -2.3371  -2.3257  -2.2461

          k =-0.1498 0.0865 0.6221 ( 30599 PWs)   bands (ev):

   -20.6410 -20.5035 -20.4934 -20.3734 -20.3512 -20.2851 -20.0312 -19.9492
   -19.9140 -19.7957 -19.7771 -19.6852  -8.1407  -8.0519  -8.0332  -7.9257
    -7.8741  -7.7802  -7.3980  -7.3066  -7.2538  -7.0191  -6.9510  -6.8964
    -6.5038  -6.2897  -6.1915  -5.7205  -5.5465  -5.3628  -5.0434  -4.8367
    -4.6327  -4.1356  -4.1107  -3.8325  -3.0142  -2.9219  -2.7509  -2.7039
    -2.6699  -2.6198  -2.5757  -2.4903  -2.4588  -2.3468  -2.3296  -2.2400

          k = 0.2996 0.3460-0.3111 ( 30594 PWs)   bands (ev):

   -20.6945 -20.5370 -20.4279 -20.4050 -20.3210 -20.2518 -20.0348 -19.9327
   -19.9227 -19.8334 -19.7717 -19.6597  -8.1482  -8.1225  -7.9693  -7.9464
    -7.8859  -7.7895  -7.4312  -7.3693  -7.2425  -6.9865  -6.9553  -6.8842
    -6.6310  -6.3252  -6.0851  -5.7423  -5.7014  -5.1959  -5.0105  -4.7483
    -4.5204  -4.2924  -4.0912  -3.8060  -2.9241  -2.8538  -2.7675  -2.6960
    -2.6419  -2.5894  -2.5281  -2.5188  -2.4335  -2.3928  -2.3321  -2.2274

          k = 0.1498 0.2595 0.0000 ( 30593 PWs)   bands (ev):

   -20.8130 -20.4802 -20.4240 -20.2919 -20.2638 -20.1816 -20.1028 -20.0299
   -19.9896 -19.8410 -19.8048 -19.5623  -8.1966  -8.0909  -7.9915  -7.9459
    -7.8268  -7.8205  -7.5036  -7.3614  -7.1726  -7.0824  -7.0142  -6.9012
    -6.8781  -6.1100  -5.9770  -5.7177  -5.6051  -5.1411  -5.0072  -4.8820
    -4.6974  -4.2493  -4.1576  -3.6076  -2.8141  -2.7936  -2.7495  -2.6619
    -2.6222  -2.5952  -2.4776  -2.4620  -2.4274  -2.4185  -2.3137  -2.2991

          k = 0.2996-0.1730-1.2442 ( 30550 PWs)   bands (ev):

   -20.6835 -20.6457 -20.4392 -20.3420 -20.2636 -20.2050 -20.0472 -20.0115
   -19.8974 -19.8758 -19.6950 -19.6785  -8.1759  -8.1370  -8.0021  -7.9665
    -7.8010  -7.7957  -7.5015  -7.4305  -7.1561  -7.1068  -6.9249  -6.8795
    -6.5619  -6.5194  -6.0489  -5.8282  -5.5126  -5.2623  -4.8819  -4.6277
    -4.5185  -4.4533  -4.0072  -3.8192  -2.8306  -2.7801  -2.7625  -2.6963
    -2.6246  -2.5650  -2.5450  -2.4706  -2.4608  -2.4141  -2.2783  -2.2642

          k = 0.0000 0.0000 0.9332 ( 30639 PWs)   bands (ev):

   -20.5862 -20.5862 -20.5061 -20.4606 -20.2810 -20.2810 -19.9590 -19.9590
   -19.8367 -19.7968 -19.7699 -19.7699  -8.1239  -8.1239  -7.9856  -7.8845
    -7.8845  -7.8752  -7.4401  -7.3371  -7.3371  -6.8931  -6.8931  -6.8548
    -6.4260  -6.4254  -6.4254  -5.7673  -5.4573  -5.4573  -4.7970  -4.6125
    -4.6125  -4.1567  -4.1567  -3.9882  -2.8663  -2.8663  -2.7430  -2.6812
    -2.6135  -2.6135  -2.5562  -2.4921  -2.4921  -2.3783  -2.3783  -2.2032

          k = 0.4494 0.2595 0.0000 ( 30560 PWs)   bands (ev):

   -20.7133 -20.5457 -20.5394 -20.3436 -20.2083 -20.1973 -20.0621 -20.0549
   -19.8981 -19.8036 -19.7692 -19.6489  -8.1699  -8.1264  -8.0579  -7.9027
    -7.8430  -7.7787  -7.5186  -7.3801  -7.2501  -7.0018  -6.9491  -6.9015
    -6.6677  -6.2885  -6.2109  -5.7807  -5.5258  -5.2573  -4.8069  -4.7675
    -4.5620  -4.2599  -4.1202  -3.7923  -2.8123  -2.8047  -2.7505  -2.7011
    -2.6399  -2.5805  -2.5110  -2.4880  -2.4357  -2.3909  -2.3307  -2.2454

          k = 0.2996 0.1730 0.3111 ( 30605 PWs)   bands (ev):

   -20.7419 -20.4916 -20.4018 -20.3892 -20.3005 -20.2424 -20.0492 -20.0198
   -19.9476 -19.8248 -19.7705 -19.6129  -8.1682  -8.1096  -8.0256  -7.8964
    -7.8909  -7.7388  -7.4671  -7.3365  -7.1556  -7.0814  -7.0344  -6.9351
    -6.6586  -6.1315  -5.9572  -5.8724  -5.6433  -5.2914  -4.9954  -4.7947
    -4.6376  -4.2361  -4.1002  -3.6915  -2.9426  -2.8664  -2.7898  -2.7355
    -2.6372  -2.5958  -2.5193  -2.4862  -2.4019  -2.3610  -2.3017  -2.2849

          k = 0.4494-0.2595-0.9332 ( 30567 PWs)   bands (ev):

   -20.6113 -20.6087 -20.4705 -20.4148 -20.2883 -20.2121 -20.0885 -20.0044
   -19.8604 -19.8063 -19.7549 -19.6714  -8.1969  -8.0969  -8.0560  -7.9032
    -7.8562  -7.7193  -7.5131  -7.2953  -7.1743  -7.1181  -6.9710  -6.9409
    -6.3950  -6.3563  -6.0332  -5.8847  -5.6963  -5.3802  -4.9529  -4.6716
    -4.3673  -4.3286  -4.1423  -3.7613  -2.9417  -2.8863  -2.8486  -2.7358
    -2.7002  -2.6119  -2.4684  -2.4463  -2.4146  -2.3741  -2.3038  -2.2489

          k = 0.2996-0.3460-0.6221 ( 30616 PWs)   bands (ev):

   -20.5661 -20.5598 -20.4588 -20.4479 -20.3203 -20.3184 -20.0083 -20.0008
   -19.8485 -19.8405 -19.7255 -19.7045  -8.2106  -8.0105  -7.9802  -7.9611
    -7.9251  -7.7230  -7.4254  -7.3051  -7.1517  -7.1055  -6.9495  -6.9442
    -6.3593  -6.2315  -6.0685  -5.9418  -5.6181  -5.5822  -4.8709  -4.7986
    -4.3744  -4.3316  -4.1505  -3.7450  -3.0681  -2.9010  -2.8462  -2.7755
    -2.7202  -2.5817  -2.5137  -2.4739  -2.4509  -2.3276  -2.3103  -2.2305

          k = 0.0000 0.0000-1.8663 ( 30534 PWs)   bands (ev):

   -20.5341 -20.5151 -20.4216 -20.4216 -20.4200 -20.4200 -19.9333 -19.9333
   -19.8986 -19.8986 -19.7100 -19.6924  -8.2586  -7.9732  -7.9732  -7.9522
    -7.9522  -7.6918  -7.4757  -7.3028  -7.0557  -7.0557  -7.0246  -7.0246
    -6.1833  -6.0042  -5.9461  -5.9461  -5.9405  -5.9405  -4.6506  -4.6506
    -4.4130  -4.4130  -4.1681  -3.6948  -3.0996  -2.9037  -2.9037  -2.8134
    -2.8134  -2.5264  -2.5091  -2.4098  -2.4098  -2.3409  -2.3409  -2.2050

          k = 0.2996-0.3460 0.3111 ( 30594 PWs)   bands (ev):

   -20.6945 -20.5359 -20.4353 -20.4000 -20.3180 -20.2526 -20.0360 -19.9471
   -19.9019 -19.8449 -19.7644 -19.6616  -8.1637  -8.0892  -8.0062  -7.9414
    -7.8586  -7.7965  -7.4790  -7.3376  -7.2180  -7.0249  -6.9190  -6.9051
    -6.6234  -6.2574  -6.1800  -5.7928  -5.5558  -5.2588  -5.0914  -4.6578
    -4.4982  -4.2804  -4.1615  -3.7840  -2.9321  -2.8249  -2.7838  -2.6928
    -2.6477  -2.5948  -2.5293  -2.5186  -2.4511  -2.3616  -2.3329  -2.2358

     highest occupied level (ev):    -2.2032

!    total energy              =    -413.85314365 Ry
     estimated scf accuracy    <       0.00000002 Ry

     The total energy is the sum of the following terms:
     one-electron contribution =    -291.00220474 Ry
     hartree contribution      =     179.96045016 Ry
     xc contribution           =    -101.26679691 Ry
     ewald contribution        =    -201.54459216 Ry

     convergence has been achieved in  13 iterations

     Forces acting on atoms (cartesian axes, Ry/au):

     atom    1 type  2   force =    -0.03444149    0.06362425    0.03053059
     atom    2 type  2   force =     0.03444149   -0.06362425   -0.03053059
     atom    3 type  2   force =    -0.03787947   -0.06163933    0.03053059
     atom    4 type  2   force =     0.03787947    0.06163933   -0.03053059
     atom    5 type  2   force =     0.07232096   -0.00198492    0.03053059
     atom    6 type  2   force =    -0.07232096    0.00198492   -0.03053059
     atom    7 type  2   force =    -0.03076378    0.02374977   -0.02143044
     atom    8 type  2   force =     0.03076378   -0.02374977    0.02143044
     atom    9 type  2   force =    -0.00518601   -0.03851710   -0.02143044
     atom   10 type  2   force =     0.00518601    0.03851710    0.02143044
     atom   11 type  2   force =     0.03594979    0.01476733   -0.02143044
     atom   12 type  2   force =    -0.03594979   -0.01476733    0.02143044
     atom   13 type  1   force =     0.00318292   -0.02592236   -0.05126978
     atom   14 type  1   force =    -0.00318292    0.02592236    0.05126978
     atom   15 type  1   force =     0.02085796    0.01571767   -0.05126978
     atom   16 type  1   force =    -0.02085796   -0.01571767    0.05126978
     atom   17 type  1   force =    -0.02404088    0.01020469   -0.05126978
     atom   18 type  1   force =     0.02404088   -0.01020469    0.05126978
     atom   19 type  1   force =     0.02973425   -0.04473140    0.01015759
     atom   20 type  1   force =    -0.02973425    0.04473140   -0.01015759
     atom   21 type  1   force =     0.02387141    0.04811631    0.01015759
     atom   22 type  1   force =    -0.02387141   -0.04811631   -0.01015759
     atom   23 type  1   force =    -0.05360565   -0.00338491    0.01015759
     atom   24 type  1   force =     0.05360565    0.00338491   -0.01015759
     atom   25 type  1   force =    -0.01371214   -0.00244750    0.01259499
     atom   26 type  1   force =     0.01371214    0.00244750   -0.01259499
     atom   27 type  1   force =     0.00897567   -0.01065131    0.01259499
     atom   28 type  1   force =    -0.00897567    0.01065131   -0.01259499
     atom   29 type  1   force =     0.00473648    0.01309881    0.01259499
     atom   30 type  1   force =    -0.00473648   -0.01309881   -0.01259499
     atom   31 type  1   force =    -0.02871751   -0.00935324    0.01626189
     atom   32 type  1   force =     0.02871751    0.00935324   -0.01626189
     atom   33 type  1   force =     0.02245890   -0.02019347    0.01626189
     atom   34 type  1   force =    -0.02245890    0.02019347   -0.01626189
     atom   35 type  1   force =     0.00625861    0.02954671    0.01626189
     atom   36 type  1   force =    -0.00625861   -0.02954671   -0.01626189

     Total force =     0.309493     Total SCF correction =     0.000143


     Computing stress (Cartesian axis) and pressure

          total   stress  (Ry/bohr**3)                   (kbar)     P=      -20.86
  -0.00021936  -0.00000000   0.00000000          -32.27       -0.00        0.00
   0.00000000  -0.00021936  -0.00000000            0.00      -32.27       -0.00
  -0.00000000  -0.00000000   0.00001327           -0.00       -0.00        1.95


     Writing all to output data dir ./iceII_2/iceII_2.save/ :
     XML data file, charge density, pseudopotentials, collected wavefunctions

     init_run     :      0.96s CPU      1.00s WALL (       1 calls)
     electrons    :     12.55s CPU     12.72s WALL (       1 calls)
     forces       :      0.14s CPU      0.15s WALL (       1 calls)
     stress       :      0.89s CPU      0.91s WALL (       1 calls)

     Called by init_run:
     wfcinit      :      0.36s CPU      0.36s WALL (       1 calls)
     potinit      :      0.04s CPU      0.05s WALL (       1 calls)
     hinit0       :      0.39s CPU      0.39s WALL (       1 calls)

     Called by electrons:
     c_bands      :     10.59s CPU     10.68s WALL (      13 calls)
     sum_band     :      1.41s CPU      1.44s WALL (      13 calls)
     v_of_rho     :      0.34s CPU      0.37s WALL (      14 calls)
     newd         :      0.10s CPU      0.11s WALL (      14 calls)
     mix_rho      :      0.05s CPU      0.05s WALL (      13 calls)

     Called by c_bands:
     init_us_2    :      0.17s CPU      0.18s WALL (     116 calls)
     cegterg      :     10.21s CPU     10.26s WALL (      52 calls)

     Called by *egterg:
     cdiaghg      :      0.81s CPU      0.82s WALL (     210 calls)
     h_psi        :      7.91s CPU      7.95s WALL (     214 calls)
     s_psi        :      0.34s CPU      0.34s WALL (     214 calls)
     g_psi        :      0.02s CPU      0.02s WALL (     158 calls)

     Called by h_psi:
     h_psi:calbec :      0.57s CPU      0.58s WALL (     214 calls)
     vloc_psi     :      6.93s CPU      6.97s WALL (     214 calls)
     add_vuspsi   :      0.36s CPU      0.36s WALL (     214 calls)

     General routines
     calbec       :      0.76s CPU      0.77s WALL (     286 calls)
     fft          :      0.60s CPU      0.63s WALL (     162 calls)
     ffts         :      0.02s CPU      0.02s WALL (      13 calls)
     fftw         :      7.20s CPU      7.24s WALL (   19200 calls)

     Parallel routines

     PWSCF        :     14.83s CPU     15.41s WALL


   This run was terminated on:  21:42:41  18Mar2026            

=------------------------------------------------------------------------------=
   JOB DONE.
=------------------------------------------------------------------------------=
