
     Program PWSCF v.7.3.1 starts on 18Mar2026 at 21:40:47 

     This program is part of the open-source Quantum ESPRESSO suite
     for quantum simulation of materials; please cite
         "P. Giannozzi et al., J. Phys.:Condens. Matter 21 395502 (2009);
         "P. Giannozzi et al., J. Phys.:Condens. Matter 29 465901 (2017);
         "P. Giannozzi et al., J. Chem. Phys. 152 154105 (2020);
          URL http://www.quantum-espresso.org", 
     in publications or presentations arising from this work. More details at
     http://www.quantum-espresso.org/quote

     Parallel version (MPI), running on   128 processors

     MPI processes distributed on     1 nodes
     243083 MiB available memory on the printing compute node when the environment starts

     Waiting for input...
     Reading input from standard input

     Current dimensions of program PWSCF are:
     Max number of different atomic species (ntypx) = 10
     Max number of k-points (npk) =  40000
     Max angular momentum in pseudopotentials (lmaxx) =  4

     K-points division:     npool     =       4
     R & G space division:  proc/nbgrp/npool/nimage =      32
     Subspace diagonalization in iterative solution of the eigenvalue problem:
     a serial algorithm will be used


     Parallelization info
     --------------------
     sticks:   dense  smooth     PW     G-vecs:    dense   smooth      PW
     Min         162     162     47                 6434     6434    1033
     Max         163     163     48                 6437     6437    1036
     Sum        5189    5189   1531               205937   205937   33127

     Using Slab Decomposition



     bravais-lattice index     =            5
     lattice parameter (alat)  =      14.7021  a.u.
     unit-cell volume          =    2053.1832 (a.u.)^3
     number of atoms/cell      =           36
     number of atomic types    =            2
     number of electrons       =        96.00
     number of Kohn-Sham states=           48
     kinetic-energy cutoff     =      82.0000  Ry
     charge density cutoff     =     328.0000  Ry
     scf convergence threshold =      1.0E-07
     mixing beta               =       0.7000
     number of iterations used =            8  plain     mixing
     Exchange-correlation=  SLA  PW   PBE  PBE
                           (   1   4   3   4   0   0   0)

     celldm(1)=  14.702068  celldm(2)=   0.000000  celldm(3)=   0.000000
     celldm(4)=  -0.392337  celldm(5)=   0.000000  celldm(6)=   0.000000

     crystal axes: (cart. coord. in units of alat)
               a(1) = (   0.834367  -0.481722   0.267909 )  
               a(2) = (   0.000000   0.963444   0.267909 )  
               a(3) = (  -0.834367  -0.481722   0.267909 )  

     reciprocal axes: (cart. coord. in units 2 pi/alat)
               b(1) = (  0.599257 -0.345981  1.244203 )  
               b(2) = ( -0.000000  0.691962  1.244203 )  
               b(3) = ( -0.599257 -0.345981  1.244203 )  


     PseudoPot. # 1 for H  read from file:
     ./H.pbe-van_ak.UPF
     MD5 check sum: 077eb6d537518a38cb46c6de387227b7
     Pseudo is Ultrasoft, Zval =  1.0
     Generated by new atomic code, or converted to UPF format
     Using radial grid of  615 points,  1 beta functions with: 
                l(1) =   0
     Q(r) pseudized with  8 coefficients,  rinner =    0.800

     PseudoPot. # 2 for O  read from file:
     ./O.pbe-van_ak.UPF
     MD5 check sum: 78c19812648e8988a0fe644b0f25305e
     Pseudo is Ultrasoft, Zval =  6.0
     Generated by new atomic code, or converted to UPF format
     Using radial grid of  737 points,  4 beta functions with: 
                l(1) =   0
                l(2) =   0
                l(3) =   1
                l(4) =   1
     Q(r) pseudized with  8 coefficients,  rinner =    0.800   0.800   0.800


     atomic species   valence    mass     pseudopotential
     H                 1.00     1.00800     H ( 1.00)
     O                 6.00    16.00000     O ( 1.00)

      6 Sym. Ops., with inversion, found



   Cartesian axes

     site n.     atom                  positions (alat units)
         1        O      tau(   1) = (  -0.4847673  -0.5197781   0.3083633  )
         2        O      tau(   2) = (   0.4847673   0.5197782   0.4953638  )
         3        O      tau(   3) = (   0.6925247  -0.1599317   0.3083633  )
         4        O      tau(   4) = (  -0.6925248   0.1599317   0.4953638  )
         5        O      tau(   5) = (  -0.2077574   0.6797099   0.3083633  )
         6        O      tau(   6) = (   0.2077574  -0.6797099   0.4953638  )
         7        O      tau(   7) = (   0.1218176   0.3323883   0.4179381  )
         8        O      tau(   8) = (  -0.1218176  -0.3323883   0.3857890  )
         9        O      tau(   9) = (  -0.3487655  -0.0606970   0.4179381  )
        10        O      tau(  10) = (   0.3487655   0.0606970   0.3857890  )
        11        O      tau(  11) = (   0.2269479  -0.2716913   0.4179381  )
        12        O      tau(  12) = (  -0.2269479   0.2716912   0.3857890  )
        13        H      tau(  13) = (  -0.5381668  -0.4032014   0.2796970  )
        14        H      tau(  14) = (   0.5381668   0.4032014   0.5240301  )
        15        H      tau(  15) = (   0.6182661  -0.2644654   0.2796970  )
        16        H      tau(  16) = (  -0.6182661   0.2644654   0.5240301  )
        17        H      tau(  17) = (  -0.0800993   0.6676668   0.2796970  )
        18        H      tau(  18) = (   0.0800993  -0.6676668   0.5240301  )
        19        H      tau(  19) = (  -0.4872704  -0.4817221   0.4326731  )
        20        H      tau(  20) = (   0.4872704   0.4817221   0.3710540  )
        21        H      tau(  21) = (   0.6608188  -0.1811275   0.4326731  )
        22        H      tau(  22) = (  -0.6608188   0.1811275   0.3710540  )
        23        H      tau(  23) = (  -0.1735484   0.6628496   0.4326731  )
        24        H      tau(  24) = (   0.1735484  -0.6628496   0.3710540  )
        25        H      tau(  25) = (   0.2703349  -0.1502973   0.4058822  )
        26        H      tau(  26) = (  -0.2703350   0.1502973   0.3978449  )
        27        H      tau(  27) = (  -0.0050062   0.3092656   0.4058822  )
        28        H      tau(  28) = (   0.0050062  -0.3092656   0.3978449  )
        29        H      tau(  29) = (  -0.2653287  -0.1589683   0.4058822  )
        30        H      tau(  30) = (   0.2653287   0.1589683   0.3978449  )
        31        H      tau(  31) = (   0.3178939  -0.3347969   0.3493534  )
        32        H      tau(  32) = (  -0.3178939   0.3347969   0.4543737  )
        33        H      tau(  33) = (   0.1309957   0.4427026   0.3493534  )
        34        H      tau(  34) = (  -0.1309956  -0.4427026   0.4543737  )
        35        H      tau(  35) = (  -0.4488895  -0.1079057   0.3493534  )
        36        H      tau(  36) = (   0.4488895   0.1079057   0.4543737  )

     number of k points=    14
                       cart. coord. in units 2pi/alat
        k(    1) = (   0.0000000   0.0000000   0.0000000), wk =   0.0312500
        k(    2) = (  -0.1498141  -0.0864952   0.3110508), wk =   0.1875000
        k(    3) = (   0.2996283   0.1729905  -0.6221017), wk =   0.0937500
        k(    4) = (  -0.1498141   0.0864952   0.6221017), wk =   0.1875000
        k(    5) = (   0.2996283   0.3459809  -0.3110508), wk =   0.1875000
        k(    6) = (   0.1498141   0.2594857   0.0000000), wk =   0.1875000
        k(    7) = (   0.2996283  -0.1729905  -1.2442034), wk =   0.0937500
        k(    8) = (   0.0000000   0.0000000   0.9331525), wk =   0.0625000
        k(    9) = (   0.4494424   0.2594857   0.0000000), wk =   0.1875000
        k(   10) = (   0.2996283   0.1729905   0.3110508), wk =   0.1875000
        k(   11) = (   0.4494424  -0.2594857  -0.9331525), wk =   0.1875000
        k(   12) = (   0.2996283  -0.3459809  -0.6221017), wk =   0.1875000
        k(   13) = (   0.0000000   0.0000000  -1.8663050), wk =   0.0312500
        k(   14) = (   0.2996283  -0.3459809   0.3110508), wk =   0.1875000

     Dense  grid:   205937 G-vectors     FFT dimensions: (  90,  90,  90)

     Estimated max dynamical RAM per process >      13.83 MB

     Estimated total dynamical RAM >       1.58 GB

     Initial potential from superposition of free atoms

     starting charge      95.9998, renormalised to      96.0000
     Starting wfcs are   72 randomized atomic wfcs

     total cpu time spent up to now is        1.1 secs

     per-process dynamical memory:    18.5 Mb

     Self-consistent Calculation

     iteration #  1     ecut=    82.00 Ry     beta= 0.70
     Davidson diagonalization with overlap
     ethr =  1.00E-02,  avg # of iterations =  2.0

     total cpu time spent up to now is        1.9 secs

     total energy              =    -412.27692404 Ry
     estimated scf accuracy    <       3.73497679 Ry

     iteration #  2     ecut=    82.00 Ry     beta= 0.70
     Davidson diagonalization with overlap
     ethr =  3.89E-03,  avg # of iterations =  3.0

     total cpu time spent up to now is        2.9 secs

     total energy              =    -413.45821718 Ry
     estimated scf accuracy    <       2.34969792 Ry

     iteration #  3     ecut=    82.00 Ry     beta= 0.70
     Davidson diagonalization with overlap
     ethr =  2.45E-03,  avg # of iterations =  2.0

     total cpu time spent up to now is        3.6 secs

     total energy              =    -413.75679804 Ry
     estimated scf accuracy    <       0.10025636 Ry

     iteration #  4     ecut=    82.00 Ry     beta= 0.70
     Davidson diagonalization with overlap
     ethr =  1.04E-04,  avg # of iterations =  4.0

     total cpu time spent up to now is        4.7 secs

     total energy              =    -413.83516551 Ry
     estimated scf accuracy    <       0.11851071 Ry

     iteration #  5     ecut=    82.00 Ry     beta= 0.70
     Davidson diagonalization with overlap
     ethr =  1.04E-04,  avg # of iterations =  2.0

     total cpu time spent up to now is        5.4 secs

     total energy              =    -413.83875196 Ry
     estimated scf accuracy    <       0.02004452 Ry

     iteration #  6     ecut=    82.00 Ry     beta= 0.70
     Davidson diagonalization with overlap
     ethr =  2.09E-05,  avg # of iterations =  2.0

     total cpu time spent up to now is        6.1 secs

     total energy              =    -413.83812287 Ry
     estimated scf accuracy    <       0.00676881 Ry

     iteration #  7     ecut=    82.00 Ry     beta= 0.70
     Davidson diagonalization with overlap
     ethr =  7.05E-06,  avg # of iterations =  3.0

     total cpu time spent up to now is        6.9 secs

     total energy              =    -413.83972117 Ry
     estimated scf accuracy    <       0.00013061 Ry

     iteration #  8     ecut=    82.00 Ry     beta= 0.70
     Davidson diagonalization with overlap
     ethr =  1.36E-07,  avg # of iterations =  6.0

     total cpu time spent up to now is        8.2 secs

     total energy              =    -413.83976372 Ry
     estimated scf accuracy    <       0.00095137 Ry

     iteration #  9     ecut=    82.00 Ry     beta= 0.70
     Davidson diagonalization with overlap
     ethr =  1.36E-07,  avg # of iterations =  4.0

     total cpu time spent up to now is        9.2 secs

     total energy              =    -413.83979899 Ry
     estimated scf accuracy    <       0.00010598 Ry

     iteration # 10     ecut=    82.00 Ry     beta= 0.70
     Davidson diagonalization with overlap
     ethr =  1.10E-07,  avg # of iterations =  2.0

     total cpu time spent up to now is       10.0 secs

     total energy              =    -413.83982369 Ry
     estimated scf accuracy    <       0.00000062 Ry

     iteration # 11     ecut=    82.00 Ry     beta= 0.70
     Davidson diagonalization with overlap
     ethr =  6.45E-10,  avg # of iterations =  5.0

     total cpu time spent up to now is       11.1 secs

     End of self-consistent calculation

          k = 0.0000 0.0000 0.0000 ( 25763 PWs)   bands (ev):

   -20.8685 -20.4065 -20.4065 -20.1817 -20.1817 -20.1546 -20.1546 -20.1383
   -20.1358 -19.8315 -19.8315 -19.5160  -8.2112  -8.0110  -7.9529  -7.9529
    -7.8680  -7.8680  -7.4478  -7.2947  -7.2947  -7.0776  -7.0776  -6.9438
    -6.8795  -5.9788  -5.9788  -5.3885  -5.3885  -5.3106  -5.3106  -5.0111
    -4.8230  -4.1785  -4.1785  -3.5146  -2.8125  -2.8125  -2.7115  -2.6325
    -2.5839  -2.5839  -2.4430  -2.4430  -2.4226  -2.4027  -2.3544  -2.3544

          k =-0.1498-0.0865 0.3111 ( 25754 PWs)   bands (ev):

   -20.7940 -20.4475 -20.3942 -20.3272 -20.3032 -20.2286 -20.0835 -20.0402
   -19.9852 -19.8381 -19.7959 -19.5765  -8.1559  -8.0765  -7.9988  -7.9513
    -7.8504  -7.7881  -7.4458  -7.2648  -7.2499  -7.1127  -6.9838  -6.9477
    -6.7427  -6.1261  -5.9949  -5.7243  -5.4015  -5.2633  -5.1233  -4.8979
    -4.8420  -4.1689  -4.1076  -3.6474  -2.9306  -2.8571  -2.7365  -2.6781
    -2.6213  -2.5851  -2.5430  -2.4792  -2.4144  -2.3754  -2.3399  -2.2921

          k = 0.2996 0.1730-0.6221 ( 25746 PWs)   bands (ev):

   -20.6011 -20.5990 -20.4292 -20.4130 -20.3033 -20.2984 -20.0273 -20.0170
   -19.8455 -19.8417 -19.7331 -19.7129  -8.1312  -8.0731  -7.9885  -7.9667
    -7.8550  -7.7928  -7.3921  -7.2674  -7.2257  -7.1227  -6.9000  -6.8993
    -6.4974  -6.3565  -6.0488  -5.8895  -5.4015  -5.3191  -5.1186  -4.9607
    -4.4264  -4.3056  -4.0458  -3.8170  -3.0373  -2.8781  -2.7624  -2.7335
    -2.6603  -2.6391  -2.5487  -2.4886  -2.4697  -2.3371  -2.3256  -2.2461

          k =-0.1498 0.0865 0.6221 ( 25756 PWs)   bands (ev):

   -20.6427 -20.5052 -20.4952 -20.3751 -20.3530 -20.2869 -20.0330 -19.9510
   -19.9158 -19.7975 -19.7790 -19.6871  -8.1392  -8.0504  -8.0316  -7.9243
    -7.8726  -7.7786  -7.3968  -7.3054  -7.2525  -7.0177  -6.9497  -6.8950
    -6.5028  -6.2887  -6.1905  -5.7195  -5.5454  -5.3618  -5.0423  -4.8356
    -4.6315  -4.1344  -4.1094  -3.8313  -3.0142  -2.9218  -2.7509  -2.7035
    -2.6696  -2.6196  -2.5756  -2.4902  -2.4588  -2.3468  -2.3295  -2.2399

          k = 0.2996 0.3460-0.3111 ( 25734 PWs)   bands (ev):

   -20.6962 -20.5387 -20.4297 -20.4068 -20.3228 -20.2536 -20.0366 -19.9345
   -19.9245 -19.8352 -19.7735 -19.6615  -8.1467  -8.1210  -7.9678  -7.9449
    -7.8844  -7.7881  -7.4300  -7.3680  -7.2412  -6.9852  -6.9539  -6.8828
    -6.6300  -6.3242  -6.0840  -5.7412  -5.7003  -5.1948  -5.0095  -4.7471
    -4.5192  -4.2913  -4.0899  -3.8047  -2.9240  -2.8537  -2.7673  -2.6958
    -2.6417  -2.5891  -2.5280  -2.5186  -2.4334  -2.3928  -2.3319  -2.2273

          k = 0.1498 0.2595 0.0000 ( 25747 PWs)   bands (ev):

   -20.8147 -20.4820 -20.4258 -20.2937 -20.2656 -20.1834 -20.1046 -20.0317
   -19.9914 -19.8428 -19.8067 -19.5642  -8.1950  -8.0895  -7.9900  -7.9444
    -7.8253  -7.8190  -7.5025  -7.3601  -7.1714  -7.0811  -7.0129  -6.9000
    -6.8768  -6.1089  -5.9760  -5.7167  -5.6041  -5.1401  -5.0060  -4.8808
    -4.6962  -4.2481  -4.1564  -3.6061  -2.8140  -2.7934  -2.7492  -2.6617
    -2.6220  -2.5950  -2.4774  -2.4619  -2.4272  -2.4184  -2.3136  -2.2991

          k = 0.2996-0.1730-1.2442 ( 25718 PWs)   bands (ev):

   -20.6852 -20.6474 -20.4410 -20.3438 -20.2654 -20.2068 -20.0490 -20.0133
   -19.8992 -19.8776 -19.6968 -19.6804  -8.1743  -8.1354  -8.0006  -7.9649
    -7.7996  -7.7942  -7.5003  -7.4293  -7.1549  -7.1056  -6.9236  -6.8781
    -6.5608  -6.5184  -6.0478  -5.8271  -5.5116  -5.2613  -4.8807  -4.6265
    -4.5173  -4.4522  -4.0058  -3.8180  -2.8305  -2.7799  -2.7623  -2.6960
    -2.6244  -2.5648  -2.5449  -2.4705  -2.4608  -2.4141  -2.2782  -2.2640

          k = 0.0000 0.0000 0.9332 ( 25763 PWs)   bands (ev):

   -20.5879 -20.5879 -20.5078 -20.4624 -20.2827 -20.2827 -19.9608 -19.9608
   -19.8385 -19.7987 -19.7717 -19.7717  -8.1223  -8.1223  -7.9839  -7.8830
    -7.8830  -7.8739  -7.4389  -7.3359  -7.3359  -6.8917  -6.8917  -6.8534
    -6.4251  -6.4244  -6.4244  -5.7662  -5.4562  -5.4562  -4.7959  -4.6113
    -4.6113  -4.1554  -4.1554  -3.9871  -2.8663  -2.8663  -2.7426  -2.6812
    -2.6133  -2.6133  -2.5558  -2.4921  -2.4921  -2.3782  -2.3782  -2.2031

          k = 0.4494 0.2595 0.0000 ( 25725 PWs)   bands (ev):

   -20.7150 -20.5474 -20.5411 -20.3454 -20.2100 -20.1991 -20.0639 -20.0567
   -19.8999 -19.8054 -19.7711 -19.6507  -8.1684  -8.1249  -8.0563  -7.9012
    -7.8415  -7.7773  -7.5174  -7.3789  -7.2489  -7.0005  -6.9477  -6.9002
    -6.6666  -6.2875  -6.2098  -5.7796  -5.5248  -5.2563  -4.8057  -4.7663
    -4.5608  -4.2587  -4.1189  -3.7910  -2.8121  -2.8045  -2.7504  -2.7008
    -2.6398  -2.5804  -2.5109  -2.4878  -2.4356  -2.3908  -2.3306  -2.2453

          k = 0.2996 0.1730 0.3111 ( 25733 PWs)   bands (ev):

   -20.7436 -20.4933 -20.4035 -20.3910 -20.3023 -20.2441 -20.0510 -20.0216
   -19.9494 -19.8266 -19.7723 -19.6147  -8.1666  -8.1080  -8.0242  -7.8949
    -7.8893  -7.7373  -7.4660  -7.3354  -7.1543  -7.0801  -7.0331  -6.9338
    -6.6575  -6.1304  -5.9562  -5.8713  -5.6423  -5.2903  -4.9943  -4.7935
    -4.6364  -4.2349  -4.0989  -3.6901  -2.9425  -2.8663  -2.7896  -2.7353
    -2.6369  -2.5956  -2.5191  -2.4862  -2.4019  -2.3609  -2.3016  -2.2848

          k = 0.4494-0.2595-0.9332 ( 25756 PWs)   bands (ev):

   -20.6130 -20.6104 -20.4722 -20.4166 -20.2900 -20.2138 -20.0903 -20.0062
   -19.8622 -19.8081 -19.7567 -19.6733  -8.1954  -8.0954  -8.0545  -7.9017
    -7.8547  -7.7179  -7.5119  -7.2941  -7.1731  -7.1168  -6.9696  -6.9395
    -6.3939  -6.3553  -6.0321  -5.8836  -5.6953  -5.3792  -4.9518  -4.6704
    -4.3661  -4.3273  -4.1410  -3.7601  -2.9415  -2.8862  -2.8485  -2.7356
    -2.7001  -2.6117  -2.4684  -2.4463  -2.4146  -2.3741  -2.3036  -2.2488

          k = 0.2996-0.3460-0.6221 ( 25768 PWs)   bands (ev):

   -20.5679 -20.5616 -20.4606 -20.4497 -20.3221 -20.3201 -20.0101 -20.0026
   -19.8503 -19.8423 -19.7273 -19.7063  -8.2090  -8.0090  -7.9787  -7.9595
    -7.9235  -7.7215  -7.4242  -7.3039  -7.1504  -7.1042  -6.9481  -6.9429
    -6.3583  -6.2305  -6.0675  -5.9407  -5.6171  -5.5812  -4.8698  -4.7975
    -4.3733  -4.3305  -4.1492  -3.7438  -3.0680  -2.9009  -2.8461  -2.7753
    -2.7200  -2.5816  -2.5136  -2.4739  -2.4509  -2.3276  -2.3102  -2.2304

          k = 0.0000 0.0000-1.8663 ( 25782 PWs)   bands (ev):

   -20.5358 -20.5169 -20.4234 -20.4234 -20.4217 -20.4217 -19.9351 -19.9351
   -19.9005 -19.9005 -19.7118 -19.6942  -8.2571  -7.9717  -7.9717  -7.9508
    -7.9508  -7.6905  -7.4744  -7.3015  -7.0545  -7.0545  -7.0233  -7.0233
    -6.1822  -6.0031  -5.9451  -5.9451  -5.9396  -5.9396  -4.6494  -4.6494
    -4.4119  -4.4119  -4.1667  -3.6936  -3.0995  -2.9037  -2.9037  -2.8132
    -2.8132  -2.5264  -2.5089  -2.4099  -2.4099  -2.3409  -2.3409  -2.2049

          k = 0.2996-0.3460 0.3111 ( 25734 PWs)   bands (ev):

   -20.6962 -20.5376 -20.4370 -20.4018 -20.3198 -20.2543 -20.0378 -19.9489
   -19.9037 -19.8467 -19.7663 -19.6634  -8.1621  -8.0877  -8.0046  -7.9398
    -7.8572  -7.7950  -7.4778  -7.3364  -7.2168  -7.0236  -6.9176  -6.9037
    -6.6223  -6.2564  -6.1790  -5.7917  -5.5547  -5.2577  -5.0903  -4.6566
    -4.4970  -4.2792  -4.1603  -3.7826  -2.9320  -2.8247  -2.7837  -2.6926
    -2.6475  -2.5945  -2.5290  -2.5185  -2.4511  -2.3616  -2.3328  -2.2357

     highest occupied level (ev):    -2.2031

!    total energy              =    -413.83982449 Ry
     estimated scf accuracy    <       0.00000006 Ry

     The total energy is the sum of the following terms:
     one-electron contribution =    -290.97379032 Ry
     hartree contribution      =     179.94144546 Ry
     xc contribution           =    -101.26288747 Ry
     ewald contribution        =    -201.54459216 Ry

     convergence has been achieved in  11 iterations

     Forces acting on atoms (cartesian axes, Ry/au):

     atom    1 type  2   force =    -0.03450477    0.06364454    0.03055696
     atom    2 type  2   force =     0.03450477   -0.06364454   -0.03055696
     atom    3 type  2   force =    -0.03786540   -0.06170428    0.03055696
     atom    4 type  2   force =     0.03786540    0.06170428   -0.03055696
     atom    5 type  2   force =     0.07237017   -0.00194026    0.03055696
     atom    6 type  2   force =    -0.07237017    0.00194026   -0.03055696
     atom    7 type  2   force =    -0.03073146    0.02389426   -0.02148337
     atom    8 type  2   force =     0.03073146   -0.02389426    0.02148337
     atom    9 type  2   force =    -0.00532730   -0.03856135   -0.02148337
     atom   10 type  2   force =     0.00532730    0.03856135    0.02148337
     atom   11 type  2   force =     0.03605876    0.01466709   -0.02148337
     atom   12 type  2   force =    -0.03605876   -0.01466709    0.02148337
     atom   13 type  1   force =     0.00319398   -0.02591158   -0.05125494
     atom   14 type  1   force =    -0.00319398    0.02591158    0.05125494
     atom   15 type  1   force =     0.02084310    0.01572185   -0.05125494
     atom   16 type  1   force =    -0.02084310   -0.01572185    0.05125494
     atom   17 type  1   force =    -0.02403707    0.01018973   -0.05125494
     atom   18 type  1   force =     0.02403707   -0.01018973    0.05125494
     atom   19 type  1   force =     0.02973183   -0.04470091    0.01014812
     atom   20 type  1   force =    -0.02973183    0.04470091   -0.01014812
     atom   21 type  1   force =     0.02384621    0.04809897    0.01014812
     atom   22 type  1   force =    -0.02384621   -0.04809897   -0.01014812
     atom   23 type  1   force =    -0.05357803   -0.00339806    0.01014812
     atom   24 type  1   force =     0.05357803    0.00339806   -0.01014812
     atom   25 type  1   force =    -0.01367985   -0.00242876    0.01259549
     atom   26 type  1   force =     0.01367985    0.00242876   -0.01259549
     atom   27 type  1   force =     0.00894329   -0.01063272    0.01259549
     atom   28 type  1   force =    -0.00894329    0.01063272   -0.01259549
     atom   29 type  1   force =     0.00473656    0.01306148    0.01259549
     atom   30 type  1   force =    -0.00473656   -0.01306148   -0.01259549
     atom   31 type  1   force =    -0.02869818   -0.00933752    0.01625417
     atom   32 type  1   force =     0.02869818    0.00933752   -0.01625417
     atom   33 type  1   force =     0.02243562   -0.02018459    0.01625417
     atom   34 type  1   force =    -0.02243562    0.02018459   -0.01625417
     atom   35 type  1   force =     0.00626256    0.02952212    0.01625417
     atom   36 type  1   force =    -0.00626256   -0.02952212   -0.01625417

     Total force =     0.309570     Total SCF correction =     0.000355


     Computing stress (Cartesian axis) and pressure

          total   stress  (Ry/bohr**3)                   (kbar)     P=      -26.17
  -0.00025498  -0.00000000  -0.00000000          -37.51       -0.00       -0.00
   0.00000000  -0.00025498  -0.00000000            0.00      -37.51       -0.00
  -0.00000000  -0.00000000  -0.00002366           -0.00       -0.00       -3.48


     Writing all to output data dir ./iceII_2/iceII_2.save/ :
     XML data file, charge density, pseudopotentials, collected wavefunctions

     init_run     :      0.87s CPU      0.93s WALL (       1 calls)
     electrons    :      9.75s CPU     10.00s WALL (       1 calls)
     forces       :      0.12s CPU      0.12s WALL (       1 calls)
     stress       :      0.75s CPU      0.77s WALL (       1 calls)

     Called by init_run:
     wfcinit      :      0.32s CPU      0.34s WALL (       1 calls)
     potinit      :      0.02s CPU      0.04s WALL (       1 calls)
     hinit0       :      0.40s CPU      0.40s WALL (       1 calls)

     Called by electrons:
     c_bands      :      8.35s CPU      8.49s WALL (      11 calls)
     sum_band     :      1.09s CPU      1.11s WALL (      11 calls)
     v_of_rho     :      0.22s CPU      0.24s WALL (      12 calls)
     newd         :      0.04s CPU      0.04s WALL (      12 calls)
     mix_rho      :      0.03s CPU      0.03s WALL (      11 calls)

     Called by c_bands:
     init_us_2    :      0.11s CPU      0.12s WALL (     100 calls)
     cegterg      :      8.17s CPU      8.28s WALL (      44 calls)

     Called by *egterg:
     cdiaghg      :      0.72s CPU      0.72s WALL (     184 calls)
     h_psi        :      6.44s CPU      6.55s WALL (     188 calls)
     s_psi        :      0.24s CPU      0.25s WALL (     188 calls)
     g_psi        :      0.02s CPU      0.02s WALL (     140 calls)

     Called by h_psi:
     h_psi:calbec :      0.43s CPU      0.44s WALL (     188 calls)
     vloc_psi     :      5.72s CPU      5.82s WALL (     188 calls)
     add_vuspsi   :      0.26s CPU      0.26s WALL (     188 calls)

     General routines
     calbec       :      0.57s CPU      0.58s WALL (     252 calls)
     fft          :      0.48s CPU      0.49s WALL (     140 calls)
     ffts         :      0.01s CPU      0.01s WALL (      11 calls)
     fftw         :      5.91s CPU      5.99s WALL (   16542 calls)

     Parallel routines

     PWSCF        :     11.79s CPU     12.45s WALL


   This run was terminated on:  21:40:59  18Mar2026            

=------------------------------------------------------------------------------=
   JOB DONE.
=------------------------------------------------------------------------------=
