
     Program PWSCF v.7.3.1 starts on 18Mar2026 at 21:36: 9 

     This program is part of the open-source Quantum ESPRESSO suite
     for quantum simulation of materials; please cite
         "P. Giannozzi et al., J. Phys.:Condens. Matter 21 395502 (2009);
         "P. Giannozzi et al., J. Phys.:Condens. Matter 29 465901 (2017);
         "P. Giannozzi et al., J. Chem. Phys. 152 154105 (2020);
          URL http://www.quantum-espresso.org", 
     in publications or presentations arising from this work. More details at
     http://www.quantum-espresso.org/quote

     Parallel version (MPI), running on   128 processors

     MPI processes distributed on     1 nodes
     243264 MiB available memory on the printing compute node when the environment starts

     Waiting for input...
     Reading input from standard input

     Current dimensions of program PWSCF are:
     Max number of different atomic species (ntypx) = 10
     Max number of k-points (npk) =  40000
     Max angular momentum in pseudopotentials (lmaxx) =  4

     K-points division:     npool     =       8
     R & G space division:  proc/nbgrp/npool/nimage =      16
     Subspace diagonalization in iterative solution of the eigenvalue problem:
     a serial algorithm will be used


     Parallelization info
     --------------------
     sticks:   dense  smooth     PW     G-vecs:    dense   smooth      PW
     Min         158     158     50                 4392     4392     782
     Max         159     159     51                 4394     4394     785
     Sum        2529    2529    801                70299    70299   12549

     Using Slab Decomposition



     bravais-lattice index     =            5
     lattice parameter (alat)  =      14.7021  a.u.
     unit-cell volume          =    2053.1832 (a.u.)^3
     number of atoms/cell      =           36
     number of atomic types    =            2
     number of electrons       =        96.00
     number of Kohn-Sham states=           48
     kinetic-energy cutoff     =      40.0000  Ry
     charge density cutoff     =     160.0000  Ry
     scf convergence threshold =      1.0E-07
     mixing beta               =       0.7000
     number of iterations used =            8  plain     mixing
     Exchange-correlation=  SLA  PW   PBE  PBE
                           (   1   4   3   4   0   0   0)

     celldm(1)=  14.702068  celldm(2)=   0.000000  celldm(3)=   0.000000
     celldm(4)=  -0.392337  celldm(5)=   0.000000  celldm(6)=   0.000000

     crystal axes: (cart. coord. in units of alat)
               a(1) = (   0.834367  -0.481722   0.267909 )  
               a(2) = (   0.000000   0.963444   0.267909 )  
               a(3) = (  -0.834367  -0.481722   0.267909 )  

     reciprocal axes: (cart. coord. in units 2 pi/alat)
               b(1) = (  0.599257 -0.345981  1.244203 )  
               b(2) = ( -0.000000  0.691962  1.244203 )  
               b(3) = ( -0.599257 -0.345981  1.244203 )  


     PseudoPot. # 1 for H  read from file:
     ./H.pbe-van_ak.UPF
     MD5 check sum: 077eb6d537518a38cb46c6de387227b7
     Pseudo is Ultrasoft, Zval =  1.0
     Generated by new atomic code, or converted to UPF format
     Using radial grid of  615 points,  1 beta functions with: 
                l(1) =   0
     Q(r) pseudized with  8 coefficients,  rinner =    0.800

     PseudoPot. # 2 for O  read from file:
     ./O.pbe-van_ak.UPF
     MD5 check sum: 78c19812648e8988a0fe644b0f25305e
     Pseudo is Ultrasoft, Zval =  6.0
     Generated by new atomic code, or converted to UPF format
     Using radial grid of  737 points,  4 beta functions with: 
                l(1) =   0
                l(2) =   0
                l(3) =   1
                l(4) =   1
     Q(r) pseudized with  8 coefficients,  rinner =    0.800   0.800   0.800


     atomic species   valence    mass     pseudopotential
     H                 1.00     1.00800     H ( 1.00)
     O                 6.00    16.00000     O ( 1.00)

      6 Sym. Ops., with inversion, found



   Cartesian axes

     site n.     atom                  positions (alat units)
         1        O      tau(   1) = (  -0.4847673  -0.5197781   0.3083633  )
         2        O      tau(   2) = (   0.4847673   0.5197782   0.4953638  )
         3        O      tau(   3) = (   0.6925247  -0.1599317   0.3083633  )
         4        O      tau(   4) = (  -0.6925248   0.1599317   0.4953638  )
         5        O      tau(   5) = (  -0.2077574   0.6797099   0.3083633  )
         6        O      tau(   6) = (   0.2077574  -0.6797099   0.4953638  )
         7        O      tau(   7) = (   0.1218176   0.3323883   0.4179381  )
         8        O      tau(   8) = (  -0.1218176  -0.3323883   0.3857890  )
         9        O      tau(   9) = (  -0.3487655  -0.0606970   0.4179381  )
        10        O      tau(  10) = (   0.3487655   0.0606970   0.3857890  )
        11        O      tau(  11) = (   0.2269479  -0.2716913   0.4179381  )
        12        O      tau(  12) = (  -0.2269479   0.2716912   0.3857890  )
        13        H      tau(  13) = (  -0.5381668  -0.4032014   0.2796970  )
        14        H      tau(  14) = (   0.5381668   0.4032014   0.5240301  )
        15        H      tau(  15) = (   0.6182661  -0.2644654   0.2796970  )
        16        H      tau(  16) = (  -0.6182661   0.2644654   0.5240301  )
        17        H      tau(  17) = (  -0.0800993   0.6676668   0.2796970  )
        18        H      tau(  18) = (   0.0800993  -0.6676668   0.5240301  )
        19        H      tau(  19) = (  -0.4872704  -0.4817221   0.4326731  )
        20        H      tau(  20) = (   0.4872704   0.4817221   0.3710540  )
        21        H      tau(  21) = (   0.6608188  -0.1811275   0.4326731  )
        22        H      tau(  22) = (  -0.6608188   0.1811275   0.3710540  )
        23        H      tau(  23) = (  -0.1735484   0.6628496   0.4326731  )
        24        H      tau(  24) = (   0.1735484  -0.6628496   0.3710540  )
        25        H      tau(  25) = (   0.2703349  -0.1502973   0.4058822  )
        26        H      tau(  26) = (  -0.2703350   0.1502973   0.3978449  )
        27        H      tau(  27) = (  -0.0050062   0.3092656   0.4058822  )
        28        H      tau(  28) = (   0.0050062  -0.3092656   0.3978449  )
        29        H      tau(  29) = (  -0.2653287  -0.1589683   0.4058822  )
        30        H      tau(  30) = (   0.2653287   0.1589683   0.3978449  )
        31        H      tau(  31) = (   0.3178939  -0.3347969   0.3493534  )
        32        H      tau(  32) = (  -0.3178939   0.3347969   0.4543737  )
        33        H      tau(  33) = (   0.1309957   0.4427026   0.3493534  )
        34        H      tau(  34) = (  -0.1309956  -0.4427026   0.4543737  )
        35        H      tau(  35) = (  -0.4488895  -0.1079057   0.3493534  )
        36        H      tau(  36) = (   0.4488895   0.1079057   0.4543737  )

     number of k points=    14
                       cart. coord. in units 2pi/alat
        k(    1) = (   0.0000000   0.0000000   0.0000000), wk =   0.0312500
        k(    2) = (  -0.1498141  -0.0864952   0.3110508), wk =   0.1875000
        k(    3) = (   0.2996283   0.1729905  -0.6221017), wk =   0.0937500
        k(    4) = (  -0.1498141   0.0864952   0.6221017), wk =   0.1875000
        k(    5) = (   0.2996283   0.3459809  -0.3110508), wk =   0.1875000
        k(    6) = (   0.1498141   0.2594857   0.0000000), wk =   0.1875000
        k(    7) = (   0.2996283  -0.1729905  -1.2442034), wk =   0.0937500
        k(    8) = (   0.0000000   0.0000000   0.9331525), wk =   0.0625000
        k(    9) = (   0.4494424   0.2594857   0.0000000), wk =   0.1875000
        k(   10) = (   0.2996283   0.1729905   0.3110508), wk =   0.1875000
        k(   11) = (   0.4494424  -0.2594857  -0.9331525), wk =   0.1875000
        k(   12) = (   0.2996283  -0.3459809  -0.6221017), wk =   0.1875000
        k(   13) = (   0.0000000   0.0000000  -1.8663050), wk =   0.0312500
        k(   14) = (   0.2996283  -0.3459809   0.3110508), wk =   0.1875000

     Dense  grid:    70299 G-vectors     FFT dimensions: (  60,  60,  60)

     Estimated max dynamical RAM per process >       8.66 MB

     Estimated total dynamical RAM >     987.80 MB

     Initial potential from superposition of free atoms

     starting charge      95.9998, renormalised to      96.0000
     Starting wfcs are   72 randomized atomic wfcs

     total cpu time spent up to now is        0.9 secs

     per-process dynamical memory:    13.7 Mb

     Self-consistent Calculation

     iteration #  1     ecut=    40.00 Ry     beta= 0.70
     Davidson diagonalization with overlap
     ethr =  1.00E-02,  avg # of iterations =  2.0

     total cpu time spent up to now is        1.1 secs

     total energy              =    -412.19339566 Ry
     estimated scf accuracy    <       3.69892961 Ry

     iteration #  2     ecut=    40.00 Ry     beta= 0.70
     Davidson diagonalization with overlap
     ethr =  3.85E-03,  avg # of iterations =  3.0

     total cpu time spent up to now is        1.4 secs

     total energy              =    -413.36454623 Ry
     estimated scf accuracy    <       2.34108248 Ry

     iteration #  3     ecut=    40.00 Ry     beta= 0.70
     Davidson diagonalization with overlap
     ethr =  2.44E-03,  avg # of iterations =  2.0

     total cpu time spent up to now is        1.7 secs

     total energy              =    -413.65919016 Ry
     estimated scf accuracy    <       0.09553530 Ry

     iteration #  4     ecut=    40.00 Ry     beta= 0.70
     Davidson diagonalization with overlap
     ethr =  9.95E-05,  avg # of iterations =  4.4

     total cpu time spent up to now is        2.0 secs

     total energy              =    -413.73464490 Ry
     estimated scf accuracy    <       0.12489828 Ry

     iteration #  5     ecut=    40.00 Ry     beta= 0.70
     Davidson diagonalization with overlap
     ethr =  9.95E-05,  avg # of iterations =  2.0

     total cpu time spent up to now is        2.3 secs

     total energy              =    -413.73933900 Ry
     estimated scf accuracy    <       0.02091934 Ry

     iteration #  6     ecut=    40.00 Ry     beta= 0.70
     Davidson diagonalization with overlap
     ethr =  2.18E-05,  avg # of iterations =  2.0

     negative rho (up, down):  3.774E-08 0.000E+00

     total cpu time spent up to now is        2.5 secs

     total energy              =    -413.73901818 Ry
     estimated scf accuracy    <       0.00645875 Ry

     iteration #  7     ecut=    40.00 Ry     beta= 0.70
     Davidson diagonalization with overlap
     ethr =  6.73E-06,  avg # of iterations =  3.0

     negative rho (up, down):  2.814E-08 0.000E+00

     total cpu time spent up to now is        2.7 secs

     total energy              =    -413.74048071 Ry
     estimated scf accuracy    <       0.00011511 Ry

     iteration #  8     ecut=    40.00 Ry     beta= 0.70
     Davidson diagonalization with overlap
     ethr =  1.20E-07,  avg # of iterations =  5.5

     negative rho (up, down):  3.144E-08 0.000E+00

     total cpu time spent up to now is        3.2 secs

     total energy              =    -413.74057177 Ry
     estimated scf accuracy    <       0.00046962 Ry

     iteration #  9     ecut=    40.00 Ry     beta= 0.70
     Davidson diagonalization with overlap
     ethr =  1.20E-07,  avg # of iterations =  3.0

     negative rho (up, down):  1.633E-08 0.000E+00

     total cpu time spent up to now is        3.4 secs

     total energy              =    -413.74057978 Ry
     estimated scf accuracy    <       0.00007003 Ry

     iteration # 10     ecut=    40.00 Ry     beta= 0.70
     Davidson diagonalization with overlap
     ethr =  7.29E-08,  avg # of iterations =  2.4

     negative rho (up, down):  1.555E-08 0.000E+00

     total cpu time spent up to now is        3.7 secs

     total energy              =    -413.74059912 Ry
     estimated scf accuracy    <       0.00000062 Ry

     iteration # 11     ecut=    40.00 Ry     beta= 0.70
     Davidson diagonalization with overlap
     ethr =  6.47E-10,  avg # of iterations =  5.0

     negative rho (up, down):  1.381E-08 0.000E+00

     total cpu time spent up to now is        4.1 secs

     End of self-consistent calculation

          k = 0.0000 0.0000 0.0000 (  8791 PWs)   bands (ev):

   -20.8822 -20.4206 -20.4206 -20.1960 -20.1960 -20.1688 -20.1688 -20.1526
   -20.1501 -19.8461 -19.8461 -19.5308  -8.2088  -8.0082  -7.9503  -7.9503
    -7.8649  -7.8649  -7.4472  -7.2915  -7.2915  -7.0737  -7.0737  -6.9403
    -6.8754  -5.9768  -5.9768  -5.3863  -5.3863  -5.3078  -5.3078  -5.0083
    -4.8194  -4.1744  -4.1744  -3.5089  -2.8068  -2.8068  -2.7053  -2.6273
    -2.5780  -2.5780  -2.4374  -2.4374  -2.4160  -2.3968  -2.3479  -2.3479

          k =-0.1498-0.0865 0.3111 (  8759 PWs)   bands (ev):

   -20.8077 -20.4616 -20.4084 -20.3414 -20.3174 -20.2428 -20.0979 -20.0546
   -19.9996 -19.8527 -19.8105 -19.5913  -8.1531  -8.0738  -7.9960  -7.9483
    -7.8472  -7.7849  -7.4440  -7.2615  -7.2473  -7.1088  -6.9797  -6.9437
    -6.7394  -6.1239  -5.9925  -5.7221  -5.3988  -5.2608  -5.1204  -4.8946
    -4.8387  -4.1646  -4.1032  -3.6422  -2.9252  -2.8516  -2.7305  -2.6725
    -2.6153  -2.5791  -2.5369  -2.4733  -2.4081  -2.3693  -2.3335  -2.2858

          k = 0.2996 0.1730-0.6221 (  8796 PWs)   bands (ev):

   -20.6150 -20.6130 -20.4432 -20.4272 -20.3174 -20.3126 -20.0417 -20.0314
   -19.8600 -19.8564 -19.7477 -19.7276  -8.1288  -8.0704  -7.9858  -7.9638
    -7.8518  -7.7898  -7.3896  -7.2643  -7.2231  -7.1191  -6.8958  -6.8951
    -6.4951  -6.3543  -6.0464  -5.8873  -5.3990  -5.3167  -5.1158  -4.9578
    -4.4225  -4.3018  -4.0413  -3.8124  -3.0325  -2.8730  -2.7570  -2.7281
    -2.6548  -2.6333  -2.5426  -2.4826  -2.4644  -2.3310  -2.3196  -2.2400

          k =-0.1498 0.0865 0.6221 (  8771 PWs)   bands (ev):

   -20.6566 -20.5192 -20.5092 -20.3893 -20.3671 -20.3010 -20.0474 -19.9655
   -19.9303 -19.8121 -19.7936 -19.7017  -8.1367  -8.0476  -8.0287  -7.9213
    -7.8695  -7.7754  -7.3946  -7.3024  -7.2494  -7.0139  -6.9456  -6.8908
    -6.5002  -6.2867  -6.1882  -5.7169  -5.5429  -5.3593  -5.0393  -4.8325
    -4.6282  -4.1300  -4.1050  -3.8267  -3.0089  -2.9166  -2.7453  -2.6976
    -2.6637  -2.6139  -2.5697  -2.4841  -2.4529  -2.3406  -2.3234  -2.2339

          k = 0.2996 0.3460-0.3111 (  8771 PWs)   bands (ev):

   -20.7101 -20.5527 -20.4439 -20.4208 -20.3370 -20.2678 -20.0510 -19.9489
   -19.9390 -19.8498 -19.7881 -19.6762  -8.1442  -8.1182  -7.9650  -7.9420
    -7.8813  -7.7850  -7.4274  -7.3650  -7.2381  -6.9817  -6.9498  -6.8785
    -6.6278  -6.3222  -6.0819  -5.7388  -5.6975  -5.1921  -5.0068  -4.7437
    -4.5154  -4.2873  -4.0855  -3.7999  -2.9188  -2.8483  -2.7617  -2.6900
    -2.6361  -2.5832  -2.5222  -2.5126  -2.4273  -2.3866  -2.3258  -2.2209

          k = 0.1498 0.2595 0.0000 (  8777 PWs)   bands (ev):

   -20.8284 -20.4960 -20.4398 -20.3079 -20.2798 -20.1977 -20.1189 -20.0461
   -20.0058 -19.8574 -19.8213 -19.5789  -8.1924  -8.0870  -7.9874  -7.9414
    -7.8221  -7.8159  -7.5004  -7.3571  -7.1685  -7.0773  -7.0094  -6.8971
    -6.8726  -6.1069  -5.9739  -5.7142  -5.6017  -5.1372  -5.0031  -4.8778
    -4.6926  -4.2439  -4.1521  -3.6009  -2.8084  -2.7877  -2.7435  -2.6561
    -2.6164  -2.5893  -2.4714  -2.4559  -2.4213  -2.4123  -2.3072  -2.2925

          k = 0.2996-0.1730-1.2442 (  8780 PWs)   bands (ev):

   -20.6991 -20.6613 -20.4550 -20.3580 -20.2796 -20.2211 -20.0633 -20.0277
   -19.9136 -19.8922 -19.7115 -19.6951  -8.1720  -8.1328  -7.9981  -7.9621
    -7.7966  -7.7909  -7.4975  -7.4265  -7.1514  -7.1022  -6.9197  -6.8738
    -6.5589  -6.5168  -6.0459  -5.8244  -5.5089  -5.2584  -4.8777  -4.6228
    -4.5138  -4.4484  -4.0014  -3.8131  -2.8250  -2.7741  -2.7568  -2.6901
    -2.6187  -2.5589  -2.5393  -2.4647  -2.4548  -2.4078  -2.2714  -2.2580

          k = 0.0000 0.0000 0.9332 (  8786 PWs)   bands (ev):

   -20.6018 -20.6018 -20.5217 -20.4765 -20.2970 -20.2970 -19.9753 -19.9753
   -19.8529 -19.8134 -19.7863 -19.7863  -8.1198  -8.1198  -7.9810  -7.8800
    -7.8800  -7.8711  -7.4361  -7.3329  -7.3329  -6.8876  -6.8876  -6.8489
    -6.4233  -6.4227  -6.4227  -5.7635  -5.4535  -5.4535  -4.7930  -4.6079
    -4.6079  -4.1514  -4.1514  -3.9826  -2.8609  -2.8609  -2.7367  -2.6753
    -2.6076  -2.6076  -2.5498  -2.4863  -2.4863  -2.3720  -2.3720  -2.1971

          k = 0.4494 0.2595 0.0000 (  8758 PWs)   bands (ev):

   -20.7288 -20.5614 -20.5551 -20.3596 -20.2243 -20.2134 -20.0783 -20.0711
   -19.9144 -19.8200 -19.7857 -19.6654  -8.1658  -8.1224  -8.0536  -7.8982
    -7.8383  -7.7742  -7.5147  -7.3760  -7.2456  -6.9967  -6.9437  -6.8961
    -6.6646  -6.2856  -6.2079  -5.7767  -5.5220  -5.2533  -4.8023  -4.7631
    -4.5573  -4.2546  -4.1147  -3.7859  -2.8064  -2.7990  -2.7446  -2.6947
    -2.6343  -2.5744  -2.5050  -2.4819  -2.4294  -2.3846  -2.3241  -2.2388

          k = 0.2996 0.1730 0.3111 (  8784 PWs)   bands (ev):

   -20.7574 -20.5073 -20.4177 -20.4051 -20.3165 -20.2584 -20.0654 -20.0360
   -19.9639 -19.8411 -19.7869 -19.6295  -8.1642  -8.1054  -8.0214  -7.8920
    -7.8864  -7.7341  -7.4635  -7.3329  -7.1508  -7.0766  -7.0295  -6.9297
    -6.6546  -6.1282  -5.9540  -5.8691  -5.6398  -5.2879  -4.9912  -4.7903
    -4.6330  -4.2309  -4.0946  -3.6849  -2.9373  -2.8611  -2.7840  -2.7301
    -2.6312  -2.5898  -2.5131  -2.4801  -2.3957  -2.3546  -2.2953  -2.2789

          k = 0.4494-0.2595-0.9332 (  8773 PWs)   bands (ev):

   -20.6268 -20.6244 -20.4862 -20.4308 -20.3042 -20.2280 -20.1047 -20.0206
   -19.8767 -19.8226 -19.7713 -19.6880  -8.1931  -8.0926  -8.0519  -7.8988
    -7.8515  -7.7148  -7.5092  -7.2911  -7.1698  -7.1133  -6.9659  -6.9354
    -6.3913  -6.3535  -6.0301  -5.8808  -5.6928  -5.3768  -4.9485  -4.6669
    -4.3622  -4.3235  -4.1366  -3.7551  -2.9361  -2.8811  -2.8431  -2.7303
    -2.6946  -2.6055  -2.4624  -2.4400  -2.4082  -2.3677  -2.2972  -2.2430

          k = 0.2996-0.3460-0.6221 (  8776 PWs)   bands (ev):

   -20.5817 -20.5756 -20.4746 -20.4638 -20.3362 -20.3343 -20.0245 -20.0170
   -19.8648 -19.8569 -19.7418 -19.7211  -8.2068  -8.0062  -7.9758  -7.9566
    -7.9207  -7.7183  -7.4215  -7.3009  -7.1473  -7.1006  -6.9441  -6.9388
    -6.3559  -6.2282  -6.0651  -5.9382  -5.6149  -5.5790  -4.8665  -4.7942
    -4.3694  -4.3264  -4.1448  -3.7391  -3.0629  -2.8958  -2.8408  -2.7700
    -2.7144  -2.5759  -2.5071  -2.4677  -2.4446  -2.3213  -2.3039  -2.2244

          k = 0.0000 0.0000-1.8663 (  8780 PWs)   bands (ev):

   -20.5498 -20.5311 -20.4375 -20.4375 -20.4356 -20.4356 -19.9495 -19.9495
   -19.9151 -19.9151 -19.7263 -19.7090  -8.2551  -7.9688  -7.9688  -7.9478
    -7.9478  -7.6873  -7.4720  -7.2983  -7.0509  -7.0509  -7.0195  -7.0195
    -6.1792  -6.0002  -5.9427  -5.9427  -5.9377  -5.9377  -4.6460  -4.6460
    -4.4080  -4.4080  -4.1627  -3.6889  -3.0945  -2.8987  -2.8987  -2.8080
    -2.8080  -2.5204  -2.5023  -2.4030  -2.4030  -2.3348  -2.3348  -2.1992

          k = 0.2996-0.3460 0.3111 (  8771 PWs)   bands (ev):

   -20.7100 -20.5516 -20.4510 -20.4159 -20.3340 -20.2686 -20.0522 -19.9632
   -19.9183 -19.8612 -19.7809 -19.6781  -8.1596  -8.0850  -8.0019  -7.9368
    -7.8543  -7.7919  -7.4751  -7.3336  -7.2135  -7.0202  -6.9135  -6.8994
    -6.6199  -6.2545  -6.1769  -5.7891  -5.5520  -5.2550  -5.0877  -4.6532
    -4.4931  -4.2751  -4.1561  -3.7777  -2.9267  -2.8192  -2.7781  -2.6870
    -2.6418  -2.5886  -2.5233  -2.5124  -2.4449  -2.3555  -2.3265  -2.2295

     highest occupied level (ev):    -2.1971

!    total energy              =    -413.74059997 Ry
     estimated scf accuracy    <       0.00000006 Ry

     The total energy is the sum of the following terms:
     one-electron contribution =    -290.79356863 Ry
     hartree contribution      =     179.82981293 Ry
     xc contribution           =    -101.23225207 Ry
     ewald contribution        =    -201.54459221 Ry

     convergence has been achieved in  11 iterations

     Forces acting on atoms (cartesian axes, Ry/au):

     atom    1 type  2   force =    -0.03437335    0.06354091    0.03049334
     atom    2 type  2   force =     0.03437335   -0.06354091   -0.03049334
     atom    3 type  2   force =    -0.03784136   -0.06153865    0.03049334
     atom    4 type  2   force =     0.03784136    0.06153865   -0.03049334
     atom    5 type  2   force =     0.07221472   -0.00200226    0.03049334
     atom    6 type  2   force =    -0.07221472    0.00200226   -0.03049334
     atom    7 type  2   force =    -0.03062930    0.02391282   -0.02137505
     atom    8 type  2   force =     0.03062930   -0.02391282    0.02137505
     atom    9 type  2   force =    -0.00539446   -0.03848216   -0.02137505
     atom   10 type  2   force =     0.00539446    0.03848216    0.02137505
     atom   11 type  2   force =     0.03602376    0.01456934   -0.02137505
     atom   12 type  2   force =    -0.03602376   -0.01456934    0.02137505
     atom   13 type  1   force =     0.00316658   -0.02586905   -0.05126993
     atom   14 type  1   force =    -0.00316658    0.02586905    0.05126993
     atom   15 type  1   force =     0.02081997    0.01567687   -0.05126993
     atom   16 type  1   force =    -0.02081997   -0.01567687    0.05126993
     atom   17 type  1   force =    -0.02398655    0.01019219   -0.05126993
     atom   18 type  1   force =     0.02398655   -0.01019219    0.05126993
     atom   19 type  1   force =     0.02974624   -0.04466474    0.01024238
     atom   20 type  1   force =    -0.02974624    0.04466474   -0.01024238
     atom   21 type  1   force =     0.02380767    0.04809337    0.01024238
     atom   22 type  1   force =    -0.02380767   -0.04809337   -0.01024238
     atom   23 type  1   force =    -0.05355392   -0.00342863    0.01024238
     atom   24 type  1   force =     0.05355392    0.00342863   -0.01024238
     atom   25 type  1   force =    -0.01363946   -0.00237345    0.01259439
     atom   26 type  1   force =     0.01363946    0.00237345   -0.01259439
     atom   27 type  1   force =     0.00887520   -0.01062539    0.01259439
     atom   28 type  1   force =    -0.00887520    0.01062539   -0.01259439
     atom   29 type  1   force =     0.00476426    0.01299884    0.01259439
     atom   30 type  1   force =    -0.00476426   -0.01299884   -0.01259439
     atom   31 type  1   force =    -0.02862018   -0.00940111    0.01617599
     atom   32 type  1   force =     0.02862018    0.00940111   -0.01617599
     atom   33 type  1   force =     0.02245169   -0.02008525    0.01617599
     atom   34 type  1   force =    -0.02245169    0.02008525   -0.01617599
     atom   35 type  1   force =     0.00616849    0.02948636    0.01617599
     atom   36 type  1   force =    -0.00616849   -0.02948636   -0.01617599

     Total force =     0.309137     Total SCF correction =     0.000367


     Computing stress (Cartesian axis) and pressure

          total   stress  (Ry/bohr**3)                   (kbar)     P=      -32.41
  -0.00029758  -0.00000000  -0.00000000          -43.78       -0.00       -0.00
   0.00000000  -0.00029758  -0.00000000            0.00      -43.78       -0.00
  -0.00000000  -0.00000000  -0.00006585           -0.00       -0.00       -9.69


     Writing all to output data dir ./iceII_2/iceII_2.save/ :
     XML data file, charge density, pseudopotentials, collected wavefunctions

     init_run     :      0.63s CPU      0.64s WALL (       1 calls)
     electrons    :      3.10s CPU      3.23s WALL (       1 calls)
     forces       :      0.05s CPU      0.06s WALL (       1 calls)
     stress       :      0.25s CPU      0.27s WALL (       1 calls)

     Called by init_run:
     wfcinit      :      0.10s CPU      0.11s WALL (       1 calls)
     potinit      :      0.03s CPU      0.03s WALL (       1 calls)
     hinit0       :      0.42s CPU      0.43s WALL (       1 calls)

     Called by electrons:
     c_bands      :      2.58s CPU      2.63s WALL (      11 calls)
     sum_band     :      0.31s CPU      0.33s WALL (      11 calls)
     v_of_rho     :      0.14s CPU      0.16s WALL (      12 calls)
     newd         :      0.04s CPU      0.05s WALL (      12 calls)
     mix_rho      :      0.02s CPU      0.03s WALL (      11 calls)

     Called by c_bands:
     init_us_2    :      0.03s CPU      0.04s WALL (      50 calls)
     cegterg      :      2.47s CPU      2.51s WALL (      22 calls)

     Called by *egterg:
     cdiaghg      :      0.35s CPU      0.35s WALL (      91 calls)
     h_psi        :      1.78s CPU      1.79s WALL (      93 calls)
     s_psi        :      0.08s CPU      0.08s WALL (      93 calls)
     g_psi        :      0.01s CPU      0.01s WALL (      69 calls)

     Called by h_psi:
     h_psi:calbec :      0.14s CPU      0.14s WALL (      93 calls)
     vloc_psi     :      1.53s CPU      1.54s WALL (      93 calls)
     add_vuspsi   :      0.09s CPU      0.09s WALL (      93 calls)

     General routines
     calbec       :      0.19s CPU      0.19s WALL (     125 calls)
     fft          :      0.50s CPU      0.51s WALL (     140 calls)
     ffts         :      0.01s CPU      0.01s WALL (      11 calls)
     fftw         :      1.57s CPU      1.59s WALL (    8114 calls)

     Parallel routines

     PWSCF        :      4.23s CPU      4.54s WALL


   This run was terminated on:  21:36:13  18Mar2026            

=------------------------------------------------------------------------------=
   JOB DONE.
=------------------------------------------------------------------------------=
