
     Program PWSCF v.7.3.1 starts on 18Mar2026 at 21:36:15 

     This program is part of the open-source Quantum ESPRESSO suite
     for quantum simulation of materials; please cite
         "P. Giannozzi et al., J. Phys.:Condens. Matter 21 395502 (2009);
         "P. Giannozzi et al., J. Phys.:Condens. Matter 29 465901 (2017);
         "P. Giannozzi et al., J. Chem. Phys. 152 154105 (2020);
          URL http://www.quantum-espresso.org", 
     in publications or presentations arising from this work. More details at
     http://www.quantum-espresso.org/quote

     Parallel version (MPI), running on   128 processors

     MPI processes distributed on     1 nodes
     243223 MiB available memory on the printing compute node when the environment starts

     Waiting for input...
     Reading input from standard input

     Current dimensions of program PWSCF are:
     Max number of different atomic species (ntypx) = 10
     Max number of k-points (npk) =  40000
     Max angular momentum in pseudopotentials (lmaxx) =  4

     K-points division:     npool     =       4
     R & G space division:  proc/nbgrp/npool/nimage =      32
     Subspace diagonalization in iterative solution of the eigenvalue problem:
     a serial algorithm will be used


     Parallelization info
     --------------------
     sticks:   dense  smooth     PW     G-vecs:    dense   smooth      PW
     Min          83      83     26                 2358     2358     416
     Max          84      84     27                 2361     2361     418
     Sum        2663    2663    839                75491    75491   13353

     Using Slab Decomposition



     bravais-lattice index     =            5
     lattice parameter (alat)  =      14.7021  a.u.
     unit-cell volume          =    2053.1832 (a.u.)^3
     number of atoms/cell      =           36
     number of atomic types    =            2
     number of electrons       =        96.00
     number of Kohn-Sham states=           48
     kinetic-energy cutoff     =      42.0000  Ry
     charge density cutoff     =     168.0000  Ry
     scf convergence threshold =      1.0E-07
     mixing beta               =       0.7000
     number of iterations used =            8  plain     mixing
     Exchange-correlation=  SLA  PW   PBE  PBE
                           (   1   4   3   4   0   0   0)

     celldm(1)=  14.702068  celldm(2)=   0.000000  celldm(3)=   0.000000
     celldm(4)=  -0.392337  celldm(5)=   0.000000  celldm(6)=   0.000000

     crystal axes: (cart. coord. in units of alat)
               a(1) = (   0.834367  -0.481722   0.267909 )  
               a(2) = (   0.000000   0.963444   0.267909 )  
               a(3) = (  -0.834367  -0.481722   0.267909 )  

     reciprocal axes: (cart. coord. in units 2 pi/alat)
               b(1) = (  0.599257 -0.345981  1.244203 )  
               b(2) = ( -0.000000  0.691962  1.244203 )  
               b(3) = ( -0.599257 -0.345981  1.244203 )  


     PseudoPot. # 1 for H  read from file:
     ./H.pbe-van_ak.UPF
     MD5 check sum: 077eb6d537518a38cb46c6de387227b7
     Pseudo is Ultrasoft, Zval =  1.0
     Generated by new atomic code, or converted to UPF format
     Using radial grid of  615 points,  1 beta functions with: 
                l(1) =   0
     Q(r) pseudized with  8 coefficients,  rinner =    0.800

     PseudoPot. # 2 for O  read from file:
     ./O.pbe-van_ak.UPF
     MD5 check sum: 78c19812648e8988a0fe644b0f25305e
     Pseudo is Ultrasoft, Zval =  6.0
     Generated by new atomic code, or converted to UPF format
     Using radial grid of  737 points,  4 beta functions with: 
                l(1) =   0
                l(2) =   0
                l(3) =   1
                l(4) =   1
     Q(r) pseudized with  8 coefficients,  rinner =    0.800   0.800   0.800


     atomic species   valence    mass     pseudopotential
     H                 1.00     1.00800     H ( 1.00)
     O                 6.00    16.00000     O ( 1.00)

      6 Sym. Ops., with inversion, found



   Cartesian axes

     site n.     atom                  positions (alat units)
         1        O      tau(   1) = (  -0.4847673  -0.5197781   0.3083633  )
         2        O      tau(   2) = (   0.4847673   0.5197782   0.4953638  )
         3        O      tau(   3) = (   0.6925247  -0.1599317   0.3083633  )
         4        O      tau(   4) = (  -0.6925248   0.1599317   0.4953638  )
         5        O      tau(   5) = (  -0.2077574   0.6797099   0.3083633  )
         6        O      tau(   6) = (   0.2077574  -0.6797099   0.4953638  )
         7        O      tau(   7) = (   0.1218176   0.3323883   0.4179381  )
         8        O      tau(   8) = (  -0.1218176  -0.3323883   0.3857890  )
         9        O      tau(   9) = (  -0.3487655  -0.0606970   0.4179381  )
        10        O      tau(  10) = (   0.3487655   0.0606970   0.3857890  )
        11        O      tau(  11) = (   0.2269479  -0.2716913   0.4179381  )
        12        O      tau(  12) = (  -0.2269479   0.2716912   0.3857890  )
        13        H      tau(  13) = (  -0.5381668  -0.4032014   0.2796970  )
        14        H      tau(  14) = (   0.5381668   0.4032014   0.5240301  )
        15        H      tau(  15) = (   0.6182661  -0.2644654   0.2796970  )
        16        H      tau(  16) = (  -0.6182661   0.2644654   0.5240301  )
        17        H      tau(  17) = (  -0.0800993   0.6676668   0.2796970  )
        18        H      tau(  18) = (   0.0800993  -0.6676668   0.5240301  )
        19        H      tau(  19) = (  -0.4872704  -0.4817221   0.4326731  )
        20        H      tau(  20) = (   0.4872704   0.4817221   0.3710540  )
        21        H      tau(  21) = (   0.6608188  -0.1811275   0.4326731  )
        22        H      tau(  22) = (  -0.6608188   0.1811275   0.3710540  )
        23        H      tau(  23) = (  -0.1735484   0.6628496   0.4326731  )
        24        H      tau(  24) = (   0.1735484  -0.6628496   0.3710540  )
        25        H      tau(  25) = (   0.2703349  -0.1502973   0.4058822  )
        26        H      tau(  26) = (  -0.2703350   0.1502973   0.3978449  )
        27        H      tau(  27) = (  -0.0050062   0.3092656   0.4058822  )
        28        H      tau(  28) = (   0.0050062  -0.3092656   0.3978449  )
        29        H      tau(  29) = (  -0.2653287  -0.1589683   0.4058822  )
        30        H      tau(  30) = (   0.2653287   0.1589683   0.3978449  )
        31        H      tau(  31) = (   0.3178939  -0.3347969   0.3493534  )
        32        H      tau(  32) = (  -0.3178939   0.3347969   0.4543737  )
        33        H      tau(  33) = (   0.1309957   0.4427026   0.3493534  )
        34        H      tau(  34) = (  -0.1309956  -0.4427026   0.4543737  )
        35        H      tau(  35) = (  -0.4488895  -0.1079057   0.3493534  )
        36        H      tau(  36) = (   0.4488895   0.1079057   0.4543737  )

     number of k points=    14
                       cart. coord. in units 2pi/alat
        k(    1) = (   0.0000000   0.0000000   0.0000000), wk =   0.0312500
        k(    2) = (  -0.1498141  -0.0864952   0.3110508), wk =   0.1875000
        k(    3) = (   0.2996283   0.1729905  -0.6221017), wk =   0.0937500
        k(    4) = (  -0.1498141   0.0864952   0.6221017), wk =   0.1875000
        k(    5) = (   0.2996283   0.3459809  -0.3110508), wk =   0.1875000
        k(    6) = (   0.1498141   0.2594857   0.0000000), wk =   0.1875000
        k(    7) = (   0.2996283  -0.1729905  -1.2442034), wk =   0.0937500
        k(    8) = (   0.0000000   0.0000000   0.9331525), wk =   0.0625000
        k(    9) = (   0.4494424   0.2594857   0.0000000), wk =   0.1875000
        k(   10) = (   0.2996283   0.1729905   0.3110508), wk =   0.1875000
        k(   11) = (   0.4494424  -0.2594857  -0.9331525), wk =   0.1875000
        k(   12) = (   0.2996283  -0.3459809  -0.6221017), wk =   0.1875000
        k(   13) = (   0.0000000   0.0000000  -1.8663050), wk =   0.0312500
        k(   14) = (   0.2996283  -0.3459809   0.3110508), wk =   0.1875000

     Dense  grid:    75491 G-vectors     FFT dimensions: (  64,  64,  64)

     Estimated max dynamical RAM per process >       5.63 MB

     Estimated total dynamical RAM >     664.99 MB

     Initial potential from superposition of free atoms

     starting charge      95.9998, renormalised to      96.0000
     Starting wfcs are   72 randomized atomic wfcs

     total cpu time spent up to now is        0.8 secs

     per-process dynamical memory:    10.9 Mb

     Self-consistent Calculation

     iteration #  1     ecut=    42.00 Ry     beta= 0.70
     Davidson diagonalization with overlap
     ethr =  1.00E-02,  avg # of iterations =  2.0

     total cpu time spent up to now is        1.1 secs

     total energy              =    -412.20657082 Ry
     estimated scf accuracy    <       3.70346880 Ry

     iteration #  2     ecut=    42.00 Ry     beta= 0.70
     Davidson diagonalization with overlap
     ethr =  3.86E-03,  avg # of iterations =  3.0

     total cpu time spent up to now is        1.5 secs

     total energy              =    -413.37860183 Ry
     estimated scf accuracy    <       2.33954111 Ry

     iteration #  3     ecut=    42.00 Ry     beta= 0.70
     Davidson diagonalization with overlap
     ethr =  2.44E-03,  avg # of iterations =  2.0

     negative rho (up, down):  3.033E-07 0.000E+00

     total cpu time spent up to now is        1.8 secs

     total energy              =    -413.67390969 Ry
     estimated scf accuracy    <       0.09663598 Ry

     iteration #  4     ecut=    42.00 Ry     beta= 0.70
     Davidson diagonalization with overlap
     ethr =  1.01E-04,  avg # of iterations =  4.1

     negative rho (up, down):  9.696E-07 0.000E+00

     total cpu time spent up to now is        2.2 secs

     total energy              =    -413.75054604 Ry
     estimated scf accuracy    <       0.12148686 Ry

     iteration #  5     ecut=    42.00 Ry     beta= 0.70
     Davidson diagonalization with overlap
     ethr =  1.01E-04,  avg # of iterations =  2.0

     negative rho (up, down):  1.192E-06 0.000E+00

     total cpu time spent up to now is        2.5 secs

     total energy              =    -413.75475604 Ry
     estimated scf accuracy    <       0.02055479 Ry

     iteration #  6     ecut=    42.00 Ry     beta= 0.70
     Davidson diagonalization with overlap
     ethr =  2.14E-05,  avg # of iterations =  2.0

     negative rho (up, down):  1.394E-06 0.000E+00

     total cpu time spent up to now is        2.8 secs

     total energy              =    -413.75383177 Ry
     estimated scf accuracy    <       0.00733774 Ry

     iteration #  7     ecut=    42.00 Ry     beta= 0.70
     Davidson diagonalization with overlap
     ethr =  7.64E-06,  avg # of iterations =  3.0

     negative rho (up, down):  1.462E-06 0.000E+00

     total cpu time spent up to now is        3.1 secs

     total energy              =    -413.75555062 Ry
     estimated scf accuracy    <       0.00012475 Ry

     iteration #  8     ecut=    42.00 Ry     beta= 0.70
     Davidson diagonalization with overlap
     ethr =  1.30E-07,  avg # of iterations =  6.0

     negative rho (up, down):  1.429E-06 0.000E+00

     total cpu time spent up to now is        3.6 secs

     total energy              =    -413.75562081 Ry
     estimated scf accuracy    <       0.00087122 Ry

     iteration #  9     ecut=    42.00 Ry     beta= 0.70
     Davidson diagonalization with overlap
     ethr =  1.30E-07,  avg # of iterations =  3.9

     negative rho (up, down):  1.371E-06 0.000E+00

     total cpu time spent up to now is        4.1 secs

     total energy              =    -413.75568324 Ry
     estimated scf accuracy    <       0.00005971 Ry

     iteration # 10     ecut=    42.00 Ry     beta= 0.70
     Davidson diagonalization with overlap
     ethr =  6.22E-08,  avg # of iterations =  2.1

     negative rho (up, down):  1.376E-06 0.000E+00

     total cpu time spent up to now is        4.4 secs

     total energy              =    -413.75570085 Ry
     estimated scf accuracy    <       0.00000073 Ry

     iteration # 11     ecut=    42.00 Ry     beta= 0.70
     Davidson diagonalization with overlap
     ethr =  7.59E-10,  avg # of iterations =  4.0

     negative rho (up, down):  1.375E-06 0.000E+00

     total cpu time spent up to now is        4.7 secs

     total energy              =    -413.75570122 Ry
     estimated scf accuracy    <       0.00000011 Ry

     iteration # 12     ecut=    42.00 Ry     beta= 0.70
     Davidson diagonalization with overlap
     ethr =  1.09E-10,  avg # of iterations =  2.1

     negative rho (up, down):  1.376E-06 0.000E+00

     total cpu time spent up to now is        5.0 secs

     total energy              =    -413.75570118 Ry
     estimated scf accuracy    <       0.00000012 Ry

     iteration # 13     ecut=    42.00 Ry     beta= 0.70
     Davidson diagonalization with overlap
     ethr =  1.09E-10,  avg # of iterations =  2.0

     negative rho (up, down):  1.377E-06 0.000E+00

     total cpu time spent up to now is        5.3 secs

     End of self-consistent calculation

          k = 0.0000 0.0000 0.0000 (  9387 PWs)   bands (ev):

   -20.8803 -20.4186 -20.4186 -20.1941 -20.1941 -20.1669 -20.1669 -20.1506
   -20.1482 -19.8441 -19.8441 -19.5288  -8.2090  -8.0085  -7.9504  -7.9504
    -7.8653  -7.8653  -7.4468  -7.2918  -7.2918  -7.0743  -7.0743  -6.9406
    -6.8756  -5.9771  -5.9771  -5.3865  -5.3865  -5.3084  -5.3084  -5.0087
    -4.8203  -4.1752  -4.1752  -3.5105  -2.8083  -2.8083  -2.7069  -2.6282
    -2.5797  -2.5797  -2.4387  -2.4387  -2.4174  -2.3981  -2.3494  -2.3494

          k =-0.1498-0.0865 0.3111 (  9445 PWs)   bands (ev):

   -20.8059 -20.4597 -20.4064 -20.3395 -20.3155 -20.2409 -20.0959 -20.0527
   -19.9977 -19.8507 -19.8085 -19.5893  -8.1538  -8.0743  -7.9965  -7.9488
    -7.8478  -7.7855  -7.4442  -7.2621  -7.2478  -7.1096  -6.9805  -6.9442
    -6.7400  -6.1243  -5.9931  -5.7228  -5.3996  -5.2615  -5.1211  -4.8956
    -4.8397  -4.1659  -4.1044  -3.6439  -2.9268  -2.8534  -2.7325  -2.6739
    -2.6172  -2.5812  -2.5388  -2.4751  -2.4099  -2.3712  -2.3354  -2.2878

          k = 0.2996 0.1730-0.6221 (  9416 PWs)   bands (ev):

   -20.6131 -20.6111 -20.4413 -20.4253 -20.3154 -20.3107 -20.0397 -20.0295
   -19.8580 -19.8544 -19.7457 -19.7257  -8.1289  -8.0708  -7.9861  -7.9643
    -7.8524  -7.7902  -7.3899  -7.2650  -7.2234  -7.1198  -6.8962  -6.8955
    -6.4950  -6.3547  -6.0468  -5.8878  -5.3996  -5.3174  -5.1163  -4.9583
    -4.4234  -4.3028  -4.0425  -3.8135  -3.0337  -2.8740  -2.7585  -2.7293
    -2.6563  -2.6349  -2.5445  -2.4839  -2.4652  -2.3324  -2.3212  -2.2417

          k =-0.1498 0.0865 0.6221 (  9450 PWs)   bands (ev):

   -20.6547 -20.5174 -20.5073 -20.3874 -20.3652 -20.2991 -20.0455 -19.9635
   -19.9283 -19.8101 -19.7916 -19.6998  -8.1370  -8.0481  -8.0294  -7.9218
    -7.8701  -7.7759  -7.3950  -7.3030  -7.2502  -7.0146  -6.9463  -6.8914
    -6.5007  -6.2871  -6.1886  -5.7178  -5.5437  -5.3600  -5.0401  -4.8333
    -4.6291  -4.1315  -4.1064  -3.8281  -3.0107  -2.9183  -2.7468  -2.6997
    -2.6656  -2.6156  -2.5716  -2.4860  -2.4544  -2.3425  -2.3253  -2.2356

          k = 0.2996 0.3460-0.3111 (  9431 PWs)   bands (ev):

   -20.7082 -20.5508 -20.4420 -20.4188 -20.3351 -20.2659 -20.0491 -19.9470
   -19.9370 -19.8478 -19.7861 -19.6742  -8.1446  -8.1187  -7.9654  -7.9424
    -7.8819  -7.7854  -7.4278  -7.3654  -7.2386  -6.9822  -6.9504  -6.8791
    -6.6282  -6.3226  -6.0824  -5.7394  -5.6982  -5.1928  -5.0075  -4.7446
    -4.5165  -4.2885  -4.0868  -3.8013  -2.9201  -2.8498  -2.7635  -2.6918
    -2.6378  -2.5851  -2.5239  -2.5143  -2.4291  -2.3883  -2.3275  -2.2227

          k = 0.1498 0.2595 0.0000 (  9431 PWs)   bands (ev):

   -20.8265 -20.4941 -20.4379 -20.3060 -20.2779 -20.1958 -20.1170 -20.0441
   -20.0038 -19.8554 -19.8193 -19.5769  -8.1928  -8.0873  -7.9876  -7.9419
    -7.8226  -7.8164  -7.5007  -7.3576  -7.1689  -7.0780  -7.0099  -6.8974
    -6.8732  -6.1075  -5.9743  -5.7147  -5.6022  -5.1379  -5.0039  -4.8786
    -4.6936  -4.2452  -4.1533  -3.6022  -2.8101  -2.7895  -2.7451  -2.6576
    -2.6180  -2.5911  -2.4732  -2.4577  -2.4229  -2.4138  -2.3089  -2.2942

          k = 0.2996-0.1730-1.2442 (  9462 PWs)   bands (ev):

   -20.6972 -20.6594 -20.4531 -20.3561 -20.2777 -20.2192 -20.0614 -20.0258
   -19.9117 -19.8902 -19.7095 -19.6931  -8.1724  -8.1334  -7.9983  -7.9625
    -7.7971  -7.7917  -7.4981  -7.4272  -7.1520  -7.1029  -6.9201  -6.8745
    -6.5596  -6.5170  -6.0464  -5.8250  -5.5096  -5.2593  -4.8786  -4.6238
    -4.5147  -4.4498  -4.0029  -3.8146  -2.8269  -2.7759  -2.7584  -2.6921
    -2.6208  -2.5610  -2.5412  -2.4664  -2.4564  -2.4095  -2.2737  -2.2598

          k = 0.0000 0.0000 0.9332 (  9431 PWs)   bands (ev):

   -20.5999 -20.5999 -20.5198 -20.4746 -20.2951 -20.2951 -19.9733 -19.9733
   -19.8509 -19.8115 -19.7843 -19.7843  -8.1201  -8.1201  -7.9816  -7.8804
    -7.8804  -7.8714  -7.4366  -7.3334  -7.3334  -6.8881  -6.8881  -6.8496
    -6.4239  -6.4230  -6.4230  -5.7643  -5.4542  -5.4542  -4.7937  -4.6086
    -4.6086  -4.1523  -4.1523  -3.9840  -2.8622  -2.8622  -2.7386  -2.6768
    -2.6095  -2.6095  -2.5517  -2.4876  -2.4876  -2.3739  -2.3739  -2.1983

          k = 0.4494 0.2595 0.0000 (  9437 PWs)   bands (ev):

   -20.7269 -20.5595 -20.5532 -20.3577 -20.2223 -20.2115 -20.0764 -20.0692
   -19.9124 -19.8180 -19.7837 -19.6635  -8.1663  -8.1228  -8.0541  -7.8987
    -7.8388  -7.7747  -7.5152  -7.3766  -7.2464  -6.9973  -6.9442  -6.8967
    -6.6651  -6.2862  -6.2084  -5.7775  -5.5227  -5.2542  -4.8034  -4.7640
    -4.5582  -4.2559  -4.1157  -3.7875  -2.8082  -2.8007  -2.7462  -2.6967
    -2.6357  -2.5765  -2.5069  -2.4837  -2.4312  -2.3863  -2.3259  -2.2406

          k = 0.2996 0.1730 0.3111 (  9453 PWs)   bands (ev):

   -20.7556 -20.5054 -20.4158 -20.4032 -20.3146 -20.2565 -20.0635 -20.0340
   -19.9620 -19.8392 -19.7850 -19.6275  -8.1646  -8.1060  -8.0218  -7.8925
    -7.8868  -7.7346  -7.4638  -7.3333  -7.1514  -7.0771  -7.0301  -6.9301
    -6.6552  -6.1287  -5.9545  -5.8696  -5.6406  -5.2886  -4.9921  -4.7911
    -4.6341  -4.2319  -4.0960  -3.6867  -2.9388  -2.8628  -2.7857  -2.7316
    -2.6330  -2.5916  -2.5151  -2.4818  -2.3974  -2.3566  -2.2972  -2.2804

          k = 0.4494-0.2595-0.9332 (  9438 PWs)   bands (ev):

   -20.6250 -20.6225 -20.4843 -20.4289 -20.3023 -20.2261 -20.1028 -20.0187
   -19.8748 -19.8207 -19.7694 -19.6860  -8.1934  -8.0931  -8.0523  -7.8993
    -7.8520  -7.7151  -7.5096  -7.2916  -7.1704  -7.1138  -6.9663  -6.9359
    -6.3920  -6.3539  -6.0307  -5.8813  -5.6934  -5.3773  -4.9493  -4.6678
    -4.3635  -4.3246  -4.1381  -3.7566  -2.9377  -2.8825  -2.8448  -2.7319
    -2.6964  -2.6075  -2.4641  -2.4418  -2.4100  -2.3696  -2.2992  -2.2443

          k = 0.2996-0.3460-0.6221 (  9438 PWs)   bands (ev):

   -20.5798 -20.5737 -20.4727 -20.4619 -20.3343 -20.3324 -20.0225 -20.0151
   -19.8628 -19.8549 -19.7398 -19.7191  -8.2071  -8.0066  -7.9762  -7.9571
    -7.9210  -7.7187  -7.4221  -7.3014  -7.1478  -7.1013  -6.9445  -6.9394
    -6.3561  -6.2286  -6.0657  -5.9388  -5.6155  -5.5797  -4.8673  -4.7950
    -4.3706  -4.3276  -4.1462  -3.7404  -3.0644  -2.8972  -2.8424  -2.7716
    -2.7161  -2.5773  -2.5093  -2.4696  -2.4463  -2.3232  -2.3058  -2.2259

          k = 0.0000 0.0000-1.8663 (  9470 PWs)   bands (ev):

   -20.5478 -20.5293 -20.4356 -20.4356 -20.4337 -20.4337 -19.9475 -19.9475
   -19.9132 -19.9132 -19.7244 -19.7071  -8.2553  -7.9692  -7.9692  -7.9484
    -7.9484  -7.6877  -7.4724  -7.2991  -7.0515  -7.0515  -7.0203  -7.0203
    -6.1801  -6.0007  -5.9434  -5.9434  -5.9384  -5.9384  -4.6470  -4.6470
    -4.4095  -4.4095  -4.1640  -3.6901  -3.0961  -2.9001  -2.9001  -2.8098
    -2.8098  -2.5220  -2.5045  -2.4055  -2.4055  -2.3369  -2.3369  -2.2004

          k = 0.2996-0.3460 0.3111 (  9431 PWs)   bands (ev):

   -20.7082 -20.5497 -20.4491 -20.4140 -20.3321 -20.2667 -20.0503 -19.9613
   -19.9164 -19.8592 -19.7789 -19.6761  -8.1599  -8.0854  -8.0023  -7.9373
    -7.8546  -7.7924  -7.4756  -7.3340  -7.2140  -7.0208  -6.9140  -6.9001
    -6.6204  -6.2550  -6.1773  -5.7897  -5.5527  -5.2557  -5.0883  -4.6541
    -4.4942  -4.2762  -4.1573  -3.7793  -2.9281  -2.8208  -2.7798  -2.6887
    -2.6435  -2.5905  -2.5251  -2.5143  -2.4465  -2.3571  -2.3283  -2.2311

     highest occupied level (ev):    -2.1983

!    total energy              =    -413.75570118 Ry
     estimated scf accuracy    <       0.00000001 Ry

     The total energy is the sum of the following terms:
     one-electron contribution =    -290.82320232 Ry
     hartree contribution      =     179.85149311 Ry
     xc contribution           =    -101.23939976 Ry
     ewald contribution        =    -201.54459221 Ry

     convergence has been achieved in  13 iterations

     Forces acting on atoms (cartesian axes, Ry/au):

     atom    1 type  2   force =    -0.03442563    0.06357349    0.03047108
     atom    2 type  2   force =     0.03442563   -0.06357349   -0.03047108
     atom    3 type  2   force =    -0.03784344   -0.06160021    0.03047108
     atom    4 type  2   force =     0.03784344    0.06160021   -0.03047108
     atom    5 type  2   force =     0.07226907   -0.00197327    0.03047108
     atom    6 type  2   force =    -0.07226907    0.00197327   -0.03047108
     atom    7 type  2   force =    -0.03066794    0.02379626   -0.02136895
     atom    8 type  2   force =     0.03066794   -0.02379626    0.02136895
     atom    9 type  2   force =    -0.00527419   -0.03845734   -0.02136895
     atom   10 type  2   force =     0.00527419    0.03845734    0.02136895
     atom   11 type  2   force =     0.03594213    0.01466109   -0.02136895
     atom   12 type  2   force =    -0.03594213   -0.01466109    0.02136895
     atom   13 type  1   force =     0.00316723   -0.02588862   -0.05126906
     atom   14 type  1   force =    -0.00316723    0.02588862    0.05126906
     atom   15 type  1   force =     0.02083658    0.01568721   -0.05126906
     atom   16 type  1   force =    -0.02083658   -0.01568721    0.05126906
     atom   17 type  1   force =    -0.02400381    0.01020141   -0.05126906
     atom   18 type  1   force =     0.02400381   -0.01020141    0.05126906
     atom   19 type  1   force =     0.02972354   -0.04467335    0.01023133
     atom   20 type  1   force =    -0.02972354    0.04467335   -0.01023133
     atom   21 type  1   force =     0.02382649    0.04807801    0.01023133
     atom   22 type  1   force =    -0.02382649   -0.04807801   -0.01023133
     atom   23 type  1   force =    -0.05355002   -0.00340466    0.01023133
     atom   24 type  1   force =     0.05355002    0.00340466   -0.01023133
     atom   25 type  1   force =    -0.01366663   -0.00240085    0.01260409
     atom   26 type  1   force =     0.01366663    0.00240085   -0.01260409
     atom   27 type  1   force =     0.00891251   -0.01063523    0.01260409
     atom   28 type  1   force =    -0.00891251    0.01063523   -0.01260409
     atom   29 type  1   force =     0.00475412    0.01303608    0.01260409
     atom   30 type  1   force =    -0.00475412   -0.01303608   -0.01260409
     atom   31 type  1   force =    -0.02865258   -0.00938265    0.01618760
     atom   32 type  1   force =     0.02865258    0.00938265   -0.01618760
     atom   33 type  1   force =     0.02245191   -0.02012254    0.01618760
     atom   34 type  1   force =    -0.02245191    0.02012254   -0.01618760
     atom   35 type  1   force =     0.00620067    0.02950519    0.01618760
     atom   36 type  1   force =    -0.00620067   -0.02950519   -0.01618760

     Total force =     0.309196     Total SCF correction =     0.000109


     Computing stress (Cartesian axis) and pressure

          total   stress  (Ry/bohr**3)                   (kbar)     P=      -32.75
  -0.00029988  -0.00000000   0.00000000          -44.11       -0.00        0.00
   0.00000000  -0.00029988  -0.00000000            0.00      -44.11       -0.00
  -0.00000000  -0.00000000  -0.00006818           -0.00       -0.00      -10.03


     Writing all to output data dir ./iceII_2/iceII_2.save/ :
     XML data file, charge density, pseudopotentials, collected wavefunctions

     init_run     :      0.50s CPU      0.56s WALL (       1 calls)
     electrons    :      4.37s CPU      4.53s WALL (       1 calls)
     forces       :      0.04s CPU      0.05s WALL (       1 calls)
     stress       :      0.27s CPU      0.29s WALL (       1 calls)

     Called by init_run:
     wfcinit      :      0.17s CPU      0.19s WALL (       1 calls)
     potinit      :      0.02s CPU      0.03s WALL (       1 calls)
     hinit0       :      0.27s CPU      0.28s WALL (       1 calls)

     Called by electrons:
     c_bands      :      3.81s CPU      3.90s WALL (      13 calls)
     sum_band     :      0.43s CPU      0.45s WALL (      13 calls)
     v_of_rho     :      0.10s CPU      0.10s WALL (      14 calls)
     newd         :      0.02s CPU      0.02s WALL (      14 calls)
     mix_rho      :      0.01s CPU      0.02s WALL (      13 calls)

     Called by c_bands:
     init_us_2    :      0.03s CPU      0.04s WALL (     116 calls)
     cegterg      :      3.73s CPU      3.80s WALL (      52 calls)

     Called by *egterg:
     cdiaghg      :      0.77s CPU      0.78s WALL (     205 calls)
     h_psi        :      2.55s CPU      2.59s WALL (     209 calls)
     s_psi        :      0.11s CPU      0.11s WALL (     209 calls)
     g_psi        :      0.01s CPU      0.01s WALL (     153 calls)

     Called by h_psi:
     h_psi:calbec :      0.16s CPU      0.16s WALL (     209 calls)
     vloc_psi     :      2.26s CPU      2.30s WALL (     209 calls)
     add_vuspsi   :      0.12s CPU      0.12s WALL (     209 calls)

     General routines
     calbec       :      0.22s CPU      0.22s WALL (     281 calls)
     fft          :      0.30s CPU      0.31s WALL (     162 calls)
     ffts         :      0.00s CPU      0.00s WALL (      13 calls)
     fftw         :      2.40s CPU      2.44s WALL (   18492 calls)

     Parallel routines

     PWSCF        :      5.42s CPU      5.88s WALL


   This run was terminated on:  21:36:21  18Mar2026            

=------------------------------------------------------------------------------=
   JOB DONE.
=------------------------------------------------------------------------------=
