
     Program PWSCF v.7.3.1 starts on 26Mar2026 at 14:55: 7 

     This program is part of the open-source Quantum ESPRESSO suite
     for quantum simulation of materials; please cite
         "P. Giannozzi et al., J. Phys.:Condens. Matter 21 395502 (2009);
         "P. Giannozzi et al., J. Phys.:Condens. Matter 29 465901 (2017);
         "P. Giannozzi et al., J. Chem. Phys. 152 154105 (2020);
          URL http://www.quantum-espresso.org", 
     in publications or presentations arising from this work. More details at
     http://www.quantum-espresso.org/quote

     Parallel version (MPI), running on   128 processors

     MPI processes distributed on     1 nodes
     242811 MiB available memory on the printing compute node when the environment starts

     Waiting for input...
     Reading input from standard input

     Current dimensions of program PWSCF are:
     Max number of different atomic species (ntypx) = 10
     Max number of k-points (npk) =  40000
     Max angular momentum in pseudopotentials (lmaxx) =  4

     IMPORTANT: XC functional enforced from input :
     Exchange-correlation= VDW-DF2
                           (   1   4  13   0   2   0   0)
     Any further DFT definition will be discarded
     Please, verify this is what you really want


     K-points division:     npool     =       4
     R & G space division:  proc/nbgrp/npool/nimage =      32
     Subspace diagonalization in iterative solution of the eigenvalue problem:
     a serial algorithm will be used


     Parallelization info
     --------------------
     sticks:   dense  smooth     PW     G-vecs:    dense   smooth      PW
     Min         179     179     52                 7491     7491    1189
     Max         180     180     53                 7494     7494    1192
     Sum        5747    5747   1687               239765   239765   38113

     Using Slab Decomposition



     bravais-lattice index     =            5
     lattice parameter (alat)  =      14.7609  a.u.
     unit-cell volume          =    2077.9201 (a.u.)^3
     number of atoms/cell      =           36
     number of atomic types    =            2
     number of electrons       =        96.00
     number of Kohn-Sham states=           48
     kinetic-energy cutoff     =      90.0000  Ry
     charge density cutoff     =     360.0000  Ry
     scf convergence threshold =      1.0E-07
     mixing beta               =       0.7000
     number of iterations used =            8  plain     mixing
     Exchange-correlation= VDW-DF2
                           (   1   4  13   0   2   0   0)

     celldm(1)=  14.760876  celldm(2)=   0.000000  celldm(3)=   0.000000
     celldm(4)=  -0.392337  celldm(5)=   0.000000  celldm(6)=   0.000000

     crystal axes: (cart. coord. in units of alat)
               a(1) = (   0.834367  -0.481722   0.267909 )  
               a(2) = (   0.000000   0.963444   0.267909 )  
               a(3) = (  -0.834367  -0.481722   0.267909 )  

     reciprocal axes: (cart. coord. in units 2 pi/alat)
               b(1) = (  0.599257 -0.345981  1.244203 )  
               b(2) = ( -0.000000  0.691962  1.244203 )  
               b(3) = ( -0.599257 -0.345981  1.244203 )  


     PseudoPot. # 1 for H  read from file:
     ./H.pbe-van_ak.UPF
     MD5 check sum: 077eb6d537518a38cb46c6de387227b7
     Pseudo is Ultrasoft, Zval =  1.0
     Generated by new atomic code, or converted to UPF format
     Using radial grid of  615 points,  1 beta functions with: 
                l(1) =   0
     Q(r) pseudized with  8 coefficients,  rinner =    0.800

     PseudoPot. # 2 for O  read from file:
     ./O.pbe-van_ak.UPF
     MD5 check sum: 78c19812648e8988a0fe644b0f25305e
     Pseudo is Ultrasoft, Zval =  6.0
     Generated by new atomic code, or converted to UPF format
     Using radial grid of  737 points,  4 beta functions with: 
                l(1) =   0
                l(2) =   0
                l(3) =   1
                l(4) =   1
     Q(r) pseudized with  8 coefficients,  rinner =    0.800   0.800   0.800


     atomic species   valence    mass     pseudopotential
     H                 1.00     1.00800     H ( 1.00)
     O                 6.00    16.00000     O ( 1.00)

      6 Sym. Ops., with inversion, found



   Cartesian axes

     site n.     atom                  positions (alat units)
         1        O      tau(   1) = (  -0.4881587  -0.5153728   0.3102004  )
         2        O      tau(   2) = (   0.4881587   0.5153729   0.4935268  )
         3        O      tau(   3) = (   0.6904053  -0.1650714   0.3102004  )
         4        O      tau(   4) = (  -0.6904053   0.1650714   0.4935268  )
         5        O      tau(   5) = (  -0.2022466   0.6804442   0.3102004  )
         6        O      tau(   6) = (   0.2022466  -0.6804442   0.4935268  )
         7        O      tau(   7) = (   0.1208629   0.3351200   0.4137471  )
         8        O      tau(   8) = (  -0.1208629  -0.3351200   0.3899800  )
         9        O      tau(   9) = (  -0.3506539  -0.0628897   0.4137471  )
        10        O      tau(  10) = (   0.3506539   0.0628897   0.3899800  )
        11        O      tau(  11) = (   0.2297910  -0.2722304   0.4137471  )
        12        O      tau(  12) = (  -0.2297910   0.2722304   0.3899800  )
        13        H      tau(  13) = (  -0.5430428  -0.4102686   0.2622098  )
        14        H      tau(  14) = (   0.5430428   0.4102686   0.5415173  )
        15        H      tau(  15) = (   0.6268245  -0.2651546   0.2622098  )
        16        H      tau(  16) = (  -0.6268245   0.2651546   0.5415173  )
        17        H      tau(  17) = (  -0.0837816   0.6754232   0.2622098  )
        18        H      tau(  18) = (   0.0837817  -0.6754232   0.5415173  )
        19        H      tau(  19) = (  -0.4681736  -0.4859583   0.4327384  )
        20        H      tau(  20) = (   0.4681736   0.4859583   0.3709887  )
        21        H      tau(  21) = (   0.6549390  -0.1624711   0.4327384  )
        22        H      tau(  22) = (  -0.6549390   0.1624711   0.3709887  )
        23        H      tau(  23) = (  -0.1867654   0.6484294   0.4327384  )
        24        H      tau(  24) = (   0.1867654  -0.6484294   0.3709887  )
        25        H      tau(  25) = (   0.2718867  -0.1516220   0.4118766  )
        26        H      tau(  26) = (  -0.2718867   0.1516219   0.3918506  )
        27        H      tau(  27) = (  -0.0046349   0.3112717   0.4118766  )
        28        H      tau(  28) = (   0.0046349  -0.3112717   0.3918506  )
        29        H      tau(  29) = (  -0.2672518  -0.1596498   0.4118766  )
        30        H      tau(  30) = (   0.2672518   0.1596498   0.3918506  )
        31        H      tau(  31) = (   0.3136186  -0.3416266   0.3473301  )
        32        H      tau(  32) = (  -0.3136186   0.3416266   0.4563970  )
        33        H      tau(  33) = (   0.1390481   0.4424150   0.3473301  )
        34        H      tau(  34) = (  -0.1390480  -0.4424150   0.4563970  )
        35        H      tau(  35) = (  -0.4526667  -0.1007884   0.3473301  )
        36        H      tau(  36) = (   0.4526666   0.1007884   0.4563970  )

     number of k points=    14
                       cart. coord. in units 2pi/alat
        k(    1) = (   0.0000000   0.0000000   0.0000000), wk =   0.0312500
        k(    2) = (  -0.1498141  -0.0864952   0.3110508), wk =   0.1875000
        k(    3) = (   0.2996283   0.1729905  -0.6221017), wk =   0.0937500
        k(    4) = (  -0.1498141   0.0864952   0.6221017), wk =   0.1875000
        k(    5) = (   0.2996283   0.3459809  -0.3110508), wk =   0.1875000
        k(    6) = (   0.1498141   0.2594857   0.0000000), wk =   0.1875000
        k(    7) = (   0.2996283  -0.1729905  -1.2442034), wk =   0.0937500
        k(    8) = (   0.0000000   0.0000000   0.9331525), wk =   0.0625000
        k(    9) = (   0.4494424   0.2594857   0.0000000), wk =   0.1875000
        k(   10) = (   0.2996283   0.1729905   0.3110508), wk =   0.1875000
        k(   11) = (   0.4494424  -0.2594857  -0.9331525), wk =   0.1875000
        k(   12) = (   0.2996283  -0.3459809  -0.6221017), wk =   0.1875000
        k(   13) = (   0.0000000   0.0000000  -1.8663050), wk =   0.0312500
        k(   14) = (   0.2996283  -0.3459809   0.3110508), wk =   0.1875000

     Dense  grid:   239765 G-vectors     FFT dimensions: (  90,  90,  90)

     Estimated max dynamical RAM per process >      15.65 MB

     Estimated total dynamical RAM >       1.78 GB

     Initial potential from superposition of free atoms

     starting charge      95.9998, renormalised to      96.0000


     %%%%%%%%%%%%%%%%%%%%%%%%%%%%%%%%%%%%%%%%%%%%%%%%%%%%%%%%%%%%%%%%%%%%%%%%
     %                                                                      %
     % You are using vdW-DF, which was implemented by the Thonhauser group. %
     % Please cite the following two papers that made this development      %
     % possible and the two reviews that describe the various versions:     %
     %                                                                      %
     %   T. Thonhauser et al., PRL 115, 136402 (2015).                      %
     %   T. Thonhauser et al., PRB 76, 125112 (2007).                       %
     %   K. Berland et al., Rep. Prog. Phys. 78, 066501 (2015).             %
     %   D.C. Langreth et al., J. Phys.: Condens. Matter 21, 084203 (2009). %
     %                                                                      %
     % If you are calculating stress with vdW-DF, please also cite:         %
     %                                                                      %
     %   R. Sabatini et al., J. Phys.: Condens. Matter 24, 424209 (2012).   %
     %                                                                      %
     %%%%%%%%%%%%%%%%%%%%%%%%%%%%%%%%%%%%%%%%%%%%%%%%%%%%%%%%%%%%%%%%%%%%%%%%

     %%%%%%%%%%%%%%%%%%%%%%%%%%%%%%%%%%%%%%%%%%%%%%%%%%%%%%%%%%%%%%%%%%%%%%%%
     %                                                                      %
     %  vdW-DF NEWS:                                                        %
     %                                                                      %
     %  * vdW-DF3 is now available. DOI: 10.1021/acs.jctc.0c00471           %
     %    use with input_dft = 'vdW-DF3-opt1' or 'vdW-DF3-opt2'             %
     %                                                                      %
     %  * Unscreened and range-separated hybrid vdW-DF-cx functionals       %
     %    DOI: 10.1063/1.4986522 and 10.1088/1361-648X/ac2ad2               %
     %    use with input_dft = 'vdW-DF-cx0'    and 'vdW-DF-ahcx'            %
     %  * Unscreened and range-separated hybrid vdW-DF2-b86r functionals    %
     %    DOI: 10.1063/1.4986522 and DOI: 10.1103/PhysRevX.12.041003        %
     %    use with input_dft = 'vdW-DF2-br0' and 'vdW-DF2-ahbr'             %
     %                                                                      %
     %%%%%%%%%%%%%%%%%%%%%%%%%%%%%%%%%%%%%%%%%%%%%%%%%%%%%%%%%%%%%%%%%%%%%%%%


     Starting wfcs are   72 randomized atomic wfcs

     total cpu time spent up to now is        2.9 secs

     per-process dynamical memory:    19.7 Mb

     Self-consistent Calculation

     iteration #  1     ecut=    90.00 Ry     beta= 0.70
     Davidson diagonalization with overlap
     ethr =  1.00E-02,  avg # of iterations =  2.0

     total cpu time spent up to now is        3.8 secs

     total energy              =    -415.94110501 Ry
     estimated scf accuracy    <       4.74485263 Ry

     iteration #  2     ecut=    90.00 Ry     beta= 0.70
     Davidson diagonalization with overlap
     ethr =  4.94E-03,  avg # of iterations =  3.0

     total cpu time spent up to now is        5.0 secs

     total energy              =    -417.49770568 Ry
     estimated scf accuracy    <       3.40520841 Ry

     iteration #  3     ecut=    90.00 Ry     beta= 0.70
     Davidson diagonalization with overlap
     ethr =  3.55E-03,  avg # of iterations =  2.0

     total cpu time spent up to now is        6.0 secs

     total energy              =    -417.94342833 Ry
     estimated scf accuracy    <       0.14711343 Ry

     iteration #  4     ecut=    90.00 Ry     beta= 0.70
     Davidson diagonalization with overlap
     ethr =  1.53E-04,  avg # of iterations =  4.0

     total cpu time spent up to now is        7.4 secs

     total energy              =    -418.05633524 Ry
     estimated scf accuracy    <       0.18454081 Ry

     iteration #  5     ecut=    90.00 Ry     beta= 0.70
     Davidson diagonalization with overlap
     ethr =  1.53E-04,  avg # of iterations =  2.0

     total cpu time spent up to now is        8.2 secs

     total energy              =    -418.06153690 Ry
     estimated scf accuracy    <       0.02702675 Ry

     iteration #  6     ecut=    90.00 Ry     beta= 0.70
     Davidson diagonalization with overlap
     ethr =  2.82E-05,  avg # of iterations =  2.0

     total cpu time spent up to now is        9.2 secs

     total energy              =    -418.06361893 Ry
     estimated scf accuracy    <       0.00405279 Ry

     iteration #  7     ecut=    90.00 Ry     beta= 0.70
     Davidson diagonalization with overlap
     ethr =  4.22E-06,  avg # of iterations =  3.0

     total cpu time spent up to now is       10.3 secs

     total energy              =    -418.06661960 Ry
     estimated scf accuracy    <       0.00122454 Ry

     iteration #  8     ecut=    90.00 Ry     beta= 0.70
     Davidson diagonalization with overlap
     ethr =  1.28E-06,  avg # of iterations =  2.0

     total cpu time spent up to now is       11.3 secs

     total energy              =    -418.06554399 Ry
     estimated scf accuracy    <       0.00334857 Ry

     iteration #  9     ecut=    90.00 Ry     beta= 0.70
     Davidson diagonalization with overlap
     ethr =  1.28E-06,  avg # of iterations =  2.0

     total cpu time spent up to now is       12.3 secs

     total energy              =    -418.06572171 Ry
     estimated scf accuracy    <       0.00056357 Ry

     iteration # 10     ecut=    90.00 Ry     beta= 0.70
     Davidson diagonalization with overlap
     ethr =  5.87E-07,  avg # of iterations =  2.0

     total cpu time spent up to now is       13.1 secs

     total energy              =    -418.06570442 Ry
     estimated scf accuracy    <       0.00020430 Ry

     iteration # 11     ecut=    90.00 Ry     beta= 0.70
     Davidson diagonalization with overlap
     ethr =  2.13E-07,  avg # of iterations =  2.0

     total cpu time spent up to now is       14.1 secs

     total energy              =    -418.06572747 Ry
     estimated scf accuracy    <       0.00002591 Ry

     iteration # 12     ecut=    90.00 Ry     beta= 0.70
     Davidson diagonalization with overlap
     ethr =  2.70E-08,  avg # of iterations =  4.0

     total cpu time spent up to now is       15.2 secs

     total energy              =    -418.06575714 Ry
     estimated scf accuracy    <       0.00000685 Ry

     iteration # 13     ecut=    90.00 Ry     beta= 0.70
     Davidson diagonalization with overlap
     ethr =  7.13E-09,  avg # of iterations =  4.0

     total cpu time spent up to now is       16.5 secs

     total energy              =    -418.06573880 Ry
     estimated scf accuracy    <       0.00008423 Ry

     iteration # 14     ecut=    90.00 Ry     beta= 0.70
     Davidson diagonalization with overlap
     ethr =  7.13E-09,  avg # of iterations =  3.0

     total cpu time spent up to now is       17.7 secs

     total energy              =    -418.06573941 Ry
     estimated scf accuracy    <       0.00001707 Ry

     iteration # 15     ecut=    90.00 Ry     beta= 0.70
     Davidson diagonalization with overlap
     ethr =  7.13E-09,  avg # of iterations =  2.0

     total cpu time spent up to now is       18.7 secs

     total energy              =    -418.06574101 Ry
     estimated scf accuracy    <       0.00000233 Ry

     iteration # 16     ecut=    90.00 Ry     beta= 0.70
     Davidson diagonalization with overlap
     ethr =  2.43E-09,  avg # of iterations =  1.1

     total cpu time spent up to now is       19.4 secs

     total energy              =    -418.06574083 Ry
     estimated scf accuracy    <       0.00000124 Ry

     iteration # 17     ecut=    90.00 Ry     beta= 0.70
     Davidson diagonalization with overlap
     ethr =  1.29E-09,  avg # of iterations =  2.0

     total cpu time spent up to now is       20.4 secs

     total energy              =    -418.06574100 Ry
     estimated scf accuracy    <       0.00000052 Ry

     iteration # 18     ecut=    90.00 Ry     beta= 0.70
     Davidson diagonalization with overlap
     ethr =  5.43E-10,  avg # of iterations =  1.0

     total cpu time spent up to now is       21.1 secs

     total energy              =    -418.06574090 Ry
     estimated scf accuracy    <       0.00000023 Ry

     iteration # 19     ecut=    90.00 Ry     beta= 0.70
     Davidson diagonalization with overlap
     ethr =  2.37E-10,  avg # of iterations =  3.0

     total cpu time spent up to now is       22.2 secs

     End of self-consistent calculation

          k = 0.0000 0.0000 0.0000 ( 29981 PWs)   bands (ev):

   -21.2402 -20.7879 -20.7879 -20.5951 -20.5951 -20.5538 -20.5532 -20.5532
   -20.5520 -20.2698 -20.2698 -19.9729  -8.8381  -8.7683  -8.7683  -8.7422
    -8.6569  -8.6569  -8.3814  -8.3814  -8.3764  -8.3302  -8.3214  -8.3214
    -7.0536  -6.0100  -6.0100  -5.4144  -5.4144  -5.2511  -5.2511  -5.0853
    -4.9746  -4.3108  -4.3108  -3.5979  -3.2429  -3.2429  -3.2099  -3.0773
    -3.0773  -3.0424  -2.9420  -2.9420  -2.8980  -2.8222  -2.7746  -2.7746

          k =-0.1498-0.0865 0.3111 ( 29979 PWs)   bands (ev):

   -21.1695 -20.8284 -20.7789 -20.7261 -20.6914 -20.6258 -20.5084 -20.4659
   -20.4069 -20.2743 -20.2348 -20.0279  -8.8035  -8.7798  -8.7603  -8.7245
    -8.6502  -8.6224  -8.4391  -8.4137  -8.4013  -8.3168  -8.2581  -8.2559
    -6.8896  -6.1743  -6.0408  -5.7274  -5.4937  -5.2591  -5.0964  -4.9620
    -4.8049  -4.3035  -4.2456  -3.7420  -3.3229  -3.2568  -3.2249  -3.1439
    -3.1260  -3.0725  -2.9766  -2.9296  -2.8665  -2.8516  -2.7931  -2.7682

          k = 0.2996 0.1730-0.6221 ( 29952 PWs)   bands (ev):

   -20.9886 -20.9823 -20.8106 -20.7953 -20.6884 -20.6862 -20.4574 -20.4562
   -20.2848 -20.2723 -20.1631 -20.1603  -8.7859  -8.7703  -8.7280  -8.7224
    -8.6506  -8.6007  -8.4584  -8.4443  -8.4143  -8.3039  -8.2179  -8.2065
    -6.5557  -6.4465  -6.0331  -6.0254  -5.4802  -5.4157  -4.9730  -4.8846
    -4.4416  -4.3821  -4.2133  -3.9722  -3.3961  -3.2812  -3.2128  -3.2013
    -3.1449  -3.1053  -3.0266  -2.9331  -2.9138  -2.8310  -2.7769  -2.7600

          k =-0.1498 0.0865 0.6221 ( 29963 PWs)   bands (ev):

   -21.0277 -20.8921 -20.8766 -20.7606 -20.7367 -20.6745 -20.4656 -20.3885
   -20.3455 -20.2332 -20.2174 -20.1271  -8.7846  -8.7664  -8.7397  -8.7242
    -8.6449  -8.5884  -8.4573  -8.4495  -8.4330  -8.2702  -8.2363  -8.2092
    -6.5978  -6.3082  -6.2581  -5.8081  -5.6049  -5.4278  -4.9665  -4.7396
    -4.6204  -4.2882  -4.2171  -3.9943  -3.3803  -3.3085  -3.2062  -3.1827
    -3.1314  -3.1168  -3.0366  -2.9345  -2.9002  -2.8320  -2.7997  -2.7455

          k = 0.2996 0.3460-0.3111 ( 29947 PWs)   bands (ev):

   -21.0745 -20.9179 -20.8269 -20.7873 -20.7158 -20.6520 -20.4634 -20.3628
   -20.3473 -20.2695 -20.2102 -20.1098  -8.7893  -8.7814  -8.7466  -8.7070
    -8.6461  -8.6199  -8.5064  -8.4651  -8.4357  -8.2914  -8.2537  -8.2194
    -6.6088  -6.2901  -6.0937  -5.8540  -5.7853  -5.2680  -4.8837  -4.7921
    -4.6178  -4.3481  -4.2136  -3.9393  -3.3218  -3.2749  -3.2203  -3.1710
    -3.1228  -3.0576  -3.0001  -2.9687  -2.8753  -2.8725  -2.7883  -2.7050

          k = 0.1498 0.2595 0.0000 ( 29931 PWs)   bands (ev):

   -21.1881 -20.8607 -20.8054 -20.7003 -20.6713 -20.5977 -20.5103 -20.4457
   -20.4055 -20.2780 -20.2487 -20.0186  -8.8207  -8.7745  -8.7666  -8.7234
    -8.6565  -8.6483  -8.4668  -8.4350  -8.3965  -8.3344  -8.3048  -8.2576
    -6.8764  -6.0681  -5.9643  -5.7621  -5.7250  -5.1641  -4.9883  -4.8701
    -4.8437  -4.3466  -4.3026  -3.6952  -3.2466  -3.2330  -3.2254  -3.1304
    -3.0848  -3.0582  -2.9743  -2.9575  -2.8763  -2.8532  -2.7535  -2.7333

          k = 0.2996-0.1730-1.2442 ( 29964 PWs)   bands (ev):

   -21.0664 -21.0194 -20.8179 -20.7501 -20.6669 -20.6229 -20.4485 -20.4365
   -20.3172 -20.3102 -20.1403 -20.1332  -8.7997  -8.7776  -8.7528  -8.7090
    -8.6509  -8.6505  -8.5367  -8.4775  -8.4195  -8.3055  -8.3006  -8.2447
    -6.4537  -6.4253  -6.0576  -5.9198  -5.6676  -5.2956  -4.8036  -4.7878
    -4.6091  -4.4734  -4.1174  -3.9464  -3.2588  -3.2339  -3.2095  -3.1664
    -3.0954  -3.0583  -3.0049  -2.9363  -2.9330  -2.8450  -2.7187  -2.7169

          k = 0.0000 0.0000 0.9332 ( 29883 PWs)   bands (ev):

   -20.9698 -20.9698 -20.8842 -20.8594 -20.6764 -20.6764 -20.3883 -20.3883
   -20.2624 -20.2420 -20.2103 -20.2103  -8.7814  -8.7814  -8.7541  -8.6662
    -8.6662  -8.6492  -8.5412  -8.4656  -8.4656  -8.2343  -8.2343  -8.2119
    -6.3624  -6.3624  -6.3227  -5.9270  -5.5794  -5.5794  -4.6502  -4.6502
    -4.5822  -4.2779  -4.2779  -4.1673  -3.2793  -3.2793  -3.1875  -3.1659
    -3.0899  -3.0899  -3.0466  -2.9339  -2.9339  -2.8350  -2.8350  -2.6808

          k = 0.4494 0.2595 0.0000 ( 29931 PWs)   bands (ev):

   -21.0918 -20.9300 -20.9144 -20.7518 -20.6177 -20.6042 -20.4822 -20.4648
   -20.3105 -20.2442 -20.2166 -20.1012  -8.7957  -8.7724  -8.7652  -8.7011
    -8.6757  -8.6212  -8.5448  -8.4726  -8.4362  -8.3017  -8.2889  -8.2487
    -6.5749  -6.1684  -6.1204  -6.0257  -5.6271  -5.2922  -4.8880  -4.8044
    -4.5258  -4.3636  -4.2593  -3.9070  -3.2462  -3.2365  -3.2191  -3.1601
    -3.1108  -3.0653  -2.9894  -2.9625  -2.9097  -2.8197  -2.7598  -2.6986

          k = 0.2996 0.1730 0.3111 ( 29984 PWs)   bands (ev):

   -21.1204 -20.8695 -20.7931 -20.7795 -20.7083 -20.6383 -20.4797 -20.4301
   -20.3830 -20.2562 -20.2143 -20.0652  -8.7944  -8.7806  -8.7485  -8.7023
    -8.6578  -8.5992  -8.4795  -8.4279  -8.3956  -8.3544  -8.2976  -8.2351
    -6.7270  -6.1410  -6.1080  -5.8124  -5.6983  -5.2570  -4.9934  -4.8195
    -4.7610  -4.2933  -4.2361  -3.8048  -3.3441  -3.2684  -3.2424  -3.1855
    -3.1513  -3.0383  -3.0132  -2.9365  -2.8487  -2.8474  -2.7737  -2.7463

          k = 0.4494-0.2595-0.9332 ( 29976 PWs)   bands (ev):

   -20.9975 -20.9826 -20.8558 -20.8084 -20.6948 -20.6093 -20.5159 -20.4174
   -20.2992 -20.2353 -20.1955 -20.1252  -8.7855  -8.7637  -8.7524  -8.6812
    -8.6440  -8.5929  -8.5050  -8.4623  -8.4243  -8.3611  -8.2932  -8.2518
    -6.4147  -6.3046  -6.1558  -5.9365  -5.7246  -5.2948  -5.0371  -4.7479
    -4.5065  -4.2935  -4.2506  -3.9129  -3.3504  -3.2909  -3.2618  -3.2029
    -3.1769  -3.0649  -2.9668  -2.9472  -2.8692  -2.8299  -2.7539  -2.7301

          k = 0.2996-0.3460-0.6221 ( 29992 PWs)   bands (ev):

   -20.9537 -20.9439 -20.8457 -20.8336 -20.7112 -20.7100 -20.4385 -20.4353
   -20.2811 -20.2741 -20.1623 -20.1555  -8.7871  -8.7392  -8.7218  -8.6999
    -8.6787  -8.5476  -8.4921  -8.4511  -8.4093  -8.3364  -8.2525  -8.2402
    -6.4156  -6.3806  -6.0960  -6.0416  -5.5615  -5.5233  -4.8777  -4.8081
    -4.4649  -4.4306  -4.1693  -3.9507  -3.4161  -3.2964  -3.2590  -3.2544
    -3.1940  -3.0690  -2.9660  -2.9513  -2.8990  -2.8083  -2.7930  -2.7326

          k = 0.0000 0.0000-1.8663 ( 30036 PWs)   bands (ev):

   -20.9143 -20.8898 -20.8163 -20.8163 -20.8158 -20.8158 -20.3547 -20.3547
   -20.3360 -20.3360 -20.1547 -20.1400  -8.7858  -8.6974  -8.6974  -8.6962
    -8.6962  -8.5404  -8.4795  -8.4634  -8.3894  -8.3894  -8.2852  -8.2852
    -6.4021  -6.2491  -5.9132  -5.9132  -5.8252  -5.8252  -4.6186  -4.6186
    -4.6023  -4.6023  -4.1182  -3.9288  -3.4157  -3.3004  -3.3004  -3.2893
    -3.2893  -3.0150  -2.9731  -2.8812  -2.8812  -2.8256  -2.8256  -2.7010

          k = 0.2996-0.3460 0.3111 ( 29947 PWs)   bands (ev):

   -21.0747 -20.9155 -20.8340 -20.7832 -20.7147 -20.6515 -20.4623 -20.3699
   -20.3453 -20.2665 -20.2087 -20.1112  -8.7936  -8.7704  -8.7546  -8.6920
    -8.6591  -8.6218  -8.5172  -8.4596  -8.4309  -8.2863  -8.2473  -8.2296
    -6.6114  -6.2588  -6.1577  -5.8319  -5.7266  -5.3320  -4.9815  -4.6565
    -4.5440  -4.4002  -4.2849  -3.9081  -3.3323  -3.2614  -3.2103  -3.1643
    -3.1340  -3.0617  -3.0072  -2.9812  -2.8855  -2.8415  -2.7893  -2.7103

     highest occupied level (ev):    -2.6808

!    total energy              =    -418.06574096 Ry
     estimated scf accuracy    <       0.00000005 Ry

     The total energy is the sum of the following terms:
     one-electron contribution =    -295.44535488 Ry
     hartree contribution      =     182.45921485 Ry
     xc contribution           =    -105.82415059 Ry
     ewald contribution        =    -199.25545033 Ry

     convergence has been achieved in  19 iterations

     Forces acting on atoms (cartesian axes, Ry/au):

     atom    1 type  2   force =    -0.00139054    0.00586763    0.00355567
     atom    2 type  2   force =     0.00139054   -0.00586763   -0.00355567
     atom    3 type  2   force =    -0.00438624   -0.00413806    0.00355567
     atom    4 type  2   force =     0.00438624    0.00413806   -0.00355567
     atom    5 type  2   force =     0.00577678   -0.00172957    0.00355567
     atom    6 type  2   force =    -0.00577678    0.00172957   -0.00355567
     atom    7 type  2   force =    -0.00369939    0.00293332   -0.00249841
     atom    8 type  2   force =     0.00369939   -0.00293332    0.00249841
     atom    9 type  2   force =    -0.00069063   -0.00467043   -0.00249841
     atom   10 type  2   force =     0.00069063    0.00467043    0.00249841
     atom   11 type  2   force =     0.00439003    0.00173711   -0.00249841
     atom   12 type  2   force =    -0.00439003   -0.00173711    0.00249841
     atom   13 type  1   force =     0.00313079   -0.00496705    0.00208000
     atom   14 type  1   force =    -0.00313079    0.00496705   -0.00208000
     atom   15 type  1   force =     0.00273620    0.00519487    0.00208000
     atom   16 type  1   force =    -0.00273620   -0.00519487   -0.00208000
     atom   17 type  1   force =    -0.00586698   -0.00022782    0.00208000
     atom   18 type  1   force =     0.00586698    0.00022782   -0.00208000
     atom   19 type  1   force =    -0.00123049   -0.00139946   -0.00590388
     atom   20 type  1   force =     0.00123049    0.00139946    0.00590388
     atom   21 type  1   force =     0.00182722   -0.00036591   -0.00590388
     atom   22 type  1   force =    -0.00182722    0.00036591    0.00590388
     atom   23 type  1   force =    -0.00059672    0.00176537   -0.00590388
     atom   24 type  1   force =     0.00059672   -0.00176537    0.00590388
     atom   25 type  1   force =    -0.00116805   -0.00662093   -0.00032182
     atom   26 type  1   force =     0.00116805    0.00662093    0.00032182
     atom   27 type  1   force =     0.00631792    0.00229890   -0.00032182
     atom   28 type  1   force =    -0.00631792   -0.00229890    0.00032182
     atom   29 type  1   force =    -0.00514987    0.00432203   -0.00032182
     atom   30 type  1   force =     0.00514987   -0.00432203    0.00032182
     atom   31 type  1   force =    -0.00388880    0.00427669    0.00393043
     atom   32 type  1   force =     0.00388880   -0.00427669   -0.00393043
     atom   33 type  1   force =    -0.00175932   -0.00550614    0.00393043
     atom   34 type  1   force =     0.00175932    0.00550614   -0.00393043
     atom   35 type  1   force =     0.00564812    0.00122946    0.00393043
     atom   36 type  1   force =    -0.00564812   -0.00122946   -0.00393043

     Total force =     0.038639     Total SCF correction =     0.000208


     Computing stress (Cartesian axis) and pressure

          total   stress  (Ry/bohr**3)                   (kbar)     P=       -8.26
  -0.00005729   0.00000000  -0.00000000           -8.43        0.00       -0.00
  -0.00000000  -0.00005729  -0.00000000           -0.00       -8.43       -0.00
  -0.00000000  -0.00000000  -0.00005381           -0.00       -0.00       -7.92


     Writing all to output data dir ./iceII/iceII.save/ :
     XML data file, charge density, pseudopotentials, collected wavefunctions

     init_run     :      2.56s CPU      2.65s WALL (       1 calls)
     electrons    :     18.45s CPU     19.36s WALL (       1 calls)
     forces       :      0.14s CPU      0.14s WALL (       1 calls)
     stress       :      1.05s CPU      1.09s WALL (       1 calls)

     Called by init_run:
     wfcinit      :      0.34s CPU      0.35s WALL (       1 calls)
     potinit      :      1.66s CPU      1.73s WALL (       1 calls)
     hinit0       :      0.39s CPU      0.40s WALL (       1 calls)

     Called by electrons:
     c_bands      :     13.56s CPU     13.71s WALL (      19 calls)
     sum_band     :      2.00s CPU      2.06s WALL (      19 calls)
     v_of_rho     :      4.31s CPU      5.02s WALL (      20 calls)
     newd         :      0.09s CPU      0.09s WALL (      20 calls)
     mix_rho      :      0.08s CPU      0.09s WALL (      19 calls)
     vdW_kernel   :      1.51s CPU      1.52s WALL (       1 calls)

     Called by c_bands:
     init_us_2    :      0.24s CPU      0.25s WALL (     164 calls)
     cegterg      :     13.16s CPU     13.28s WALL (      76 calls)

     Called by *egterg:
     cdiaghg      :      0.98s CPU      0.98s WALL (     260 calls)
     h_psi        :     10.28s CPU     10.37s WALL (     264 calls)
     s_psi        :      0.42s CPU      0.44s WALL (     264 calls)
     g_psi        :      0.03s CPU      0.03s WALL (     184 calls)

     Called by h_psi:
     h_psi:calbec :      0.74s CPU      0.74s WALL (     264 calls)
     vloc_psi     :      9.03s CPU      9.11s WALL (     264 calls)
     add_vuspsi   :      0.44s CPU      0.45s WALL (     264 calls)

     General routines
     calbec       :      0.98s CPU      0.99s WALL (     360 calls)
     fft          :      2.03s CPU      2.44s WALL (    1272 calls)
     ffts         :      0.02s CPU      0.02s WALL (      19 calls)
     fftw         :      9.47s CPU      9.56s WALL (   25896 calls)

     Parallel routines

     PWSCF        :     22.52s CPU     24.13s WALL


   This run was terminated on:  14:55:31  26Mar2026            

=------------------------------------------------------------------------------=
   JOB DONE.
=------------------------------------------------------------------------------=
