
     Program PWSCF v.7.3.1 starts on  1Apr2026 at 14:45:55 

     This program is part of the open-source Quantum ESPRESSO suite
     for quantum simulation of materials; please cite
         "P. Giannozzi et al., J. Phys.:Condens. Matter 21 395502 (2009);
         "P. Giannozzi et al., J. Phys.:Condens. Matter 29 465901 (2017);
         "P. Giannozzi et al., J. Chem. Phys. 152 154105 (2020);
          URL http://www.quantum-espresso.org", 
     in publications or presentations arising from this work. More details at
     http://www.quantum-espresso.org/quote

     Parallel version (MPI), running on   128 processors

     MPI processes distributed on     1 nodes
     242551 MiB available memory on the printing compute node when the environment starts

     Waiting for input...
     Reading input from standard input

     Current dimensions of program PWSCF are:
     Max number of different atomic species (ntypx) = 10
     Max number of k-points (npk) =  40000
     Max angular momentum in pseudopotentials (lmaxx) =  4

     IMPORTANT: XC functional enforced from input :
     Exchange-correlation= VDW-DF2
                           (   1   4  13   0   2   0   0)
     Any further DFT definition will be discarded
     Please, verify this is what you really want


     K-points division:     npool     =       4
     R & G space division:  proc/nbgrp/npool/nimage =      32
     Subspace diagonalization in iterative solution of the eigenvalue problem:
     a serial algorithm will be used


     Parallelization info
     --------------------
     sticks:   dense  smooth     PW     G-vecs:    dense   smooth      PW
     Min         180     180     52                 7534     7534    1195
     Max         181     181     53                 7537     7537    1199
     Sum        5767    5767   1691               241139   241139   38335

     Using Slab Decomposition



     bravais-lattice index     =            5
     lattice parameter (alat)  =      14.7903  a.u.
     unit-cell volume          =    2090.3627 (a.u.)^3
     number of atoms/cell      =           36
     number of atomic types    =            2
     number of electrons       =        96.00
     number of Kohn-Sham states=           48
     kinetic-energy cutoff     =      90.0000  Ry
     charge density cutoff     =     360.0000  Ry
     scf convergence threshold =      1.0E-07
     mixing beta               =       0.7000
     number of iterations used =            8  plain     mixing
     energy convergence thresh.=      1.0E-04
     force convergence thresh. =      1.0E-03
     Exchange-correlation= VDW-DF2
                           (   1   4  13   0   2   0   0)
     nstep                     =           50


     celldm(1)=  14.790281  celldm(2)=   0.000000  celldm(3)=   0.000000
     celldm(4)=  -0.392337  celldm(5)=   0.000000  celldm(6)=   0.000000

     crystal axes: (cart. coord. in units of alat)
               a(1) = (   0.834367  -0.481722   0.267909 )  
               a(2) = (   0.000000   0.963444   0.267909 )  
               a(3) = (  -0.834367  -0.481722   0.267909 )  

     reciprocal axes: (cart. coord. in units 2 pi/alat)
               b(1) = (  0.599257 -0.345981  1.244203 )  
               b(2) = ( -0.000000  0.691962  1.244203 )  
               b(3) = ( -0.599257 -0.345981  1.244203 )  


     PseudoPot. # 1 for H  read from file:
     ./H.pbe-van_ak.UPF
     MD5 check sum: 077eb6d537518a38cb46c6de387227b7
     Pseudo is Ultrasoft, Zval =  1.0
     Generated by new atomic code, or converted to UPF format
     Using radial grid of  615 points,  1 beta functions with: 
                l(1) =   0
     Q(r) pseudized with  8 coefficients,  rinner =    0.800

     PseudoPot. # 2 for O  read from file:
     ./O.pbe-van_ak.UPF
     MD5 check sum: 78c19812648e8988a0fe644b0f25305e
     Pseudo is Ultrasoft, Zval =  6.0
     Generated by new atomic code, or converted to UPF format
     Using radial grid of  737 points,  4 beta functions with: 
                l(1) =   0
                l(2) =   0
                l(3) =   1
                l(4) =   1
     Q(r) pseudized with  8 coefficients,  rinner =    0.800   0.800   0.800


     atomic species   valence    mass     pseudopotential
     H                 1.00     1.00800     H ( 1.00)
     O                 6.00    16.00000     O ( 1.00)

      6 Sym. Ops., with inversion, found



   Cartesian axes

     site n.     atom                  positions (alat units)
         1        O      tau(   1) = (  -0.4847673  -0.5197781   0.3083633  )
         2        O      tau(   2) = (   0.4847673   0.5197782   0.4953638  )
         3        O      tau(   3) = (   0.6925247  -0.1599317   0.3083633  )
         4        O      tau(   4) = (  -0.6925248   0.1599317   0.4953638  )
         5        O      tau(   5) = (  -0.2077574   0.6797099   0.3083633  )
         6        O      tau(   6) = (   0.2077574  -0.6797099   0.4953638  )
         7        O      tau(   7) = (   0.1218176   0.3323883   0.4179381  )
         8        O      tau(   8) = (  -0.1218176  -0.3323883   0.3857890  )
         9        O      tau(   9) = (  -0.3487655  -0.0606970   0.4179381  )
        10        O      tau(  10) = (   0.3487655   0.0606970   0.3857890  )
        11        O      tau(  11) = (   0.2269479  -0.2716913   0.4179381  )
        12        O      tau(  12) = (  -0.2269479   0.2716912   0.3857890  )
        13        H      tau(  13) = (  -0.5381668  -0.4032014   0.2796970  )
        14        H      tau(  14) = (   0.5381668   0.4032014   0.5240301  )
        15        H      tau(  15) = (   0.6182661  -0.2644654   0.2796970  )
        16        H      tau(  16) = (  -0.6182661   0.2644654   0.5240301  )
        17        H      tau(  17) = (  -0.0800993   0.6676668   0.2796970  )
        18        H      tau(  18) = (   0.0800993  -0.6676668   0.5240301  )
        19        H      tau(  19) = (  -0.4872704  -0.4817221   0.4326731  )
        20        H      tau(  20) = (   0.4872704   0.4817221   0.3710540  )
        21        H      tau(  21) = (   0.6608188  -0.1811275   0.4326731  )
        22        H      tau(  22) = (  -0.6608188   0.1811275   0.3710540  )
        23        H      tau(  23) = (  -0.1735484   0.6628496   0.4326731  )
        24        H      tau(  24) = (   0.1735484  -0.6628496   0.3710540  )
        25        H      tau(  25) = (   0.2703349  -0.1502973   0.4058822  )
        26        H      tau(  26) = (  -0.2703350   0.1502973   0.3978449  )
        27        H      tau(  27) = (  -0.0050062   0.3092656   0.4058822  )
        28        H      tau(  28) = (   0.0050062  -0.3092656   0.3978449  )
        29        H      tau(  29) = (  -0.2653287  -0.1589683   0.4058822  )
        30        H      tau(  30) = (   0.2653287   0.1589683   0.3978449  )
        31        H      tau(  31) = (   0.3178939  -0.3347969   0.3493534  )
        32        H      tau(  32) = (  -0.3178939   0.3347969   0.4543737  )
        33        H      tau(  33) = (   0.1309957   0.4427026   0.3493534  )
        34        H      tau(  34) = (  -0.1309956  -0.4427026   0.4543737  )
        35        H      tau(  35) = (  -0.4488895  -0.1079057   0.3493534  )
        36        H      tau(  36) = (   0.4488895   0.1079057   0.4543737  )

     number of k points=    14
                       cart. coord. in units 2pi/alat
        k(    1) = (   0.0000000   0.0000000   0.0000000), wk =   0.0312500
        k(    2) = (  -0.1498141  -0.0864952   0.3110508), wk =   0.1875000
        k(    3) = (   0.2996283   0.1729905  -0.6221017), wk =   0.0937500
        k(    4) = (  -0.1498141   0.0864952   0.6221017), wk =   0.1875000
        k(    5) = (   0.2996283   0.3459809  -0.3110508), wk =   0.1875000
        k(    6) = (   0.1498141   0.2594857   0.0000000), wk =   0.1875000
        k(    7) = (   0.2996283  -0.1729905  -1.2442034), wk =   0.0937500
        k(    8) = (   0.0000000   0.0000000   0.9331525), wk =   0.0625000
        k(    9) = (   0.4494424   0.2594857   0.0000000), wk =   0.1875000
        k(   10) = (   0.2996283   0.1729905   0.3110508), wk =   0.1875000
        k(   11) = (   0.4494424  -0.2594857  -0.9331525), wk =   0.1875000
        k(   12) = (   0.2996283  -0.3459809  -0.6221017), wk =   0.1875000
        k(   13) = (   0.0000000   0.0000000  -1.8663050), wk =   0.0312500
        k(   14) = (   0.2996283  -0.3459809   0.3110508), wk =   0.1875000

     Dense  grid:   241139 G-vectors     FFT dimensions: (  90,  90,  90)

     Estimated max dynamical RAM per process >      15.72 MB

     Estimated total dynamical RAM >       1.79 GB

     Initial potential from superposition of free atoms

     starting charge      95.9998, renormalised to      96.0000


     %%%%%%%%%%%%%%%%%%%%%%%%%%%%%%%%%%%%%%%%%%%%%%%%%%%%%%%%%%%%%%%%%%%%%%%%
     %                                                                      %
     % You are using vdW-DF, which was implemented by the Thonhauser group. %
     % Please cite the following two papers that made this development      %
     % possible and the two reviews that describe the various versions:     %
     %                                                                      %
     %   T. Thonhauser et al., PRL 115, 136402 (2015).                      %
     %   T. Thonhauser et al., PRB 76, 125112 (2007).                       %
     %   K. Berland et al., Rep. Prog. Phys. 78, 066501 (2015).             %
     %   D.C. Langreth et al., J. Phys.: Condens. Matter 21, 084203 (2009). %
     %                                                                      %
     % If you are calculating stress with vdW-DF, please also cite:         %
     %                                                                      %
     %   R. Sabatini et al., J. Phys.: Condens. Matter 24, 424209 (2012).   %
     %                                                                      %
     %%%%%%%%%%%%%%%%%%%%%%%%%%%%%%%%%%%%%%%%%%%%%%%%%%%%%%%%%%%%%%%%%%%%%%%%

     %%%%%%%%%%%%%%%%%%%%%%%%%%%%%%%%%%%%%%%%%%%%%%%%%%%%%%%%%%%%%%%%%%%%%%%%
     %                                                                      %
     %  vdW-DF NEWS:                                                        %
     %                                                                      %
     %  * vdW-DF3 is now available. DOI: 10.1021/acs.jctc.0c00471           %
     %    use with input_dft = 'vdW-DF3-opt1' or 'vdW-DF3-opt2'             %
     %                                                                      %
     %  * Unscreened and range-separated hybrid vdW-DF-cx functionals       %
     %    DOI: 10.1063/1.4986522 and 10.1088/1361-648X/ac2ad2               %
     %    use with input_dft = 'vdW-DF-cx0'    and 'vdW-DF-ahcx'            %
     %  * Unscreened and range-separated hybrid vdW-DF2-b86r functionals    %
     %    DOI: 10.1063/1.4986522 and DOI: 10.1103/PhysRevX.12.041003        %
     %    use with input_dft = 'vdW-DF2-br0' and 'vdW-DF2-ahbr'             %
     %                                                                      %
     %%%%%%%%%%%%%%%%%%%%%%%%%%%%%%%%%%%%%%%%%%%%%%%%%%%%%%%%%%%%%%%%%%%%%%%%


     Starting wfcs are   72 randomized atomic wfcs

     total cpu time spent up to now is        2.9 secs

     per-process dynamical memory:    19.8 Mb

     Self-consistent Calculation

     iteration #  1     ecut=    90.00 Ry     beta= 0.70
     Davidson diagonalization with overlap
     ethr =  1.00E-02,  avg # of iterations =  2.0

     total cpu time spent up to now is        3.9 secs

     total energy              =    -415.90270155 Ry
     estimated scf accuracy    <       4.49117940 Ry

     iteration #  2     ecut=    90.00 Ry     beta= 0.70
     Davidson diagonalization with overlap
     ethr =  4.68E-03,  avg # of iterations =  3.0

     total cpu time spent up to now is        5.0 secs

     total energy              =    -417.37723365 Ry
     estimated scf accuracy    <       3.38008303 Ry

     iteration #  3     ecut=    90.00 Ry     beta= 0.70
     Davidson diagonalization with overlap
     ethr =  3.52E-03,  avg # of iterations =  2.0

     total cpu time spent up to now is        6.0 secs

     total energy              =    -417.80979259 Ry
     estimated scf accuracy    <       0.15644913 Ry

     iteration #  4     ecut=    90.00 Ry     beta= 0.70
     Davidson diagonalization with overlap
     ethr =  1.63E-04,  avg # of iterations =  4.0

     total cpu time spent up to now is        7.3 secs

     total energy              =    -417.92911327 Ry
     estimated scf accuracy    <       0.17781558 Ry

     iteration #  5     ecut=    90.00 Ry     beta= 0.70
     Davidson diagonalization with overlap
     ethr =  1.63E-04,  avg # of iterations =  1.6

     total cpu time spent up to now is        8.1 secs

     total energy              =    -417.93200836 Ry
     estimated scf accuracy    <       0.03039624 Ry

     iteration #  6     ecut=    90.00 Ry     beta= 0.70
     Davidson diagonalization with overlap
     ethr =  3.17E-05,  avg # of iterations =  2.0

     total cpu time spent up to now is        9.1 secs

     total energy              =    -417.93494294 Ry
     estimated scf accuracy    <       0.00477255 Ry

     iteration #  7     ecut=    90.00 Ry     beta= 0.70
     Davidson diagonalization with overlap
     ethr =  4.97E-06,  avg # of iterations =  2.0

     total cpu time spent up to now is       10.1 secs

     total energy              =    -417.93617103 Ry
     estimated scf accuracy    <       0.00013184 Ry

     iteration #  8     ecut=    90.00 Ry     beta= 0.70
     Davidson diagonalization with overlap
     ethr =  1.37E-07,  avg # of iterations =  3.3

     total cpu time spent up to now is       11.1 secs

     total energy              =    -417.93619819 Ry
     estimated scf accuracy    <       0.00012477 Ry

     iteration #  9     ecut=    90.00 Ry     beta= 0.70
     Davidson diagonalization with overlap
     ethr =  1.30E-07,  avg # of iterations =  1.0

     negative rho (up, down):  5.176E-08 0.000E+00

     total cpu time spent up to now is       11.9 secs

     total energy              =    -417.93659488 Ry
     estimated scf accuracy    <       0.00011727 Ry

     iteration # 10     ecut=    90.00 Ry     beta= 0.70
     Davidson diagonalization with overlap
     ethr =  1.22E-07,  avg # of iterations =  6.0

     negative rho (up, down):  2.617E-08 0.000E+00

     total cpu time spent up to now is       13.6 secs

     total energy              =    -417.93688209 Ry
     estimated scf accuracy    <       0.00420464 Ry

     iteration # 11     ecut=    90.00 Ry     beta= 0.70
     Davidson diagonalization with overlap
     ethr =  1.22E-07,  avg # of iterations =  3.0

     total cpu time spent up to now is       14.6 secs

     total energy              =    -417.93638370 Ry
     estimated scf accuracy    <       0.00279463 Ry

     iteration # 12     ecut=    90.00 Ry     beta= 0.70
     Davidson diagonalization with overlap
     ethr =  1.22E-07,  avg # of iterations =  3.4

     total cpu time spent up to now is       15.8 secs

     total energy              =    -417.93621031 Ry
     estimated scf accuracy    <       0.00113158 Ry

     iteration # 13     ecut=    90.00 Ry     beta= 0.70
     Davidson diagonalization with overlap
     ethr =  1.22E-07,  avg # of iterations =  2.0

     total cpu time spent up to now is       16.8 secs

     total energy              =    -417.93609318 Ry
     estimated scf accuracy    <       0.00036001 Ry

     iteration # 14     ecut=    90.00 Ry     beta= 0.70
     Davidson diagonalization with overlap
     ethr =  1.22E-07,  avg # of iterations =  3.8

     total cpu time spent up to now is       18.1 secs

     total energy              =    -417.93617468 Ry
     estimated scf accuracy    <       0.00000176 Ry

     iteration # 15     ecut=    90.00 Ry     beta= 0.70
     Davidson diagonalization with overlap
     ethr =  1.83E-09,  avg # of iterations =  4.1

     total cpu time spent up to now is       19.4 secs

     total energy              =    -417.93617701 Ry
     estimated scf accuracy    <       0.00000106 Ry

     iteration # 16     ecut=    90.00 Ry     beta= 0.70
     Davidson diagonalization with overlap
     ethr =  1.10E-09,  avg # of iterations =  1.0

     total cpu time spent up to now is       20.2 secs

     total energy              =    -417.93617644 Ry
     estimated scf accuracy    <       0.00000111 Ry

     iteration # 17     ecut=    90.00 Ry     beta= 0.70
     Davidson diagonalization with overlap
     ethr =  1.10E-09,  avg # of iterations =  2.1

     total cpu time spent up to now is       21.2 secs

     End of self-consistent calculation

          k = 0.0000 0.0000 0.0000 ( 30161 PWs)   bands (ev):

   -21.2240 -20.7768 -20.7768 -20.5605 -20.5605 -20.5343 -20.5343 -20.5187
   -20.5180 -20.2245 -20.2245 -19.9208  -8.5985  -8.4014  -8.3375  -8.3375
    -8.2605  -8.2605  -7.8318  -7.6972  -7.6972  -7.4818  -7.4818  -7.3442
    -7.2894  -6.4034  -6.4034  -5.8189  -5.8189  -5.7320  -5.7320  -5.4520
    -5.2572  -4.6212  -4.6212  -3.9600  -3.2650  -3.2650  -3.1714  -3.0845
    -3.0384  -3.0384  -2.8991  -2.8991  -2.8802  -2.8630  -2.8112  -2.8112

          k =-0.1498-0.0865 0.3111 ( 30160 PWs)   bands (ev):

   -21.1518 -20.8166 -20.7652 -20.7008 -20.6770 -20.6056 -20.4669 -20.4252
   -20.3722 -20.2307 -20.1900 -19.9789  -8.5440  -8.4608  -8.3846  -8.3416
    -8.2416  -8.1793  -7.8352  -7.6667  -7.6480  -7.5158  -7.3894  -7.3523
    -7.1520  -6.5468  -6.4170  -6.1472  -5.8228  -5.6976  -5.5573  -5.3346
    -5.2769  -4.6126  -4.5508  -4.0943  -3.3828  -3.3100  -3.1956  -3.1312
    -3.0766  -3.0435  -2.9994  -2.9353  -2.8716  -2.8318  -2.7983  -2.7520

          k = 0.2996 0.1730-0.6221 ( 30140 PWs)   bands (ev):

   -20.9650 -20.9635 -20.7984 -20.7838 -20.6769 -20.6725 -20.4132 -20.4036
   -20.2374 -20.2341 -20.1293 -20.1100  -8.5151  -8.4615  -8.3778  -8.3540
    -8.2463  -8.1821  -7.7854  -7.6664  -7.6223  -7.5255  -7.3064  -7.3059
    -6.9117  -6.7720  -6.4678  -6.3118  -5.8288  -5.7453  -5.5543  -5.3988
    -4.8675  -4.7492  -4.4892  -4.2659  -3.4891  -3.3321  -3.2169  -3.1912
    -3.1171  -3.0964  -3.0062  -2.9460  -2.9251  -2.7954  -2.7823  -2.7069

          k =-0.1498 0.0865 0.6221 ( 30140 PWs)   bands (ev):

   -21.0055 -20.8726 -20.8626 -20.7469 -20.7250 -20.6614 -20.4186 -20.3400
   -20.3052 -20.1912 -20.1736 -20.0851  -8.5234  -8.4368  -8.4215  -8.3141
    -8.2617  -8.1696  -7.7865  -7.7047  -7.6516  -7.4221  -7.3549  -7.3011
    -6.9173  -6.7044  -6.6081  -6.1446  -5.9698  -5.7891  -5.4779  -5.2757
    -5.0701  -4.5780  -4.5539  -4.2793  -3.4666  -3.3748  -3.2062  -3.1622
    -3.1272  -3.0755  -3.0316  -2.9466  -2.9161  -2.8044  -2.7863  -2.7011

          k = 0.2996 0.3460-0.3111 ( 30149 PWs)   bands (ev):

   -21.0572 -20.9046 -20.8000 -20.7767 -20.6967 -20.6302 -20.4215 -20.3227
   -20.3140 -20.2276 -20.1683 -20.0607  -8.5305  -8.5085  -8.3573  -8.3312
    -8.2744  -8.1789  -7.8241  -7.7670  -7.6395  -7.3896  -7.3613  -7.2905
    -7.0384  -6.7388  -6.5025  -6.1597  -6.1266  -5.6281  -5.4487  -5.1837
    -4.9584  -4.7354  -4.5316  -4.2519  -3.3768  -3.3076  -3.2227  -3.1541
    -3.0959  -3.0449  -2.9853  -2.9757  -2.8906  -2.8494  -2.7889  -2.6876

          k = 0.1498 0.2595 0.0000 ( 30103 PWs)   bands (ev):

   -21.1719 -20.8497 -20.7954 -20.6687 -20.6422 -20.5628 -20.4862 -20.4159
   -20.3777 -20.2352 -20.2007 -19.9671  -8.5814  -8.4744  -8.3750  -8.3347
    -8.2169  -8.2107  -7.8938  -7.7597  -7.5718  -7.4857  -7.4192  -7.3001
    -7.2868  -6.5275  -6.3962  -6.1395  -6.0292  -5.5756  -5.4397  -5.3170
    -5.1316  -4.6901  -4.5989  -4.0521  -3.2664  -3.2465  -3.2055  -3.1190
    -3.0772  -3.0494  -2.9338  -2.9183  -2.8866  -2.8739  -2.7713  -2.7569

          k = 0.2996-0.1730-1.2442 ( 30130 PWs)   bands (ev):

   -21.0468 -21.0095 -20.8099 -20.7171 -20.6420 -20.5854 -20.4325 -20.3987
   -20.2887 -20.2687 -20.0942 -20.0794  -8.5584  -8.5209  -8.3858  -8.3551
    -8.1906  -8.1856  -7.8969  -7.8254  -7.5557  -7.5098  -7.3317  -7.2895
    -6.9665  -6.9247  -6.4631  -6.2511  -5.9402  -5.6968  -5.3178  -5.0630
    -4.9613  -4.8893  -4.4485  -4.2643  -3.2835  -3.2328  -3.2167  -3.1579
    -3.0779  -3.0204  -3.0006  -2.9274  -2.9178  -2.8689  -2.7368  -2.7227

          k = 0.0000 0.0000 0.9332 ( 30144 PWs)   bands (ev):

   -20.9525 -20.9525 -20.8741 -20.8316 -20.6582 -20.6582 -20.3485 -20.3485
   -20.2309 -20.1931 -20.1662 -20.1662  -8.5082  -8.5082  -8.3741  -8.2709
    -8.2709  -8.2632  -7.8343  -7.7331  -7.7331  -7.3001  -7.3001  -7.2620
    -6.8395  -6.8347  -6.8347  -6.1821  -5.8873  -5.8873  -5.2414  -5.0496
    -5.0496  -4.5968  -4.5968  -4.4336  -3.3193  -3.3193  -3.2035  -3.1361
    -3.0680  -3.0680  -3.0154  -2.9491  -2.9491  -2.8334  -2.8334  -2.6642

          k = 0.4494 0.2595 0.0000 ( 30117 PWs)   bands (ev):

   -21.0754 -20.9134 -20.9066 -20.7187 -20.5883 -20.5780 -20.4473 -20.4403
   -20.2894 -20.1989 -20.1663 -20.0504  -8.5535  -8.5093  -8.4425  -8.2909
    -8.2322  -8.1686  -7.9134  -7.7760  -7.6484  -7.4065  -7.3565  -7.3094
    -7.0703  -6.7000  -6.6218  -6.2020  -5.9552  -5.6916  -5.2409  -5.2041
    -5.0028  -4.6989  -4.5611  -4.2371  -3.2650  -3.2580  -3.2044  -3.1620
    -3.0936  -3.0347  -2.9682  -2.9447  -2.8928  -2.8467  -2.7868  -2.7051

          k = 0.2996 0.1730 0.3111 ( 30141 PWs)   bands (ev):

   -21.1031 -20.8606 -20.7744 -20.7621 -20.6770 -20.6206 -20.4358 -20.4065
   -20.3377 -20.2193 -20.1674 -20.0158  -8.5523  -8.4927  -8.4107  -8.2841
    -8.2803  -8.1301  -7.8593  -7.7322  -7.5551  -7.4846  -7.4363  -7.3402
    -7.0669  -6.5477  -6.3797  -6.2924  -6.0642  -5.7213  -5.4312  -5.2311
    -5.0735  -4.6796  -4.5416  -4.1374  -3.3955  -3.3194  -3.2456  -3.1891
    -3.0929  -3.0530  -2.9771  -2.9414  -2.8590  -2.8194  -2.7599  -2.7437

          k = 0.4494-0.2595-0.9332 ( 30129 PWs)   bands (ev):

   -20.9769 -20.9737 -20.8406 -20.7871 -20.6652 -20.5912 -20.4737 -20.3918
   -20.2536 -20.2015 -20.1518 -20.0726  -8.5787  -8.4815  -8.4402  -8.2917
    -8.2457  -8.1106  -7.9055  -7.6923  -7.5743  -7.5193  -7.3755  -7.3462
    -6.8074  -6.7655  -6.4485  -6.3074  -6.1204  -5.8100  -5.3876  -5.1100
    -4.8060  -4.7735  -4.5833  -4.2070  -3.3955  -3.3397  -3.3020  -3.1884
    -3.1538  -3.0718  -2.9254  -2.9040  -2.8708  -2.8319  -2.7618  -2.7085

          k = 0.2996-0.3460-0.6221 ( 30150 PWs)   bands (ev):

   -20.9326 -20.9273 -20.8291 -20.8192 -20.6954 -20.6937 -20.3964 -20.3892
   -20.2419 -20.2343 -20.1240 -20.1041  -8.5919  -8.3978  -8.3680  -8.3472
    -8.3119  -8.1141  -7.8135  -7.7056  -7.5503  -7.5065  -7.3537  -7.3484
    -6.7739  -6.6475  -6.4857  -6.3639  -6.0410  -6.0051  -5.3076  -5.2365
    -4.8146  -4.7729  -4.5955  -4.1919  -3.5208  -3.3542  -3.3000  -3.2301
    -3.1745  -3.0397  -2.9719  -2.9305  -2.9081  -2.7862  -2.7688  -2.6902

          k = 0.0000 0.0000-1.8663 ( 30168 PWs)   bands (ev):

   -20.9010 -20.8841 -20.7938 -20.7938 -20.7919 -20.7919 -20.3236 -20.3236
   -20.2903 -20.2903 -20.1092 -20.0926  -8.6390  -8.3588  -8.3588  -8.3410
    -8.3410  -8.0836  -7.8605  -7.7056  -7.4582  -7.4582  -7.4263  -7.4263
    -6.6003  -6.4274  -6.3670  -6.3670  -6.3561  -6.3561  -5.0908  -5.0908
    -4.8513  -4.8513  -4.6167  -4.1419  -3.5528  -3.3566  -3.3566  -3.2656
    -3.2656  -2.9864  -2.9682  -2.8667  -2.8667  -2.7996  -2.7996  -2.6649

          k = 0.2996-0.3460 0.3111 ( 30149 PWs)   bands (ev):

   -21.0572 -20.9037 -20.8066 -20.7723 -20.6939 -20.6309 -20.4227 -20.3367
   -20.2940 -20.2386 -20.1613 -20.0625  -8.5477  -8.4736  -8.3902  -8.3307
    -8.2475  -8.1851  -7.8709  -7.7344  -7.6175  -7.4281  -7.3245  -7.3109
    -7.0309  -6.6703  -6.5979  -6.2128  -5.9784  -5.6918  -5.5265  -5.0972
    -4.9366  -4.7201  -4.6037  -4.2295  -3.3851  -3.2795  -3.2382  -3.1477
    -3.1047  -3.0515  -2.9849  -2.9755  -2.9082  -2.8186  -2.7896  -2.6960

     highest occupied level (ev):    -2.6642

!    total energy              =    -417.93617670 Ry
     estimated scf accuracy    <       0.00000008 Ry

     The total energy is the sum of the following terms:
     one-electron contribution =    -293.67193664 Ry
     hartree contribution      =     181.52868493 Ry
     xc contribution           =    -105.45038806 Ry
     ewald contribution        =    -200.34253694 Ry

     convergence has been achieved in  17 iterations

     Forces acting on atoms (cartesian axes, Ry/au):

     atom    1 type  2   force =    -0.03755541    0.08041419    0.04162801
     atom    2 type  2   force =     0.03755541   -0.08041419   -0.04162801
     atom    3 type  2   force =    -0.05086302   -0.07273103    0.04162801
     atom    4 type  2   force =     0.05086302    0.07273103   -0.04162801
     atom    5 type  2   force =     0.08841843   -0.00768315    0.04162801
     atom    6 type  2   force =    -0.08841843    0.00768315   -0.04162801
     atom    7 type  2   force =    -0.04318015    0.03429995   -0.03117976
     atom    8 type  2   force =     0.04318015   -0.03429995    0.03117976
     atom    9 type  2   force =    -0.00811455   -0.05454508   -0.03117976
     atom   10 type  2   force =     0.00811455    0.05454508    0.03117976
     atom   11 type  2   force =     0.05129470    0.02024513   -0.03117976
     atom   12 type  2   force =    -0.05129470   -0.02024513    0.03117976
     atom   13 type  1   force =     0.00865508   -0.03750552   -0.04950135
     atom   14 type  1   force =    -0.00865508    0.03750552    0.04950135
     atom   15 type  1   force =     0.02815319    0.02624828   -0.04950135
     atom   16 type  1   force =    -0.02815319   -0.02624828    0.04950135
     atom   17 type  1   force =    -0.03680827    0.01125724   -0.04950135
     atom   18 type  1   force =     0.03680827   -0.01125724    0.04950135
     atom   19 type  1   force =     0.03016162   -0.04960004   -0.00267597
     atom   20 type  1   force =    -0.03016162    0.04960004    0.00267597
     atom   21 type  1   force =     0.02787408    0.05092075   -0.00267597
     atom   22 type  1   force =    -0.02787408   -0.05092075    0.00267597
     atom   23 type  1   force =    -0.05803570   -0.00132071   -0.00267597
     atom   24 type  1   force =     0.05803570    0.00132071    0.00267597
     atom   25 type  1   force =    -0.01864018   -0.01607501    0.01400218
     atom   26 type  1   force =     0.01864018    0.01607501   -0.01400218
     atom   27 type  1   force =     0.02324146   -0.00810536    0.01400218
     atom   28 type  1   force =    -0.02324146    0.00810536   -0.01400218
     atom   29 type  1   force =    -0.00460128    0.02418038    0.01400218
     atom   30 type  1   force =     0.00460128   -0.02418038   -0.01400218
     atom   31 type  1   force =    -0.03698644   -0.00342212    0.02223395
     atom   32 type  1   force =     0.03698644    0.00342212   -0.02223395
     atom   33 type  1   force =     0.02145686   -0.03032014    0.02223395
     atom   34 type  1   force =    -0.02145686    0.03032014   -0.02223395
     atom   35 type  1   force =     0.01552958    0.03374226    0.02223395
     atom   36 type  1   force =    -0.01552958   -0.03374226   -0.02223395

     Total force =     0.376361     Total SCF correction =     0.000290


     Computing stress (Cartesian axis) and pressure

          total   stress  (Ry/bohr**3)                   (kbar)     P=      -29.96
  -0.00027989  -0.00000000   0.00000000          -41.17       -0.00        0.00
   0.00000000  -0.00027989  -0.00000000            0.00      -41.17       -0.00
  -0.00000000  -0.00000000  -0.00005123           -0.00       -0.00       -7.54


     BFGS Geometry Optimization
     Energy error            =      0.0E+00 Ry
     Gradient error          =      8.8E-02 Ry/Bohr

     number of scf cycles    =   1
     number of bfgs steps    =   0

     energy             new  =    -417.9361766998 Ry

     new trust radius        =       0.0980292877 bohr
     new conv_thr            =       0.0000001000 Ry


ATOMIC_POSITIONS (crystal)
O                0.2730991619        0.0312640446        0.8571423908
O                0.7269008381        0.9687359664        0.1428575792
O                0.8571423908        0.2730991619        0.0312640446
O                0.1428575792        0.7269008381        0.9687359664
O                0.0312640446        0.8571423908        0.2730991619
O                0.9687359664        0.1428575792        0.7269008381
O                0.4728251621        0.7489817834        0.3303242172
O                0.5271748379        0.2510182166        0.6696757528
O                0.3303242172        0.4728251621        0.7489817834
O                0.6696757528        0.5271748379        0.2510182166
O                0.7489817834        0.3303242172        0.4728251621
O                0.2510182166        0.6696757528        0.5271748379
H                0.1620638264        0.0630811020        0.8063624673
H                0.8379361596        0.9369188900        0.1936375327
H                0.8063624673        0.1620638264        0.0630811020
H                0.1936375327        0.8379361596        0.9369188900
H                0.0630811020        0.8063624673        0.1620638264
H                0.9369188900        0.1936375327        0.8379361596
H                0.4151571996        0.2024543542        0.9967130789
H                0.5848428004        0.7975456608        0.0032869001
H                0.9967130789        0.4151571996        0.2024543542
H                0.0032869001        0.5848428004        0.7975456608
H                0.2024543542        0.9967130789        0.4151571996
H                0.7975456608        0.0032869001        0.5848428004
H                0.7197986790        0.4014258308        0.3973091935
H                0.2802013210        0.5985741392        0.6026908365
H                0.3973091935        0.7197986790        0.4014258308
H                0.6026908365        0.2802013210        0.5985741392
H                0.4014258308        0.3973091935        0.7197986790
H                0.5985741392        0.6026908365        0.2802013210
H                0.7414518597        0.2047102779        0.3634490297
H                0.2585481403        0.7952897071        0.6365509703
H                0.3634490297        0.7414518597        0.2047102779
H                0.6365509703        0.2585481403        0.7952897071
H                0.2047102779        0.3634490297        0.7414518597
H                0.7952897071        0.6365509703        0.2585481403



     Writing config-only to output data dir ./iceII/iceII.save/ :
     XML data file
     NEW-OLD atomic charge density approx. for the potential

     total cpu time spent up to now is       22.8 secs

     per-process dynamical memory:    20.5 Mb

     Self-consistent Calculation

     iteration #  1     ecut=    90.00 Ry     beta= 0.70
     Davidson diagonalization with overlap
     ethr =  1.00E-06,  avg # of iterations =  9.9

     total cpu time spent up to now is       25.1 secs

     total energy              =    -418.00013084 Ry
     estimated scf accuracy    <       0.03812994 Ry

     iteration #  2     ecut=    90.00 Ry     beta= 0.70
     Davidson diagonalization with overlap
     ethr =  3.97E-05,  avg # of iterations =  3.0

     total cpu time spent up to now is       26.2 secs

     total energy              =    -418.01075315 Ry
     estimated scf accuracy    <       0.01375167 Ry

     iteration #  3     ecut=    90.00 Ry     beta= 0.70
     Davidson diagonalization with overlap
     ethr =  1.43E-05,  avg # of iterations =  2.0

     total cpu time spent up to now is       27.1 secs

     total energy              =    -418.01291972 Ry
     estimated scf accuracy    <       0.00039506 Ry

     iteration #  4     ecut=    90.00 Ry     beta= 0.70
     Davidson diagonalization with overlap
     ethr =  4.12E-07,  avg # of iterations =  5.0

     total cpu time spent up to now is       28.4 secs

     total energy              =    -418.01316506 Ry
     estimated scf accuracy    <       0.00046719 Ry

     iteration #  5     ecut=    90.00 Ry     beta= 0.70
     Davidson diagonalization with overlap
     ethr =  4.12E-07,  avg # of iterations =  2.0

     total cpu time spent up to now is       29.4 secs

     total energy              =    -418.01321563 Ry
     estimated scf accuracy    <       0.00003680 Ry

     iteration #  6     ecut=    90.00 Ry     beta= 0.70
     Davidson diagonalization with overlap
     ethr =  3.83E-08,  avg # of iterations =  4.2

     total cpu time spent up to now is       30.7 secs

     total energy              =    -418.01323017 Ry
     estimated scf accuracy    <       0.00006136 Ry

     iteration #  7     ecut=    90.00 Ry     beta= 0.70
     Davidson diagonalization with overlap
     ethr =  3.83E-08,  avg # of iterations =  2.2

     total cpu time spent up to now is       31.7 secs

     total energy              =    -418.01323996 Ry
     estimated scf accuracy    <       0.00000138 Ry

     iteration #  8     ecut=    90.00 Ry     beta= 0.70
     Davidson diagonalization with overlap
     ethr =  1.43E-09,  avg # of iterations =  4.1

     total cpu time spent up to now is       33.0 secs

     total energy              =    -418.01324106 Ry
     estimated scf accuracy    <       0.00000037 Ry

     iteration #  9     ecut=    90.00 Ry     beta= 0.70
     Davidson diagonalization with overlap
     ethr =  3.83E-10,  avg # of iterations =  2.0

     total cpu time spent up to now is       33.9 secs

     End of self-consistent calculation

          k = 0.0000 0.0000 0.0000 ( 30161 PWs)   bands (ev):

   -21.5473 -21.1348 -21.1348 -20.9195 -20.9195 -20.9059 -20.9059 -20.8892
   -20.8835 -20.6129 -20.6129 -20.3433  -9.0287  -8.8297  -8.7714  -8.7714
    -8.7570  -8.7570  -8.2727  -8.2727  -8.1868  -8.1543  -8.1543  -8.0054
    -7.3840  -6.2975  -6.2975  -5.6976  -5.6976  -5.6528  -5.6528  -5.3589
    -5.2746  -4.6215  -4.6215  -3.9800  -3.3621  -3.3621  -3.3173  -3.1413
    -3.1413  -3.1394  -2.9798  -2.9689  -2.9689  -2.9465  -2.8784  -2.8784

          k =-0.1498-0.0865 0.3111 ( 30160 PWs)   bands (ev):

   -21.4794 -21.1670 -21.1252 -21.0509 -21.0371 -20.9735 -20.8361 -20.7947
   -20.7502 -20.6219 -20.5847 -20.3948  -8.9845  -8.8687  -8.8137  -8.7948
    -8.7324  -8.6712  -8.3033  -8.2642  -8.1779  -8.1216  -8.0868  -8.0580
    -7.1855  -6.4481  -6.3299  -6.0341  -5.7942  -5.5540  -5.4842  -5.2585
    -5.1979  -4.6171  -4.5462  -4.1040  -3.4696  -3.4017  -3.3192  -3.2001
    -3.1791  -3.1404  -3.0906  -3.0070  -2.9452  -2.9021  -2.8740  -2.8280

          k = 0.2996 0.1730-0.6221 ( 30140 PWs)   bands (ev):

   -21.3139 -21.2916 -21.1597 -21.1194 -21.0482 -21.0319 -20.7891 -20.7658
   -20.6375 -20.6201 -20.5388 -20.5059  -8.9119  -8.9069  -8.8332  -8.8006
    -8.7238  -8.6557  -8.2904  -8.2451  -8.1767  -8.1629  -8.0396  -8.0275
    -6.8373  -6.6986  -6.3829  -6.2535  -5.7867  -5.6938  -5.3984  -5.2388
    -4.8232  -4.7218  -4.4867  -4.2794  -3.5632  -3.4227  -3.3202  -3.2617
    -3.2103  -3.2053  -3.0831  -3.0279  -3.0130  -2.8672  -2.8497  -2.7840

          k =-0.1498 0.0865 0.6221 ( 30140 PWs)   bands (ev):

   -21.3423 -21.2171 -21.2081 -21.1018 -21.0804 -21.0259 -20.7881 -20.7187
   -20.6876 -20.5895 -20.5735 -20.4886  -8.9230  -8.8814  -8.8668  -8.7693
    -8.7365  -8.6523  -8.2786  -8.2614  -8.2180  -8.0945  -8.0603  -8.0324
    -6.8665  -6.5894  -6.5380  -6.0927  -5.8976  -5.7352  -5.3345  -5.1493
    -4.9881  -4.5776  -4.5491  -4.2879  -3.5420  -3.4604  -3.3061  -3.2508
    -3.2310  -3.1541  -3.1224  -3.0284  -2.9988  -2.8762  -2.8544  -2.7777

          k = 0.2996 0.3460-0.3111 ( 30149 PWs)   bands (ev):

   -21.3911 -21.2536 -21.1459 -21.1322 -21.0457 -20.9932 -20.7950 -20.7172
   -20.6922 -20.6170 -20.5666 -20.4653  -8.9471  -8.9195  -8.8131  -8.7809
    -8.7374  -8.6469  -8.3639  -8.3336  -8.2325  -8.0714  -8.0439  -8.0103
    -6.9210  -6.6091  -6.3717  -6.1189  -6.0884  -5.5885  -5.2695  -5.1382
    -4.9346  -4.7020  -4.5219  -4.2490  -3.4668  -3.4040  -3.3290  -3.2622
    -3.1755  -3.1207  -3.0782  -3.0580  -2.9756  -2.9207  -2.8563  -2.7603

          k = 0.1498 0.2595 0.0000 ( 30103 PWs)   bands (ev):

   -21.4986 -21.2032 -21.1524 -21.0214 -20.9941 -20.9218 -20.8634 -20.7975
   -20.7609 -20.6230 -20.5888 -20.3836  -9.0064  -8.8776  -8.8133  -8.7933
    -8.7021  -8.6894  -8.3895  -8.3257  -8.1827  -8.1372  -8.0818  -8.0032
    -7.2081  -6.3933  -6.2838  -6.0679  -5.9547  -5.5161  -5.3591  -5.2188
    -5.1294  -4.6735  -4.5971  -4.0589  -3.3658  -3.3479  -3.3362  -3.2191
    -3.1544  -3.1316  -3.0120  -2.9918  -2.9875  -2.9451  -2.8399  -2.8264

          k = 0.2996-0.1730-1.2442 ( 30130 PWs)   bands (ev):

   -21.3804 -21.3512 -21.1672 -21.0638 -20.9997 -20.9368 -20.8214 -20.7772
   -20.6872 -20.6467 -20.4998 -20.4769  -8.9655  -8.9305  -8.8229  -8.8036
    -8.6706  -8.6517  -8.4562  -8.3749  -8.1981  -8.1308  -8.0302  -8.0045
    -6.8023  -6.7778  -6.3173  -6.2372  -5.8854  -5.6410  -5.2400  -5.0574
    -4.9031  -4.8547  -4.4365  -4.2508  -3.3866  -3.3412  -3.3284  -3.2685
    -3.1648  -3.0951  -3.0723  -3.0204  -2.9913  -2.9436  -2.8069  -2.7945

          k = 0.0000 0.0000 0.9332 ( 30144 PWs)   bands (ev):

   -21.2927 -21.2927 -21.2381 -21.1628 -21.0144 -21.0144 -20.7324 -20.7324
   -20.6384 -20.5679 -20.5645 -20.5645  -8.9225  -8.9225  -8.8521  -8.7254
    -8.7254  -8.7072  -8.3939  -8.2994  -8.2994  -8.0218  -8.0218  -7.9919
    -6.6831  -6.6831  -6.6497  -6.1718  -5.8548  -5.8548  -5.0660  -5.0002
    -5.0002  -4.5788  -4.5788  -4.4358  -3.4165  -3.4165  -3.3155  -3.2572
    -3.1473  -3.1473  -3.1019  -3.0307  -3.0307  -2.8967  -2.8967  -2.7356

          k = 0.4494 0.2595 0.0000 ( 30117 PWs)   bands (ev):

   -21.4087 -21.2581 -21.2575 -21.0611 -20.9576 -20.9321 -20.8293 -20.8128
   -20.6884 -20.5903 -20.5568 -20.4555  -8.9682  -8.9108  -8.8692  -8.7551
    -8.7085  -8.6330  -8.4691  -8.3347  -8.2566  -8.0742  -8.0466  -8.0121
    -6.9183  -6.5433  -6.4798  -6.1999  -5.8849  -5.6204  -5.2078  -5.1713
    -4.9395  -4.6649  -4.5485  -4.2266  -3.3708  -3.3584  -3.3213  -3.2750
    -3.1751  -3.1084  -3.0560  -3.0247  -2.9706  -2.9203  -2.8565  -2.7756

          k = 0.2996 0.1730 0.3111 ( 30141 PWs)   bands (ev):

   -21.4341 -21.2117 -21.1305 -21.1090 -21.0308 -20.9857 -20.8057 -20.7918
   -20.7091 -20.6190 -20.5615 -20.4262  -8.9684  -8.8956  -8.8359  -8.7699
    -8.7421  -8.6221  -8.3845  -8.2530  -8.1801  -8.1551  -8.0595  -8.0515
    -7.0313  -6.4546  -6.3268  -6.1709  -5.9803  -5.5974  -5.3721  -5.1812
    -5.0249  -4.6595  -4.5339  -4.1389  -3.4841  -3.4098  -3.3522  -3.2615
    -3.1890  -3.1387  -3.0697  -3.0220  -2.9392  -2.9044  -2.8308  -2.8159

          k = 0.4494-0.2595-0.9332 ( 30129 PWs)   bands (ev):

   -21.3177 -21.3152 -21.1922 -21.1272 -21.0223 -20.9620 -20.8386 -20.7745
   -20.6367 -20.6051 -20.5507 -20.4723  -8.9464  -8.9131  -8.8640  -8.7664
    -8.7220  -8.5871  -8.4378  -8.2774  -8.1858  -8.1624  -8.0542  -8.0381
    -6.7368  -6.6290  -6.3397  -6.3025  -6.0187  -5.6565  -5.3658  -5.0992
    -4.7718  -4.7201  -4.5630  -4.1982  -3.4870  -3.4288  -3.3898  -3.2687
    -3.2266  -3.1766  -3.0172  -2.9897  -2.9584  -2.9109  -2.8367  -2.7789

          k = 0.2996-0.3460-0.6221 ( 30150 PWs)   bands (ev):

   -21.2869 -21.2558 -21.1828 -21.1590 -21.0588 -21.0517 -20.7749 -20.7604
   -20.6339 -20.6217 -20.5383 -20.4972  -8.9522  -8.8573  -8.8290  -8.7964
    -8.7706  -8.5947  -8.3138  -8.2834  -8.1556  -8.1472  -8.0631  -8.0577
    -6.7070  -6.5928  -6.3922  -6.3375  -5.9130  -5.8735  -5.2302  -5.1580
    -4.7835  -4.7395  -4.5694  -4.2042  -3.5892  -3.4405  -3.3907  -3.3001
    -3.2577  -3.1195  -3.0753  -3.0205  -2.9984  -2.8651  -2.8473  -2.7604

          k = 0.0000 0.0000-1.8663 ( 30168 PWs)   bands (ev):

   -21.2623 -21.2050 -21.1575 -21.1575 -21.1312 -21.1312 -20.7195 -20.7195
   -20.6625 -20.6625 -20.5259 -20.4861  -8.9709  -8.8267  -8.8267  -8.7933
    -8.7933  -8.5548  -8.3377  -8.3120  -8.1189  -8.1189  -8.1053  -8.1053
    -6.5863  -6.5128  -6.2306  -6.2306  -6.1930  -6.1930  -5.0444  -5.0444
    -4.8243  -4.8243  -4.5640  -4.1523  -3.6145  -3.4394  -3.4394  -3.3319
    -3.3319  -3.0878  -3.0658  -2.9571  -2.9571  -2.8835  -2.8835  -2.7337

          k = 0.2996-0.3460 0.3111 ( 30149 PWs)   bands (ev):

   -21.3916 -21.2484 -21.1663 -21.1187 -21.0419 -20.9930 -20.7980 -20.7291
   -20.6635 -20.6409 -20.5561 -20.4676  -8.9581  -8.8939  -8.8274  -8.8002
    -8.7039  -8.6603  -8.3897  -8.3107  -8.2263  -8.0743  -8.0419  -8.0141
    -6.9274  -6.5367  -6.4768  -6.1582  -5.9477  -5.6462  -5.3795  -5.0228
    -4.8898  -4.7186  -4.5797  -4.2293  -3.4728  -3.3862  -3.3405  -3.2523
    -3.1725  -3.1379  -3.0689  -3.0680  -2.9916  -2.8891  -2.8595  -2.7679

     highest occupied level (ev):    -2.7337

!    total energy              =    -418.01324107 Ry
     estimated scf accuracy    <       0.00000005 Ry

     The total energy is the sum of the following terms:
     one-electron contribution =    -300.11561799 Ry
     hartree contribution      =     184.41965031 Ry
     xc contribution           =    -106.18685761 Ry
     ewald contribution        =    -196.13041578 Ry

     convergence has been achieved in   9 iterations

     Forces acting on atoms (cartesian axes, Ry/au):

     atom    1 type  2   force =    -0.00094599   -0.00592249    0.00046540
     atom    2 type  2   force =     0.00094599    0.00592249   -0.00046540
     atom    3 type  2   force =     0.00560202    0.00214200    0.00046540
     atom    4 type  2   force =    -0.00560202   -0.00214200   -0.00046540
     atom    5 type  2   force =    -0.00465603    0.00378049    0.00046540
     atom    6 type  2   force =     0.00465603   -0.00378049   -0.00046540
     atom    7 type  2   force =     0.00333164   -0.01068212    0.00381541
     atom    8 type  2   force =    -0.00333164    0.01068212   -0.00381541
     atom    9 type  2   force =     0.00758517    0.00822634    0.00381541
     atom   10 type  2   force =    -0.00758517   -0.00822634   -0.00381541
     atom   11 type  2   force =    -0.01091681    0.00245578    0.00381541
     atom   12 type  2   force =     0.01091681   -0.00245578   -0.00381541
     atom   13 type  1   force =    -0.01700281    0.02134310   -0.04601206
     atom   14 type  1   force =     0.01700281   -0.02134310    0.04601206
     atom   15 type  1   force =    -0.00998226   -0.02539641   -0.04601206
     atom   16 type  1   force =     0.00998226    0.02539641    0.04601206
     atom   17 type  1   force =     0.02698507    0.00405332   -0.04601206
     atom   18 type  1   force =    -0.02698507   -0.00405332    0.04601206
     atom   19 type  1   force =     0.02190830   -0.02012511    0.03805861
     atom   20 type  1   force =    -0.02190830    0.02012511   -0.03805861
     atom   21 type  1   force =     0.00647470    0.02903570    0.03805861
     atom   22 type  1   force =    -0.00647470   -0.02903570   -0.03805861
     atom   23 type  1   force =    -0.02838300   -0.00891059    0.03805861
     atom   24 type  1   force =     0.02838300    0.00891059   -0.03805861
     atom   25 type  1   force =     0.00327341    0.01924706    0.00548835
     atom   26 type  1   force =    -0.00327341   -0.01924706   -0.00548835
     atom   27 type  1   force =    -0.01830515   -0.00678867    0.00548835
     atom   28 type  1   force =     0.01830515    0.00678867   -0.00548835
     atom   29 type  1   force =     0.01503174   -0.01245839    0.00548835
     atom   30 type  1   force =    -0.01503174    0.01245839   -0.00548835
     atom   31 type  1   force =     0.00606801   -0.02110826   -0.00810693
     atom   32 type  1   force =    -0.00606801    0.02110826    0.00810693
     atom   33 type  1   force =     0.01524629    0.01580918   -0.00810693
     atom   34 type  1   force =    -0.01524629   -0.01580918    0.00810693
     atom   35 type  1   force =    -0.02131430    0.00529908   -0.00810693
     atom   36 type  1   force =     0.02131430   -0.00529908    0.00810693

     Total force =     0.194893     Total SCF correction =     0.000102


     Computing stress (Cartesian axis) and pressure

          total   stress  (Ry/bohr**3)                   (kbar)     P=       30.77
   0.00015965   0.00000000   0.00000000           23.49        0.00        0.00
  -0.00000000   0.00015965   0.00000000           -0.00       23.49        0.00
  -0.00000000   0.00000000   0.00030822           -0.00        0.00       45.34

     Energy error            =      7.7E-02 Ry
     Gradient error          =      4.6E-02 Ry/Bohr

     number of scf cycles    =   2
     number of bfgs steps    =   1

     energy             old  =    -417.9361766998 Ry
     energy             new  =    -418.0132410742 Ry

     CASE: energy            _new < energy            _old

     new trust radius        =       0.0659451194 bohr
     new conv_thr            =       0.0000000460 Ry


ATOMIC_POSITIONS (crystal)
O                0.2732753109        0.0331561597        0.8582971075
O                0.7267246891        0.9668438513        0.1417028625
O                0.8582971075        0.2732753109        0.0331561597
O                0.1417028625        0.7267246891        0.9668438513
O                0.0331561597        0.8582971075        0.2732753109
O                0.9668438513        0.1417028625        0.7267246891
O                0.4720425622        0.7484929457        0.3302892775
O                0.5279574378        0.2515070543        0.6697106925
O                0.3302892775        0.4720425622        0.7484929457
O                0.6697106925        0.5279574378        0.2515070543
O                0.7484929457        0.3302892775        0.4720425622
O                0.2515070543        0.6697106925        0.5279574378
H                0.1558653726        0.0583076366        0.8014093862
H                0.8441346134        0.9416923554        0.1985906138
H                0.8014093862        0.1558653726        0.0583076366
H                0.1985906138        0.8441346134        0.9416923554
H                0.0583076366        0.8014093862        0.1558653726
H                0.9416923554        0.1985906138        0.8441346134
H                0.4206000911        0.2040855956        0.9995636829
H                0.5793999089        0.7959144194        0.0004362961
H                0.9995636829        0.4206000911        0.2040855956
H                0.0004362961        0.5793999089        0.7959144194
H                0.2040855956        0.9995636829        0.4206000911
H                0.7959144194        0.0004362961        0.5793999089
H                0.7201861734        0.4029872476        0.3978626898
H                0.2798138266        0.5970127224        0.6021373402
H                0.3978626898        0.7201861734        0.4029872476
H                0.6021373402        0.2798138266        0.5970127224
H                0.4029872476        0.3978626898        0.7201861734
H                0.5970127224        0.6021373402        0.2798138266
H                0.7416459279        0.2034550493        0.3640089731
H                0.2583540721        0.7965449357        0.6359910269
H                0.3640089731        0.7416459279        0.2034550493
H                0.6359910269        0.2583540721        0.7965449357
H                0.2034550493        0.3640089731        0.7416459279
H                0.7965449357        0.6359910269        0.2583540721



     Writing config-only to output data dir ./iceII/iceII.save/ :
     XML data file
     NEW-OLD atomic charge density approx. for the potential

     total cpu time spent up to now is       35.4 secs

     per-process dynamical memory:    19.9 Mb

     Self-consistent Calculation

     iteration #  1     ecut=    90.00 Ry     beta= 0.70
     Davidson diagonalization with overlap
     ethr =  1.00E-06,  avg # of iterations =  7.0

     total cpu time spent up to now is       37.2 secs

     total energy              =    -418.04492248 Ry
     estimated scf accuracy    <       0.00135385 Ry

     iteration #  2     ecut=    90.00 Ry     beta= 0.70
     Davidson diagonalization with overlap
     ethr =  1.41E-06,  avg # of iterations =  2.0

     total cpu time spent up to now is       38.1 secs

     total energy              =    -418.04516559 Ry
     estimated scf accuracy    <       0.00020171 Ry

     iteration #  3     ecut=    90.00 Ry     beta= 0.70
     Davidson diagonalization with overlap
     ethr =  2.10E-07,  avg # of iterations =  2.0

     total cpu time spent up to now is       39.1 secs

     total energy              =    -418.04520730 Ry
     estimated scf accuracy    <       0.00001494 Ry

     iteration #  4     ecut=    90.00 Ry     beta= 0.70
     Davidson diagonalization with overlap
     ethr =  1.56E-08,  avg # of iterations =  2.0

     total cpu time spent up to now is       40.0 secs

     total energy              =    -418.04520893 Ry
     estimated scf accuracy    <       0.00000162 Ry

     iteration #  5     ecut=    90.00 Ry     beta= 0.70
     Davidson diagonalization with overlap
     ethr =  1.69E-09,  avg # of iterations =  3.0

     total cpu time spent up to now is       41.1 secs

     total energy              =    -418.04520938 Ry
     estimated scf accuracy    <       0.00000006 Ry

     iteration #  6     ecut=    90.00 Ry     beta= 0.70
     Davidson diagonalization with overlap
     ethr =  6.30E-11,  avg # of iterations =  3.1

     total cpu time spent up to now is       42.2 secs

     End of self-consistent calculation

          k = 0.0000 0.0000 0.0000 ( 30161 PWs)   bands (ev):

   -21.4384 -21.0154 -21.0154 -20.8024 -20.8024 -20.7865 -20.7865 -20.7699
   -20.7563 -20.4829 -20.4829 -20.2156  -9.0422  -8.8589  -8.8180  -8.8180
    -8.7831  -8.7831  -8.3653  -8.3653  -8.3111  -8.2766  -8.2766  -8.1358
    -7.2555  -6.1381  -6.1381  -5.6252  -5.6252  -5.4892  -5.4892  -5.1965
    -5.1697  -4.5099  -4.5099  -3.8627  -3.3413  -3.3413  -3.2930  -3.1152
    -3.1152  -3.0974  -2.9697  -2.9327  -2.9327  -2.9107  -2.8537  -2.8537

          k =-0.1498-0.0865 0.3111 ( 30160 PWs)   bands (ev):

   -21.3699 -21.0493 -21.0069 -20.9366 -20.9123 -20.8486 -20.7185 -20.6768
   -20.6290 -20.4911 -20.4550 -20.2668  -9.0011  -8.8951  -8.8474  -8.8271
    -8.7678  -8.7096  -8.4039  -8.3686  -8.2983  -8.2353  -8.2049  -8.1800
    -7.0606  -6.3087  -6.1804  -5.9107  -5.7280  -5.4268  -5.3159  -5.1417
    -5.0304  -4.5054  -4.4335  -3.9976  -3.4415  -3.3789  -3.2945  -3.1747
    -3.1546  -3.1046  -3.0680  -2.9690  -2.9225  -2.8672  -2.8514  -2.8042

          k = 0.2996 0.1730-0.6221 ( 30140 PWs)   bands (ev):

   -21.2104 -21.1722 -21.0371 -21.0049 -20.9276 -20.9028 -20.6754 -20.6435
   -20.5273 -20.4807 -20.4097 -20.3760  -8.9338  -8.9254  -8.8641  -8.8342
    -8.7631  -8.6892  -8.3938  -8.3587  -8.2898  -8.2746  -8.1591  -8.1459
    -6.6878  -6.5821  -6.2357  -6.1656  -5.6872  -5.6184  -5.1914  -5.0672
    -4.6656  -4.6128  -4.3816  -4.2025  -3.5275  -3.4012  -3.2998  -3.2252
    -3.1826  -3.1736  -3.0557  -3.0171  -2.9766  -2.8489  -2.8091  -2.7619

          k =-0.1498 0.0865 0.6221 ( 30140 PWs)   bands (ev):

   -21.2340 -21.1031 -21.0896 -20.9831 -20.9567 -20.9005 -20.6715 -20.6003
   -20.5653 -20.4629 -20.4427 -20.3580  -8.9410  -8.9038  -8.8947  -8.8134
    -8.7672  -8.6870  -8.3870  -8.3690  -8.3283  -8.2094  -8.1790  -8.1522
    -6.7257  -6.4589  -6.4163  -5.9825  -5.8010  -5.6389  -5.1590  -4.9581
    -4.8448  -4.4771  -4.4300  -4.2114  -3.5084  -3.4335  -3.2885  -3.2115
    -3.1992  -3.1297  -3.0997  -2.9977  -2.9784  -2.8547  -2.8177  -2.7535

          k = 0.2996 0.3460-0.3111 ( 30149 PWs)   bands (ev):

   -21.2806 -21.1321 -21.0589 -20.9914 -20.9242 -20.8675 -20.6804 -20.6052
   -20.5331 -20.5206 -20.4277 -20.3389  -8.9647  -8.9364  -8.8400  -8.8122
    -8.7769  -8.6861  -8.4716  -8.4420  -8.3495  -8.1908  -8.1627  -8.1305
    -6.7904  -6.4612  -6.2287  -6.0171  -5.9908  -5.4734  -5.0683  -4.9883
    -4.8359  -4.5755  -4.4105  -4.1567  -3.4372  -3.3823  -3.3058  -3.2336
    -3.1443  -3.0873  -3.0555  -3.0308  -2.9594  -2.8985  -2.8158  -2.7332

          k = 0.1498 0.2595 0.0000 ( 30103 PWs)   bands (ev):

   -21.3888 -21.0864 -21.0348 -20.9039 -20.8751 -20.8018 -20.7412 -20.6756
   -20.6351 -20.4946 -20.4601 -20.2564  -9.0197  -8.9010  -8.8443  -8.8202
    -8.7418  -8.7335  -8.4932  -8.4280  -8.3065  -8.2517  -8.1998  -8.1308
    -7.0796  -6.2266  -6.1421  -5.9514  -5.8586  -5.3807  -5.2127  -5.0710
    -5.0184  -4.5582  -4.4918  -3.9420  -3.3444  -3.3269  -3.3153  -3.1930
    -3.1235  -3.0949  -2.9882  -2.9716  -2.9592  -2.9146  -2.8086  -2.7964

          k = 0.2996-0.1730-1.2442 ( 30130 PWs)   bands (ev):

   -21.2681 -21.2384 -21.0508 -20.9472 -20.8779 -20.8191 -20.6942 -20.6558
   -20.5549 -20.5231 -20.3743 -20.3496  -8.9795  -8.9455  -8.8488  -8.8283
    -8.7101  -8.6958  -8.5675  -8.4852  -8.3223  -8.2419  -8.1531  -8.1261
    -6.6571  -6.6524  -6.1706  -6.1311  -5.7686  -5.4971  -5.0735  -4.9425
    -4.7755  -4.7426  -4.3182  -4.1498  -3.3634  -3.3199  -3.3083  -3.2431
    -3.1330  -3.0582  -3.0434  -3.0031  -2.9679  -2.9189  -2.7738  -2.7618

          k = 0.0000 0.0000 0.9332 ( 30144 PWs)   bands (ev):

   -21.1783 -21.1783 -21.1324 -21.0376 -20.8924 -20.8924 -20.6105 -20.6105
   -20.5146 -20.4380 -20.4380 -20.4372  -8.9407  -8.9407  -8.8734  -8.7612
    -8.7561  -8.7561  -8.5007  -8.4121  -8.4121  -8.1417  -8.1417  -8.1121
    -6.5554  -6.5554  -6.4563  -6.1253  -5.7375  -5.7375  -4.8491  -4.8491
    -4.8427  -4.4773  -4.4773  -4.3763  -3.3913  -3.3913  -3.2866  -3.2426
    -3.1119  -3.1119  -3.0690  -3.0144  -3.0144  -2.8636  -2.8636  -2.7076

          k = 0.4494 0.2595 0.0000 ( 30117 PWs)   bands (ev):

   -21.2971 -21.1433 -21.1423 -20.9462 -20.8348 -20.8123 -20.7071 -20.6866
   -20.5593 -20.4660 -20.4295 -20.3288  -8.9817  -8.9280  -8.8880  -8.7865
    -8.7472  -8.6771  -8.5793  -8.4455  -8.3763  -8.1935  -8.1639  -8.1358
    -6.7859  -6.3862  -6.3465  -6.1175  -5.7420  -5.4686  -5.0821  -5.0579
    -4.7753  -4.5543  -4.4438  -4.1202  -3.3468  -3.3346  -3.3046  -3.2498
    -3.1434  -3.0745  -3.0318  -3.0015  -2.9429  -2.8951  -2.8298  -2.7392

          k = 0.2996 0.1730 0.3111 ( 30141 PWs)   bands (ev):

   -21.3238 -21.0935 -21.0184 -20.9932 -20.9046 -20.8618 -20.6885 -20.6675
   -20.5875 -20.4929 -20.4309 -20.2979  -8.9835  -8.9140  -8.8650  -8.7980
    -8.7826  -8.6629  -8.4896  -8.3582  -8.2971  -8.2780  -8.1802  -8.1684
    -6.9060  -6.3166  -6.2203  -5.9869  -5.9029  -5.4649  -5.2045  -5.0448
    -4.9297  -4.5243  -4.4236  -4.0345  -3.4544  -3.3850  -3.3281  -3.2301
    -3.1595  -3.1110  -3.0424  -2.9983  -2.9238  -2.8799  -2.8066  -2.7745

          k = 0.4494-0.2595-0.9332 ( 30129 PWs)   bands (ev):

   -21.2043 -21.2022 -21.0779 -21.0119 -20.8992 -20.8358 -20.7205 -20.6466
   -20.5154 -20.4800 -20.4260 -20.3401  -8.9555  -8.9316  -8.8853  -8.7982
    -8.7598  -8.6260  -8.5468  -8.3936  -8.3072  -8.2777  -8.1749  -8.1562
    -6.6107  -6.5003  -6.2394  -6.1645  -5.8730  -5.4815  -5.2526  -4.9894
    -4.6715  -4.5569  -4.4515  -4.0984  -3.4563  -3.4010  -3.3621  -3.2366
    -3.1941  -3.1538  -2.9983  -2.9646  -2.9449  -2.8905  -2.8094  -2.7346

          k = 0.2996-0.3460-0.6221 ( 30150 PWs)   bands (ev):

   -21.1798 -21.1378 -21.0629 -21.0499 -20.9344 -20.9226 -20.6560 -20.6395
   -20.5108 -20.4961 -20.4200 -20.3574  -8.9611  -8.8816  -8.8565  -8.8302
    -8.8048  -8.6322  -8.4219  -8.3926  -8.2725  -8.2627  -8.1832  -8.1772
    -6.5576  -6.4976  -6.2568  -6.2240  -5.7845  -5.7495  -5.0650  -5.0035
    -4.6810  -4.6404  -4.4150  -4.1288  -3.5467  -3.4136  -3.3645  -3.2662
    -3.2219  -3.1050  -3.0445  -2.9999  -2.9815  -2.8463  -2.8226  -2.7196

          k = 0.0000 0.0000-1.8663 ( 30168 PWs)   bands (ev):

   -21.1438 -21.0916 -21.0621 -21.0621 -20.9907 -20.9907 -20.5898 -20.5898
   -20.5453 -20.5453 -20.4158 -20.3396  -8.9727  -8.8486  -8.8486  -8.8285
    -8.8285  -8.5925  -8.4483  -8.4214  -8.2387  -8.2387  -8.2256  -8.2256
    -6.4629  -6.4387  -6.0921  -6.0921  -6.0418  -6.0418  -4.8734  -4.8734
    -4.7649  -4.7649  -4.3858  -4.0774  -3.5603  -3.4109  -3.4109  -3.2996
    -3.2996  -3.0599  -3.0531  -2.9431  -2.9431  -2.8606  -2.8606  -2.6869

          k = 0.2996-0.3460 0.3111 ( 30149 PWs)   bands (ev):

   -21.2798 -21.1403 -21.0372 -21.0066 -20.9228 -20.8697 -20.6740 -20.6001
   -20.5695 -20.4847 -20.4373 -20.3386  -8.9729  -8.9164  -8.8519  -8.8278
    -8.7501  -8.6964  -8.4954  -8.4211  -8.3439  -8.1901  -8.1642  -8.1332
    -6.7950  -6.4212  -6.3062  -6.0301  -5.8868  -5.5269  -5.1862  -4.8670
    -4.7548  -4.6147  -4.4760  -4.1324  -3.4438  -3.3618  -3.3178  -3.2271
    -3.1414  -3.1028  -3.0473  -3.0356  -2.9797  -2.8676  -2.8185  -2.7399

     highest occupied level (ev):    -2.6869

!    total energy              =    -418.04520939 Ry
     estimated scf accuracy    <          8.6E-09 Ry

     The total energy is the sum of the following terms:
     one-electron contribution =    -298.39258100 Ry
     hartree contribution      =     183.65444064 Ry
     xc contribution           =    -106.06469789 Ry
     ewald contribution        =    -197.24237114 Ry

     convergence has been achieved in   6 iterations

     Forces acting on atoms (cartesian axes, Ry/au):

     atom    1 type  2   force =    -0.00141471   -0.00197147    0.00169023
     atom    2 type  2   force =     0.00141471    0.00197147   -0.00169023
     atom    3 type  2   force =     0.00241470   -0.00023944    0.00169023
     atom    4 type  2   force =    -0.00241470    0.00023944   -0.00169023
     atom    5 type  2   force =    -0.00099999    0.00221091    0.00169023
     atom    6 type  2   force =     0.00099999   -0.00221091   -0.00169023
     atom    7 type  2   force =     0.00640918   -0.00649641    0.00076492
     atom    8 type  2   force =    -0.00640918    0.00649641   -0.00076492
     atom    9 type  2   force =     0.00242147    0.00879872    0.00076492
     atom   10 type  2   force =    -0.00242147   -0.00879872   -0.00076492
     atom   11 type  2   force =    -0.00883065   -0.00230231    0.00076492
     atom   12 type  2   force =     0.00883065    0.00230231   -0.00076492
     atom   13 type  1   force =    -0.00936449    0.00751505   -0.02376147
     atom   14 type  1   force =     0.00936449   -0.00751505    0.02376147
     atom   15 type  1   force =    -0.00182598   -0.01186741   -0.02376147
     atom   16 type  1   force =     0.00182598    0.01186741    0.02376147
     atom   17 type  1   force =     0.01119047    0.00435236   -0.02376147
     atom   18 type  1   force =    -0.01119047   -0.00435236    0.02376147
     atom   19 type  1   force =     0.01468509   -0.00926687    0.01563893
     atom   20 type  1   force =    -0.01468509    0.00926687   -0.01563893
     atom   21 type  1   force =     0.00068280    0.01735110    0.01563893
     atom   22 type  1   force =    -0.00068280   -0.01735110   -0.01563893
     atom   23 type  1   force =    -0.01536789   -0.00808423    0.01563893
     atom   24 type  1   force =     0.01536789    0.00808423   -0.01563893
     atom   25 type  1   force =     0.00534227    0.01412187    0.00409840
     atom   26 type  1   force =    -0.00534227   -0.01412187   -0.00409840
     atom   27 type  1   force =    -0.01490103   -0.00243439    0.00409840
     atom   28 type  1   force =     0.01490103    0.00243439   -0.00409840
     atom   29 type  1   force =     0.00955876   -0.01168748    0.00409840
     atom   30 type  1   force =    -0.00955876    0.01168748   -0.00409840
     atom   31 type  1   force =     0.00274472   -0.01226175   -0.00451542
     atom   32 type  1   force =    -0.00274472    0.01226175    0.00451542
     atom   33 type  1   force =     0.00924663    0.00850787   -0.00451542
     atom   34 type  1   force =    -0.00924663   -0.00850787    0.00451542
     atom   35 type  1   force =    -0.01199135    0.00375388   -0.00451542
     atom   36 type  1   force =     0.01199135   -0.00375388    0.00451542

     Total force =     0.103069     Total SCF correction =     0.000224


     Computing stress (Cartesian axis) and pressure

          total   stress  (Ry/bohr**3)                   (kbar)     P=       16.21
   0.00008407  -0.00000000  -0.00000000           12.37       -0.00       -0.00
   0.00000000   0.00008407   0.00000000            0.00       12.37        0.00
  -0.00000000   0.00000000   0.00016235           -0.00        0.00       23.88

     Energy error            =      3.2E-02 Ry
     Gradient error          =      2.4E-02 Ry/Bohr

     number of scf cycles    =   3
     number of bfgs steps    =   2

     energy             old  =    -418.0132410742 Ry
     energy             new  =    -418.0452093902 Ry

     CASE: energy            _new < energy            _old

     new trust radius        =       0.0725396313 bohr
     new conv_thr            =       0.0000000238 Ry


ATOMIC_POSITIONS (crystal)
O                0.2735899568        0.0355905576        0.8598434142
O                0.7264100432        0.9644094534        0.1401565558
O                0.8598434142        0.2735899568        0.0355905576
O                0.1401565558        0.7264100432        0.9644094534
O                0.0355905576        0.8598434142        0.2735899568
O                0.9644094534        0.1401565558        0.7264100432
O                0.4714101788        0.7476547960        0.3297118114
O                0.5285898212        0.2523452040        0.6702881586
O                0.3297118114        0.4714101788        0.7476547960
O                0.6702881586        0.5285898212        0.2523452040
O                0.7476547960        0.3297118114        0.4714101788
O                0.2523452040        0.6702881586        0.5285898212
H                0.1491058926        0.0526879293        0.7961301696
H                0.8508940934        0.9473120627        0.2038698304
H                0.7961301696        0.1491058926        0.0526879293
H                0.2038698304        0.8508940934        0.9473120627
H                0.0526879293        0.7961301696        0.1491058926
H                0.9473120627        0.2038698304        0.8508940934
H                0.4261804295        0.2053268948        1.0017185275
H                0.5738195705        0.7946731202       -0.0017185485
H                1.0017185275        0.4261804295        0.2053268948
H               -0.0017185485        0.5738195705        0.7946731202
H                0.2053268948        1.0017185275        0.4261804295
H                0.7946731202       -0.0017185485        0.5738195705
H                0.7209308779        0.4053305944        0.3981905038
H                0.2790691221        0.5946693756        0.6018095262
H                0.3981905038        0.7209308779        0.4053305944
H                0.6018095262        0.2790691221        0.5946693756
H                0.4053305944        0.3981905038        0.7209308779
H                0.5946693756        0.6018095262        0.2790691221
H                0.7418370510        0.2018726499        0.3646634437
H                0.2581629490        0.7981273351        0.6353365563
H                0.3646634437        0.7418370510        0.2018726499
H                0.6353365563        0.2581629490        0.7981273351
H                0.2018726499        0.3646634437        0.7418370510
H                0.7981273351        0.6353365563        0.2581629490



     Writing config-only to output data dir ./iceII/iceII.save/ :
     XML data file
     NEW-OLD atomic charge density approx. for the potential

     total cpu time spent up to now is       43.7 secs

     per-process dynamical memory:    19.9 Mb

     Self-consistent Calculation

     iteration #  1     ecut=    90.00 Ry     beta= 0.70
     Davidson diagonalization with overlap
     ethr =  1.00E-06,  avg # of iterations =  7.0

     total cpu time spent up to now is       45.4 secs

     total energy              =    -418.05775499 Ry
     estimated scf accuracy    <       0.00184069 Ry

     iteration #  2     ecut=    90.00 Ry     beta= 0.70
     Davidson diagonalization with overlap
     ethr =  1.92E-06,  avg # of iterations =  2.9

     total cpu time spent up to now is       46.4 secs

     total energy              =    -418.05811965 Ry
     estimated scf accuracy    <       0.00034911 Ry

     iteration #  3     ecut=    90.00 Ry     beta= 0.70
     Davidson diagonalization with overlap
     ethr =  3.64E-07,  avg # of iterations =  2.8

     total cpu time spent up to now is       47.4 secs

     total energy              =    -418.05819196 Ry
     estimated scf accuracy    <       0.00002060 Ry

     iteration #  4     ecut=    90.00 Ry     beta= 0.70
     Davidson diagonalization with overlap
     ethr =  2.15E-08,  avg # of iterations =  2.1

     total cpu time spent up to now is       48.4 secs

     total energy              =    -418.05819381 Ry
     estimated scf accuracy    <       0.00000353 Ry

     iteration #  5     ecut=    90.00 Ry     beta= 0.70
     Davidson diagonalization with overlap
     ethr =  3.68E-09,  avg # of iterations =  2.1

     total cpu time spent up to now is       49.4 secs

     total energy              =    -418.05819452 Ry
     estimated scf accuracy    <       0.00000012 Ry

     iteration #  6     ecut=    90.00 Ry     beta= 0.70
     Davidson diagonalization with overlap
     ethr =  1.25E-10,  avg # of iterations =  4.2

     total cpu time spent up to now is       50.6 secs

     total energy              =    -418.05819456 Ry
     estimated scf accuracy    <       0.00000013 Ry

     iteration #  7     ecut=    90.00 Ry     beta= 0.70
     Davidson diagonalization with overlap
     ethr =  1.25E-10,  avg # of iterations =  2.9

     total cpu time spent up to now is       51.6 secs

     End of self-consistent calculation

          k = 0.0000 0.0000 0.0000 ( 30161 PWs)   bands (ev):

   -21.3173 -20.8949 -20.8949 -20.6568 -20.6568 -20.6516 -20.6516 -20.6289
   -20.6204 -20.3273 -20.3273 -20.0612  -9.0105  -8.8586  -8.8586  -8.8279
    -8.7667  -8.7667  -8.4533  -8.4249  -8.4249  -8.4147  -8.4147  -8.2935
    -7.1161  -5.9885  -5.9885  -5.5261  -5.5261  -5.3155  -5.3155  -5.0677
    -5.0125  -4.3720  -4.3720  -3.7254  -3.3059  -3.3059  -3.2646  -3.0883
    -3.0883  -3.0509  -2.9513  -2.8971  -2.8971  -2.8526  -2.8168  -2.8168

          k =-0.1498-0.0865 0.3111 ( 30160 PWs)   bands (ev):

   -21.2489 -20.9276 -20.8940 -20.7930 -20.7645 -20.7117 -20.5820 -20.5363
   -20.4918 -20.3350 -20.2997 -20.1115  -8.9718  -8.8973  -8.8578  -8.8098
    -8.7617  -8.7120  -8.5020  -8.4692  -8.4351  -8.3510  -8.3339  -8.3104
    -6.9264  -6.1728  -6.0323  -5.7808  -5.6291  -5.3103  -5.1158  -5.0201
    -4.8430  -4.3723  -4.2988  -3.8672  -3.3963  -3.3402  -3.2644  -3.1445
    -3.1296  -3.0704  -3.0257  -2.9267  -2.8929  -2.8343  -2.8131  -2.7736

          k = 0.2996 0.1730-0.6221 ( 30140 PWs)   bands (ev):

   -21.1006 -21.0376 -20.9224 -20.8570 -20.7951 -20.7569 -20.5466 -20.4960
   -20.3945 -20.3226 -20.2652 -20.2088  -8.9153  -8.9150  -8.8439  -8.8303
    -8.7576  -8.6842  -8.5102  -8.4888  -8.4171  -8.3916  -8.2836  -8.2630
    -6.5266  -6.4770  -6.0806  -6.0614  -5.5626  -5.5313  -4.9681  -4.9032
    -4.4960  -4.4779  -4.2575  -4.1005  -3.4696  -3.3630  -3.2669  -3.1915
    -3.1563  -3.1247  -3.0229  -2.9950  -2.9372  -2.8251  -2.7662  -2.7357

          k =-0.1498 0.0865 0.6221 ( 30140 PWs)   bands (ev):

   -21.1174 -20.9804 -20.9620 -20.8497 -20.8114 -20.7616 -20.5343 -20.4678
   -20.4203 -20.3122 -20.2900 -20.1961  -8.9242  -8.8868  -8.8829  -8.8112
    -8.7572  -8.6787  -8.5068  -8.4942  -8.4571  -8.3247  -8.3030  -8.2740
    -6.5870  -6.3268  -6.2850  -5.8571  -5.6923  -5.5241  -4.9772  -4.7540
    -4.6854  -4.3613  -4.2894  -4.1096  -3.4521  -3.3900  -3.2596  -3.1844
    -3.1474  -3.1018  -3.0675  -2.9636  -2.9487  -2.8277  -2.7799  -2.7239

          k = 0.2996 0.3460-0.3111 ( 30149 PWs)   bands (ev):

   -21.1594 -21.0107 -20.9438 -20.8460 -20.7787 -20.7313 -20.5440 -20.4739
   -20.3916 -20.3651 -20.2703 -20.1809  -8.9389  -8.9190  -8.8323  -8.8069
    -8.7712  -8.6814  -8.5850  -8.5563  -8.4863  -8.3138  -8.2910  -8.2549
    -6.6526  -6.3008  -6.1149  -5.9195  -5.8381  -5.3430  -4.8901  -4.7979
    -4.7258  -4.4309  -4.2771  -4.0334  -3.3900  -3.3466  -3.2716  -3.2048
    -3.1095  -3.0453  -3.0289  -2.9972  -2.9326  -2.8695  -2.7711  -2.7003

          k = 0.1498 0.2595 0.0000 ( 30103 PWs)   bands (ev):

   -21.2672 -20.9658 -20.9138 -20.7665 -20.7332 -20.6560 -20.6086 -20.5354
   -20.4986 -20.3393 -20.3023 -20.1018  -8.9881  -8.8905  -8.8613  -8.8013
    -8.7474  -8.7431  -8.5891  -8.5183  -8.4492  -8.3633  -8.3192  -8.2781
    -6.9398  -6.0510  -6.0293  -5.8172  -5.7411  -5.2268  -5.0620  -4.9150
    -4.8888  -4.4158  -4.3580  -3.8008  -3.3104  -3.2911  -3.2874  -3.1662
    -3.0932  -3.0516  -2.9691  -2.9366  -2.9217  -2.8715  -2.7693  -2.7566

          k = 0.2996-0.1730-1.2442 ( 30130 PWs)   bands (ev):

   -21.1438 -21.1185 -20.9297 -20.8099 -20.7405 -20.6709 -20.5667 -20.5129
   -20.4186 -20.3636 -20.2232 -20.1894  -8.9510  -8.9187  -8.8513  -8.8024
    -8.7237  -8.6899  -8.6891  -8.5894  -8.4694  -8.3510  -8.2892  -8.2546
    -6.5130  -6.5067  -6.0296  -6.0225  -5.6301  -5.3389  -4.9050  -4.8252
    -4.6542  -4.5697  -4.1871  -4.0111  -3.3294  -3.2874  -3.2738  -3.2172
    -3.1005  -3.0150  -3.0067  -2.9819  -2.9360  -2.8827  -2.7316  -2.7236

          k = 0.0000 0.0000 0.9332 ( 30144 PWs)   bands (ev):

   -21.0534 -21.0534 -21.0293 -20.8776 -20.7576 -20.7576 -20.4693 -20.4693
   -20.3975 -20.2843 -20.2843 -20.2620  -8.9187  -8.9187  -8.8520  -8.7772
    -8.7500  -8.7500  -8.6125  -8.5389  -8.5389  -8.2640  -8.2640  -8.2398
    -6.4164  -6.4164  -6.2534  -6.0808  -5.6085  -5.6085  -4.6883  -4.6883
    -4.6077  -4.3574  -4.3574  -4.2821  -3.3493  -3.3493  -3.2478  -3.2226
    -3.0730  -3.0730  -3.0304  -2.9920  -2.9920  -2.8240  -2.8240  -2.6739

          k = 0.4494 0.2595 0.0000 ( 30117 PWs)   bands (ev):

   -21.1747 -21.0232 -21.0190 -20.8002 -20.7098 -20.6708 -20.5688 -20.5372
   -20.4281 -20.3126 -20.2715 -20.1720  -8.9508  -8.9037  -8.8767  -8.7753
    -8.7568  -8.6968  -8.6701  -8.5585  -8.5138  -8.3205  -8.2827  -8.2730
    -6.6435  -6.2243  -6.2082  -6.0250  -5.5948  -5.3089  -4.9538  -4.9147
    -4.6051  -4.4197  -4.3140  -3.9817  -3.3125  -3.2987  -3.2739  -3.2230
    -3.1113  -3.0382  -3.0024  -2.9688  -2.9061  -2.8604  -2.7935  -2.6967

          k = 0.2996 0.1730 0.3111 ( 30141 PWs)   bands (ev):

   -21.2026 -20.9734 -20.9048 -20.8495 -20.7593 -20.7193 -20.5563 -20.5337
   -20.4329 -20.3500 -20.2730 -20.1407  -8.9546  -8.9042  -8.8586  -8.7824
    -8.7791  -8.6695  -8.5905  -8.4647  -8.4243  -8.4136  -8.3224  -8.2852
    -6.7721  -6.1916  -6.0915  -5.8339  -5.7708  -5.3333  -5.0080  -4.9110
    -4.8089  -4.3755  -4.2897  -3.9021  -3.4056  -3.3481  -3.2943  -3.1957
    -3.1320  -3.0755  -3.0064  -2.9660  -2.8989  -2.8479  -2.7760  -2.7304

          k = 0.4494-0.2595-0.9332 ( 30129 PWs)   bands (ev):

   -21.0856 -21.0789 -20.9576 -20.8685 -20.7610 -20.6974 -20.5818 -20.5074
   -20.3598 -20.3466 -20.2745 -20.1759  -8.9297  -8.9082  -8.8666  -8.7835
    -8.7490  -8.6665  -8.6100  -8.5261  -8.4520  -8.4006  -8.3092  -8.2822
    -6.4870  -6.3614  -6.1222  -6.0326  -5.7035  -5.3104  -5.1124  -4.8690
    -4.5415  -4.3956  -4.3203  -3.9649  -3.4039  -3.3622  -3.3230  -3.2039
    -3.1595  -3.1260  -2.9705  -2.9332  -2.9198  -2.8619  -2.7762  -2.6896

          k = 0.2996-0.3460-0.6221 ( 30150 PWs)   bands (ev):

   -21.0716 -21.0037 -20.9457 -20.9093 -20.7947 -20.7768 -20.5258 -20.4990
   -20.3625 -20.3390 -20.2879 -20.1865  -8.9384  -8.8644  -8.8356  -8.8215
    -8.7938  -8.6206  -8.5393  -8.5233  -8.4067  -8.3867  -8.3119  -8.3020
    -6.4317  -6.3797  -6.1295  -6.0836  -5.6442  -5.6011  -4.8957  -4.8383
    -4.5488  -4.5243  -4.2493  -4.0305  -3.4751  -3.3741  -3.3267  -3.2306
    -3.1814  -3.0837  -3.0083  -2.9726  -2.9541  -2.8219  -2.7943  -2.6778

          k = 0.0000 0.0000-1.8663 ( 30168 PWs)   bands (ev):

   -21.0375 -20.9527 -20.9527 -20.9349 -20.8393 -20.8393 -20.4648 -20.4648
   -20.3788 -20.3788 -20.2909 -20.1674  -8.9432  -8.8288  -8.8288  -8.8103
    -8.8103  -8.5681  -8.5669  -8.5587  -8.3776  -8.3776  -8.3573  -8.3573
    -6.4238  -6.2527  -6.0001  -6.0001  -5.8290  -5.8290  -4.6903  -4.6903
    -4.6796  -4.6796  -4.2166  -3.9800  -3.4669  -3.3718  -3.3718  -3.2656
    -3.2656  -3.0459  -3.0161  -2.9173  -2.9173  -2.8346  -2.8346  -2.6417

          k = 0.2996-0.3460 0.3111 ( 30149 PWs)   bands (ev):

   -21.1581 -21.0223 -20.9226 -20.8556 -20.7804 -20.7342 -20.5313 -20.4763
   -20.4217 -20.3303 -20.2827 -20.1799  -8.9446  -8.9056  -8.8445  -8.8081
    -8.7490  -8.6998  -8.6100  -8.5337  -8.4801  -8.3056  -8.2965  -8.2597
    -6.6527  -6.3102  -6.1280  -5.8843  -5.8149  -5.3937  -4.9858  -4.7021
    -4.6294  -4.4650  -4.3525  -4.0063  -3.3965  -3.3256  -3.2812  -3.2015
    -3.1071  -3.0624  -3.0167  -3.0006  -2.9561  -2.8382  -2.7743  -2.7061

     highest occupied level (ev):    -2.6417

!    total energy              =    -418.05819458 Ry
     estimated scf accuracy    <          2.3E-09 Ry

     The total energy is the sum of the following terms:
     one-electron contribution =    -296.27248288 Ry
     hartree contribution      =     182.71488573 Ry
     xc contribution           =    -105.90477270 Ry
     ewald contribution        =    -198.59582474 Ry

     convergence has been achieved in   7 iterations

     Forces acting on atoms (cartesian axes, Ry/au):

     atom    1 type  2   force =     0.00017491   -0.00455160   -0.00375536
     atom    2 type  2   force =    -0.00017491    0.00455160    0.00375536
     atom    3 type  2   force =     0.00385434    0.00242728   -0.00375536
     atom    4 type  2   force =    -0.00385434   -0.00242728    0.00375536
     atom    5 type  2   force =    -0.00402926    0.00212432   -0.00375536
     atom    6 type  2   force =     0.00402926   -0.00212432    0.00375536
     atom    7 type  2   force =    -0.00481538   -0.00429124   -0.00375428
     atom    8 type  2   force =     0.00481538    0.00429124    0.00375428
     atom    9 type  2   force =     0.00612401   -0.00202462   -0.00375428
     atom   10 type  2   force =    -0.00612401    0.00202462    0.00375428
     atom   11 type  2   force =    -0.00130864    0.00631586   -0.00375428
     atom   12 type  2   force =     0.00130864   -0.00631586    0.00375428
     atom   13 type  1   force =    -0.00316502   -0.00213097   -0.00100247
     atom   14 type  1   force =     0.00316502    0.00213097    0.00100247
     atom   15 type  1   force =     0.00342798   -0.00167551   -0.00100247
     atom   16 type  1   force =    -0.00342798    0.00167551    0.00100247
     atom   17 type  1   force =    -0.00026296    0.00380647   -0.00100247
     atom   18 type  1   force =     0.00026296   -0.00380647    0.00100247
     atom   19 type  1   force =     0.00664019    0.00398348   -0.00042972
     atom   20 type  1   force =    -0.00664019   -0.00398348    0.00042972
     atom   21 type  1   force =    -0.00676989    0.00375883   -0.00042972
     atom   22 type  1   force =     0.00676989   -0.00375883    0.00042972
     atom   23 type  1   force =     0.00012970   -0.00774231   -0.00042972
     atom   24 type  1   force =    -0.00012970    0.00774231    0.00042972
     atom   25 type  1   force =     0.00246043   -0.00503791    0.00348906
     atom   26 type  1   force =    -0.00246043    0.00503791   -0.00348906
     atom   27 type  1   force =     0.00313274    0.00464975    0.00348906
     atom   28 type  1   force =    -0.00313274   -0.00464975   -0.00348906
     atom   29 type  1   force =    -0.00559318    0.00038816    0.00348906
     atom   30 type  1   force =     0.00559318   -0.00038816   -0.00348906
     atom   31 type  1   force =    -0.00133563   -0.00251576   -0.00052332
     atom   32 type  1   force =     0.00133563    0.00251576    0.00052332
     atom   33 type  1   force =     0.00284653    0.00010119   -0.00052332
     atom   34 type  1   force =    -0.00284653   -0.00010119    0.00052332
     atom   35 type  1   force =    -0.00151090    0.00241457   -0.00052332
     atom   36 type  1   force =     0.00151090   -0.00241457    0.00052332

     Total force =     0.036187     Total SCF correction =     0.000083


     Computing stress (Cartesian axis) and pressure

          total   stress  (Ry/bohr**3)                   (kbar)     P=       -0.95
  -0.00002886   0.00000000  -0.00000000           -4.25        0.00       -0.00
  -0.00000000  -0.00002886  -0.00000000           -0.00       -4.25       -0.00
  -0.00000000  -0.00000000   0.00003844           -0.00       -0.00        5.65

     Energy error            =      1.3E-02 Ry
     Gradient error          =      7.7E-03 Ry/Bohr

     number of scf cycles    =   4
     number of bfgs steps    =   3

     energy             old  =    -418.0452093902 Ry
     energy             new  =    -418.0581945816 Ry

     CASE: energy            _new < energy            _old

     new trust radius        =       0.0101113226 bohr
     new conv_thr            =       0.0000000077 Ry


ATOMIC_POSITIONS (crystal)
O                0.2734029793        0.0352506178        0.8597419332
O                0.7265970207        0.9647493932        0.1402580368
O                0.8597419332        0.2734029793        0.0352506178
O                0.1402580368        0.7265970207        0.9647493932
O                0.0352506178        0.8597419332        0.2734029793
O                0.9647493932        0.1402580368        0.7265970207
O                0.4709144722        0.7470599346        0.3296416346
O                0.5290855278        0.2529400654        0.6703583354
O                0.3296416346        0.4709144722        0.7470599346
O                0.6703583354        0.5290855278        0.2529400654
O                0.7470599346        0.3296416346        0.4709144722
O                0.2529400654        0.6703583354        0.5290855278
H                0.1484721653        0.0520893874        0.7958551452
H                0.8515278207        0.9479106046        0.2041448548
H                0.7958551452        0.1484721653        0.0520893874
H                0.2041448548        0.8515278207        0.9479106046
H                0.0520893874        0.7958551452        0.1484721653
H                0.9479106046        0.2041448548        0.8515278207
H                0.4267069535        0.2055480737        1.0014473794
H                0.5732930465        0.7944519413       -0.0014474004
H                1.0014473794        0.4267069535        0.2055480737
H               -0.0014474004        0.5732930465        0.7944519413
H                0.2055480737        1.0014473794        0.4267069535
H                0.7944519413       -0.0014474004        0.5732930465
H                0.7215125510        0.4055493076        0.3985469012
H                0.2784874490        0.5944506624        0.6014531288
H                0.3985469012        0.7215125510        0.4055493076
H                0.6014531288        0.2784874490        0.5944506624
H                0.4055493076        0.3985469012        0.7215125510
H                0.5944506624        0.6014531288        0.2784874490
H                0.7418118735        0.2016107211        0.3647985589
H                0.2581881265        0.7983892639        0.6352014411
H                0.3647985589        0.7418118735        0.2016107211
H                0.6352014411        0.2581881265        0.7983892639
H                0.2016107211        0.3647985589        0.7418118735
H                0.7983892639        0.6352014411        0.2581881265



     Writing config-only to output data dir ./iceII/iceII.save/ :
     XML data file
[...]
H                0.9583317951        0.2063781597        0.8565637561
H                0.4247362667        0.2007891866        0.9859294433
H                0.5752637333        0.7992108284        0.0140705357
H                0.9859294433        0.4247362667        0.2007891866
H                0.0140705357        0.5752637333        0.7992108284
H                0.2007891866        0.9859294433        0.4247362667
H                0.7992108284        0.0140705357        0.5752637333
H                0.7279448523        0.4068299453        0.4023328405
H                0.2720551477        0.5931700247        0.5976671895
H                0.4023328405        0.7279448523        0.4068299453
H                0.5976671895        0.2720551477        0.5931700247
H                0.4068299453        0.4023328405        0.7279448523
H                0.5931700247        0.5976671895        0.2720551477
H                0.7385701981        0.1968415204        0.3632786866
H                0.2614298019        0.8031584646        0.6367213134
H                0.3632786866        0.7385701981        0.1968415204
H                0.6367213134        0.2614298019        0.8031584646
H                0.1968415204        0.3632786866        0.7385701981
H                0.8031584646        0.6367213134        0.2614298019



     Writing config-only to output data dir ./iceII/iceII.save/ :
     XML data file
     NEW-OLD atomic charge density approx. for the potential

     total cpu time spent up to now is      163.0 secs

     per-process dynamical memory:    42.9 Mb

     Self-consistent Calculation

     iteration #  1     ecut=    90.00 Ry     beta= 0.70
     Davidson diagonalization with overlap
     ethr =  1.00E-06,  avg # of iterations =  3.0

     Threshold (ethr) on eigenvalues was too large:
     Diagonalizing with lowered threshold

     Davidson diagonalization with overlap
     ethr =  2.33E-08,  avg # of iterations =  4.0

     total cpu time spent up to now is      165.0 secs

     total energy              =    -418.06662705 Ry
     estimated scf accuracy    <       0.00002758 Ry

     iteration #  2     ecut=    90.00 Ry     beta= 0.70
     Davidson diagonalization with overlap
     ethr =  2.87E-08,  avg # of iterations =  2.0

     total cpu time spent up to now is      165.9 secs

     total energy              =    -418.06663063 Ry
     estimated scf accuracy    <       0.00000195 Ry

     iteration #  3     ecut=    90.00 Ry     beta= 0.70
     Davidson diagonalization with overlap
     ethr =  2.03E-09,  avg # of iterations =  2.9

     total cpu time spent up to now is      166.9 secs

     total energy              =    -418.06663106 Ry
     estimated scf accuracy    <       0.00000046 Ry

     iteration #  4     ecut=    90.00 Ry     beta= 0.70
     Davidson diagonalization with overlap
     ethr =  4.81E-10,  avg # of iterations =  2.1

     total cpu time spent up to now is      167.9 secs

     total energy              =    -418.06663116 Ry
     estimated scf accuracy    <       0.00000002 Ry

     iteration #  5     ecut=    90.00 Ry     beta= 0.70
     Davidson diagonalization with overlap
     ethr =  2.52E-11,  avg # of iterations =  3.0

     total cpu time spent up to now is      169.0 secs

     total energy              =    -418.06663117 Ry
     estimated scf accuracy    <          7.4E-09 Ry

     iteration #  6     ecut=    90.00 Ry     beta= 0.70
     Davidson diagonalization with overlap
     ethr =  7.71E-12,  avg # of iterations =  2.0

     total cpu time spent up to now is      169.9 secs

     End of self-consistent calculation

          k = 0.0000 0.0000 0.0000 ( 30161 PWs)   bands (ev):

   -21.3065 -20.8650 -20.8650 -20.6755 -20.6755 -20.6351 -20.6351 -20.6351
   -20.6343 -20.3584 -20.3584 -20.0688  -8.8930  -8.8268  -8.8268  -8.7993
    -8.7200  -8.7200  -8.4519  -8.4519  -8.4500  -8.4028  -8.3902  -8.3902
    -7.0669  -6.0408  -6.0408  -5.4605  -5.4605  -5.2880  -5.2880  -5.1376
    -5.0183  -4.3690  -4.3690  -3.6628  -3.2879  -3.2879  -3.2567  -3.1218
    -3.1218  -3.0812  -2.9803  -2.9803  -2.9415  -2.8739  -2.8214  -2.8214

          k =-0.1498-0.0865 0.3111 ( 30160 PWs)   bands (ev):

   -21.2373 -20.9044 -20.8562 -20.8036 -20.7702 -20.7062 -20.5909 -20.5493
   -20.4920 -20.3628 -20.3243 -20.1224  -8.8599  -8.8378  -8.8188  -8.7829
    -8.7128  -8.6854  -8.5066  -8.4837  -8.4715  -8.3879  -8.3323  -8.3308
    -6.9069  -6.2031  -6.0729  -5.7640  -5.5376  -5.3060  -5.1335  -5.0093
    -4.8482  -4.3627  -4.3048  -3.8052  -3.3657  -3.3003  -3.2690  -3.1850
    -3.1692  -3.1156  -3.0230  -2.9707  -2.9069  -2.8966  -2.8388  -2.8133

          k = 0.2996 0.1730-0.6221 ( 30140 PWs)   bands (ev):

   -21.0612 -21.0533 -20.8878 -20.8709 -20.7679 -20.7652 -20.5408 -20.5396
   -20.3733 -20.3605 -20.2538 -20.2521  -8.8440  -8.8288  -8.7859  -8.7817
    -8.7118  -8.6619  -8.5285  -8.5125  -8.4844  -8.3754  -8.2946  -8.2839
    -6.5809  -6.4706  -6.0633  -6.0605  -5.5231  -5.4597  -5.0115  -4.9276
    -4.4944  -4.4320  -4.2716  -4.0380  -3.4380  -3.3214  -3.2538  -3.2426
    -3.1869  -3.1553  -3.0716  -2.9753  -2.9572  -2.8715  -2.8206  -2.8035

          k =-0.1498 0.0865 0.6221 ( 30140 PWs)   bands (ev):

   -21.0986 -20.9661 -20.9513 -20.8380 -20.8148 -20.7540 -20.5489 -20.4736
   -20.4322 -20.3227 -20.3072 -20.2193  -8.8429  -8.8246  -8.7977  -8.7830
    -8.7063  -8.6510  -8.5262  -8.5184  -8.5015  -8.3435  -8.3122  -8.2866
    -6.6225  -6.3338  -6.2865  -5.8451  -5.6466  -5.4705  -5.0084  -4.7810
    -4.6668  -4.3466  -4.2752  -4.0574  -3.4219  -3.3487  -3.2471  -3.2248
    -3.1794  -3.1605  -3.0819  -2.9766  -2.9439  -2.8736  -2.8419  -2.7893

          k = 0.2996 0.3460-0.3111 ( 30149 PWs)   bands (ev):

   -21.1444 -20.9920 -20.9016 -20.8646 -20.7939 -20.7316 -20.5473 -20.4489
   -20.4337 -20.3586 -20.3001 -20.2022  -8.8464  -8.8391  -8.8059  -8.7659
    -8.7074  -8.6816  -8.5722  -8.5322  -8.5050  -8.3648  -8.3284  -8.2955
    -6.6313  -6.3196  -6.1238  -5.8900  -5.8230  -5.3126  -4.9300  -4.8339
    -4.6716  -4.3998  -4.2735  -4.0032  -3.3652  -3.3161  -3.2628  -3.2164
    -3.1638  -3.1032  -3.0438  -3.0114  -2.9196  -2.9145  -2.8312  -2.7506

          k = 0.1498 0.2595 0.0000 ( 30103 PWs)   bands (ev):

   -21.2555 -20.9360 -20.8820 -20.7785 -20.7499 -20.6780 -20.5934 -20.5303
   -20.4908 -20.3664 -20.3377 -20.1133  -8.8761  -8.8318  -8.8253  -8.7822
    -8.7192  -8.7113  -8.5321  -8.5023  -8.4667  -8.4076  -8.3754  -8.3317
    -6.8942  -6.1000  -5.9981  -5.7981  -5.7603  -5.2094  -5.0382  -4.9189
    -4.8886  -4.4031  -4.3605  -3.7609  -3.2912  -3.2768  -3.2700  -3.1740
    -3.1283  -3.0984  -3.0149  -2.9982  -2.9234  -2.8988  -2.7989  -2.7798

          k = 0.2996-0.1730-1.2442 ( 30130 PWs)   bands (ev):

   -21.1363 -21.0910 -20.8943 -20.8271 -20.7458 -20.7027 -20.5334 -20.5214
   -20.4042 -20.3983 -20.2320 -20.2248  -8.8552  -8.8352  -8.8126  -8.7681
    -8.7132  -8.7130  -8.5983  -8.5429  -8.4894  -8.3782  -8.3727  -8.3199
    -6.4785  -6.4543  -6.0902  -5.9525  -5.7048  -5.3386  -4.8578  -4.8362
    -4.6645  -4.5207  -4.1747  -4.0110  -3.3018  -3.2763  -3.2547  -3.2107
    -3.1373  -3.1000  -3.0482  -2.9800  -2.9786  -2.8886  -2.7656  -2.7611

          k = 0.0000 0.0000 0.9332 ( 30144 PWs)   bands (ev):

   -21.0419 -21.0419 -20.9601 -20.9329 -20.7556 -20.7556 -20.4742 -20.4742
   -20.3503 -20.3318 -20.3002 -20.3002  -8.8392  -8.8392  -8.8132  -8.7265
    -8.7265  -8.7081  -8.6069  -8.5336  -8.5336  -8.3100  -8.3100  -8.2882
    -6.3871  -6.3871  -6.3528  -5.9648  -5.6189  -5.6189  -4.7015  -4.7015
    -4.6148  -4.3375  -4.3375  -4.2321  -3.3213  -3.3213  -3.2321  -3.2126
    -3.1342  -3.1342  -3.0916  -2.9749  -2.9749  -2.8774  -2.8774  -2.7268

          k = 0.4494 0.2595 0.0000 ( 30117 PWs)   bands (ev):

   -21.1613 -21.0032 -20.9886 -20.8286 -20.6981 -20.6846 -20.5658 -20.5491
   -20.3986 -20.3333 -20.3063 -20.1938  -8.8519  -8.8293  -8.8243  -8.7612
    -8.7371  -8.6853  -8.6047  -8.5395  -8.5047  -8.3738  -8.3623  -8.3238
    -6.5990  -6.2006  -6.1512  -6.0585  -5.6638  -5.3338  -4.9414  -4.8554
    -4.5730  -4.4185  -4.3172  -3.9709  -3.2889  -3.2795  -3.2638  -3.2042
    -3.1536  -3.1067  -3.0319  -3.0059  -2.9561  -2.8635  -2.8044  -2.7447

          k = 0.2996 0.1730 0.3111 ( 30141 PWs)   bands (ev):

   -21.1893 -20.9449 -20.8695 -20.8561 -20.7860 -20.7185 -20.5628 -20.5149
   -20.4685 -20.3454 -20.3042 -20.1588  -8.8516  -8.8378  -8.8070  -8.7615
    -8.7197  -8.6633  -8.5440  -8.4980  -8.4662  -8.4227  -8.3716  -8.3107
    -6.7485  -6.1694  -6.1433  -5.8472  -5.7352  -5.3036  -5.0363  -4.8647
    -4.8124  -4.3483  -4.2935  -3.8696  -3.3880  -3.3104  -3.2830  -3.2272
    -3.1927  -3.0821  -3.0561  -2.9820  -2.8933  -2.8926  -2.8160  -2.7914

          k = 0.4494-0.2595-0.9332 ( 30129 PWs)   bands (ev):

   -21.0689 -21.0552 -20.9309 -20.8841 -20.7732 -20.6902 -20.5981 -20.5026
   -20.3869 -20.3252 -20.2859 -20.2172  -8.8430  -8.8216  -8.8103  -8.7412
    -8.7050  -8.6580  -8.5670  -8.5299  -8.4944  -8.4307  -8.3671  -8.3271
    -6.4431  -6.3324  -6.1895  -5.9701  -5.7617  -5.3367  -5.0842  -4.7976
    -4.5601  -4.3441  -4.3055  -3.9788  -3.3952  -3.3312  -3.3024  -3.2444
    -3.2159  -3.1079  -3.0125  -2.9925  -2.9147  -2.8747  -2.7986  -2.7725

          k = 0.2996-0.3460-0.6221 ( 30150 PWs)   bands (ev):

   -21.0275 -21.0158 -20.9216 -20.9085 -20.7898 -20.7884 -20.5225 -20.5194
   -20.3695 -20.3626 -20.2543 -20.2462  -8.8450  -8.7976  -8.7804  -8.7596
    -8.7388  -8.6114  -8.5598  -8.5175  -8.4802  -8.4070  -8.3282  -8.3165
    -6.4431  -6.4086  -6.1261  -6.0772  -5.6010  -5.5633  -4.9229  -4.8548
    -4.5168  -4.4819  -4.2197  -4.0193  -3.4595  -3.3359  -3.2997  -3.2934
    -3.2378  -3.1113  -3.0105  -2.9965  -2.9438  -2.8519  -2.8374  -2.7744

          k = 0.0000 0.0000-1.8663 ( 30168 PWs)   bands (ev):

   -20.9901 -20.9627 -20.8927 -20.8927 -20.8906 -20.8906 -20.4408 -20.4408
   -20.4231 -20.4231 -20.2471 -20.2310  -8.8429  -8.7570  -8.7570  -8.7557
    -8.7557  -8.6093  -8.5390  -8.5285  -8.4617  -8.4617  -8.3597  -8.3597
    -6.4244  -6.2906  -5.9470  -5.9470  -5.8607  -5.8607  -4.6639  -4.6639
    -4.6572  -4.6572  -4.1654  -3.9981  -3.4624  -3.3385  -3.3385  -3.3287
    -3.3287  -3.0567  -3.0198  -2.9257  -2.9257  -2.8709  -2.8709  -2.7429

          k = 0.2996-0.3460 0.3111 ( 30149 PWs)   bands (ev):

   -21.1446 -20.9892 -20.9098 -20.8599 -20.7928 -20.7311 -20.5462 -20.4559
   -20.4322 -20.3550 -20.2989 -20.2035  -8.8504  -8.8288  -8.8132  -8.7519
    -8.7197  -8.6835  -8.5821  -8.5280  -8.5001  -8.3593  -8.3225  -8.3053
    -6.6344  -6.2855  -6.1905  -5.8682  -5.7642  -5.3755  -5.0244  -4.7033
    -4.5977  -4.4539  -4.3405  -3.9736  -3.3752  -3.3028  -3.2547  -3.2097
    -3.1733  -3.1054  -3.0513  -3.0250  -2.9291  -2.8840  -2.8330  -2.7555

     highest occupied level (ev):    -2.7268

!    total energy              =    -418.06663117 Ry
     estimated scf accuracy    <          5.9E-10 Ry

     The total energy is the sum of the following terms:
     one-electron contribution =    -297.30793622 Ry
     hartree contribution      =     183.22631430 Ry
     xc contribution           =    -105.89067629 Ry
     ewald contribution        =    -198.09433295 Ry

     convergence has been achieved in   6 iterations

     Forces acting on atoms (cartesian axes, Ry/au):

     atom    1 type  2   force =     0.00080605   -0.00034204   -0.00042514
     atom    2 type  2   force =    -0.00080605    0.00034204    0.00042514
     atom    3 type  2   force =    -0.00010681    0.00086908   -0.00042514
     atom    4 type  2   force =     0.00010681   -0.00086908    0.00042514
     atom    5 type  2   force =    -0.00069924   -0.00052704   -0.00042514
     atom    6 type  2   force =     0.00069924    0.00052704    0.00042514
     atom    7 type  2   force =     0.00029357   -0.00062361    0.00022732
     atom    8 type  2   force =    -0.00029357    0.00062361   -0.00022732
     atom    9 type  2   force =     0.00039328    0.00056604    0.00022732
     atom   10 type  2   force =    -0.00039328   -0.00056604   -0.00022732
     atom   11 type  2   force =    -0.00068685    0.00005757    0.00022732
     atom   12 type  2   force =     0.00068685   -0.00005757   -0.00022732
     atom   13 type  1   force =     0.00000150    0.00002346   -0.00069738
     atom   14 type  1   force =    -0.00000150   -0.00002346    0.00069738
     atom   15 type  1   force =    -0.00002106   -0.00001043   -0.00069738
     atom   16 type  1   force =     0.00002106    0.00001043    0.00069738
     atom   17 type  1   force =     0.00001956   -0.00001302   -0.00069738
     atom   18 type  1   force =    -0.00001956    0.00001302    0.00069738
     atom   19 type  1   force =    -0.00013272   -0.00043583    0.00080915
     atom   20 type  1   force =     0.00013272    0.00043583   -0.00080915
     atom   21 type  1   force =     0.00044379    0.00010298    0.00080915
     atom   22 type  1   force =    -0.00044379   -0.00010298   -0.00080915
     atom   23 type  1   force =    -0.00031108    0.00033285    0.00080915
     atom   24 type  1   force =     0.00031108   -0.00033285   -0.00080915
     atom   25 type  1   force =     0.00025803   -0.00089565   -0.00005648
     atom   26 type  1   force =    -0.00025803    0.00089565    0.00005648
     atom   27 type  1   force =     0.00064664    0.00067128   -0.00005648
     atom   28 type  1   force =    -0.00064664   -0.00067128    0.00005648
     atom   29 type  1   force =    -0.00090467    0.00022436   -0.00005648
     atom   30 type  1   force =     0.00090467   -0.00022436    0.00005648
     atom   31 type  1   force =    -0.00000685    0.00038895    0.00073621
     atom   32 type  1   force =     0.00000685   -0.00038895   -0.00073621
     atom   33 type  1   force =    -0.00033342   -0.00020041    0.00073621
     atom   34 type  1   force =     0.00033342    0.00020041   -0.00073621
     atom   35 type  1   force =     0.00034027   -0.00018855    0.00073621
     atom   36 type  1   force =    -0.00034027    0.00018855   -0.00073621

     Total force =     0.005131     Total SCF correction =     0.000049


     Computing stress (Cartesian axis) and pressure

          total   stress  (Ry/bohr**3)                   (kbar)     P=       -2.01
  -0.00001661   0.00000000   0.00000000           -2.44        0.00        0.00
  -0.00000000  -0.00001661  -0.00000000           -0.00       -2.44       -0.00
  -0.00000000  -0.00000000  -0.00000771           -0.00       -0.00       -1.13

     Energy error            =      4.6E-05 Ry
     Gradient error          =      9.0E-04 Ry/Bohr

     bfgs converged in  18 scf cycles and  17 bfgs steps
     (criteria: energy <  1.0E-04 Ry, force <  1.0E-03 Ry/Bohr)

     End of BFGS Geometry Optimization

     Final energy             =    -418.0666311673 Ry

     File ./iceII/iceII.bfgs deleted, as requested
Begin final coordinates

ATOMIC_POSITIONS (crystal)
O                0.2716594900        0.0290765478        0.8571966772
O                0.7283405100        0.9709234632        0.1428032928
O                0.8571966772        0.2716594900        0.0290765478
O                0.1428032928        0.7283405100        0.9709234632
O                0.0290765478        0.8571966772        0.2716594900
O                0.9709234632        0.1428032928        0.7283405100
O                0.4716892090        0.7471459783        0.3267324364
O                0.5283107910        0.2528540217        0.6732675336
O                0.3267324364        0.4716892090        0.7471459783
O                0.6732675336        0.5283107910        0.2528540217
O                0.7471459783        0.3267324364        0.4716892090
O                0.2528540217        0.6732675336        0.5283107910
H                0.1434362299        0.0416681969        0.7936218403
H                0.8565637561        0.9583317951        0.2063781597
H                0.7936218403        0.1434362299        0.0416681969
H                0.2063781597        0.8565637561        0.9583317951
H                0.0416681969        0.7936218403        0.1434362299
H                0.9583317951        0.2063781597        0.8565637561
H                0.4247362667        0.2007891866        0.9859294433
H                0.5752637333        0.7992108284        0.0140705357
H                0.9859294433        0.4247362667        0.2007891866
H                0.0140705357        0.5752637333        0.7992108284
H                0.2007891866        0.9859294433        0.4247362667
H                0.7992108284        0.0140705357        0.5752637333
H                0.7279448523        0.4068299453        0.4023328405
H                0.2720551477        0.5931700247        0.5976671895
H                0.4023328405        0.7279448523        0.4068299453
H                0.5976671895        0.2720551477        0.5931700247
H                0.4068299453        0.4023328405        0.7279448523
H                0.5931700247        0.5976671895        0.2720551477
H                0.7385701981        0.1968415204        0.3632786866
H                0.2614298019        0.8031584646        0.6367213134
H                0.3632786866        0.7385701981        0.1968415204
H                0.6367213134        0.2614298019        0.8031584646
H                0.1968415204        0.3632786866        0.7385701981
H                0.8031584646        0.6367213134        0.2614298019
End final coordinates



     Writing all to output data dir ./iceII/iceII.save/ :
     XML data file, charge density, pseudopotentials, collected wavefunctions

     init_run     :      2.55s CPU      2.67s WALL (       1 calls)
     electrons    :    136.67s CPU    142.10s WALL (      18 calls)
     update_pot   :      2.63s CPU      3.02s WALL (      17 calls)
     forces       :      2.48s CPU      2.50s WALL (      18 calls)
     stress       :     18.97s CPU     19.39s WALL (      18 calls)

     Called by init_run:
     wfcinit      :      0.33s CPU      0.35s WALL (       1 calls)
     potinit      :      1.66s CPU      1.73s WALL (       1 calls)
     hinit0       :      0.39s CPU      0.41s WALL (       1 calls)

     Called by electrons:
     c_bands      :    102.75s CPU    103.83s WALL (     133 calls)
     sum_band     :     14.28s CPU     14.45s WALL (     133 calls)
     v_of_rho     :     22.37s CPU     26.05s WALL (     145 calls)
     newd         :      0.62s CPU      0.64s WALL (     145 calls)
     mix_rho      :      0.37s CPU      0.38s WALL (     133 calls)
     vdW_kernel   :      1.51s CPU      1.52s WALL (       1 calls)

     Called by c_bands:
     init_us_2    :      1.81s CPU      1.88s WALL (    1212 calls)
     cegterg      :     99.50s CPU    100.25s WALL (     532 calls)

     Called by *egterg:
     cdiaghg      :      7.66s CPU      7.68s WALL (    1976 calls)
     h_psi        :     74.88s CPU     75.52s WALL (    2072 calls)
     s_psi        :      3.23s CPU      3.28s WALL (    2072 calls)
     g_psi        :      0.21s CPU      0.22s WALL (    1536 calls)

     Called by h_psi:
     h_psi:calbec :      5.53s CPU      5.57s WALL (    2072 calls)
     vloc_psi     :     65.56s CPU     66.13s WALL (    2072 calls)
     add_vuspsi   :      3.24s CPU      3.25s WALL (    2072 calls)

     General routines
     calbec       :      7.83s CPU      7.88s WALL (    2964 calls)
     fft          :     13.11s CPU     15.51s WALL (    9804 calls)
     ffts         :      0.18s CPU      0.18s WALL (     133 calls)
     fftw         :     68.62s CPU     69.21s WALL (  186646 calls)

     Parallel routines

     PWSCF        :   2m44.58s CPU   2m51.89s WALL


   This run was terminated on:  14:48:47   1Apr2026            

=------------------------------------------------------------------------------=
   JOB DONE.
=------------------------------------------------------------------------------=
