
     Program PWSCF v.7.3.1 starts on 26Mar2026 at 14:55:33 

     This program is part of the open-source Quantum ESPRESSO suite
     for quantum simulation of materials; please cite
         "P. Giannozzi et al., J. Phys.:Condens. Matter 21 395502 (2009);
         "P. Giannozzi et al., J. Phys.:Condens. Matter 29 465901 (2017);
         "P. Giannozzi et al., J. Chem. Phys. 152 154105 (2020);
          URL http://www.quantum-espresso.org", 
     in publications or presentations arising from this work. More details at
     http://www.quantum-espresso.org/quote

     Parallel version (MPI), running on   128 processors

     MPI processes distributed on     1 nodes
     242843 MiB available memory on the printing compute node when the environment starts

     Waiting for input...
     Reading input from standard input

     Current dimensions of program PWSCF are:
     Max number of different atomic species (ntypx) = 10
     Max number of k-points (npk) =  40000
     Max angular momentum in pseudopotentials (lmaxx) =  4

     IMPORTANT: XC functional enforced from input :
     Exchange-correlation= VDW-DF2
                           (   1   4  13   0   2   0   0)
     Any further DFT definition will be discarded
     Please, verify this is what you really want


     K-points division:     npool     =       4
     R & G space division:  proc/nbgrp/npool/nimage =      32
     Subspace diagonalization in iterative solution of the eigenvalue problem:
     a serial algorithm will be used


     Parallelization info
     --------------------
     sticks:   dense  smooth     PW     G-vecs:    dense   smooth      PW
     Min         180     180     52                 7534     7534    1195
     Max         181     181     53                 7537     7537    1199
     Sum        5767    5767   1691               241139   241139   38335

     Using Slab Decomposition



     bravais-lattice index     =            5
     lattice parameter (alat)  =      14.7903  a.u.
     unit-cell volume          =    2090.3627 (a.u.)^3
     number of atoms/cell      =           36
     number of atomic types    =            2
     number of electrons       =        96.00
     number of Kohn-Sham states=           48
     kinetic-energy cutoff     =      90.0000  Ry
     charge density cutoff     =     360.0000  Ry
     scf convergence threshold =      1.0E-07
     mixing beta               =       0.7000
     number of iterations used =            8  plain     mixing
     Exchange-correlation= VDW-DF2
                           (   1   4  13   0   2   0   0)

     celldm(1)=  14.790281  celldm(2)=   0.000000  celldm(3)=   0.000000
     celldm(4)=  -0.392337  celldm(5)=   0.000000  celldm(6)=   0.000000

     crystal axes: (cart. coord. in units of alat)
               a(1) = (   0.834367  -0.481722   0.267909 )  
               a(2) = (   0.000000   0.963444   0.267909 )  
               a(3) = (  -0.834367  -0.481722   0.267909 )  

     reciprocal axes: (cart. coord. in units 2 pi/alat)
               b(1) = (  0.599257 -0.345981  1.244203 )  
               b(2) = ( -0.000000  0.691962  1.244203 )  
               b(3) = ( -0.599257 -0.345981  1.244203 )  


     PseudoPot. # 1 for H  read from file:
     ./H.pbe-van_ak.UPF
     MD5 check sum: 077eb6d537518a38cb46c6de387227b7
     Pseudo is Ultrasoft, Zval =  1.0
     Generated by new atomic code, or converted to UPF format
     Using radial grid of  615 points,  1 beta functions with: 
                l(1) =   0
     Q(r) pseudized with  8 coefficients,  rinner =    0.800

     PseudoPot. # 2 for O  read from file:
     ./O.pbe-van_ak.UPF
     MD5 check sum: 78c19812648e8988a0fe644b0f25305e
     Pseudo is Ultrasoft, Zval =  6.0
     Generated by new atomic code, or converted to UPF format
     Using radial grid of  737 points,  4 beta functions with: 
                l(1) =   0
                l(2) =   0
                l(3) =   1
                l(4) =   1
     Q(r) pseudized with  8 coefficients,  rinner =    0.800   0.800   0.800


     atomic species   valence    mass     pseudopotential
     H                 1.00     1.00800     H ( 1.00)
     O                 6.00    16.00000     O ( 1.00)

      6 Sym. Ops., with inversion, found



   Cartesian axes

     site n.     atom                  positions (alat units)
         1        O      tau(   1) = (  -0.4881587  -0.5153728   0.3102004  )
         2        O      tau(   2) = (   0.4881587   0.5153729   0.4935268  )
         3        O      tau(   3) = (   0.6904053  -0.1650714   0.3102004  )
         4        O      tau(   4) = (  -0.6904053   0.1650714   0.4935268  )
         5        O      tau(   5) = (  -0.2022466   0.6804442   0.3102004  )
         6        O      tau(   6) = (   0.2022466  -0.6804442   0.4935268  )
         7        O      tau(   7) = (   0.1208629   0.3351200   0.4137471  )
         8        O      tau(   8) = (  -0.1208629  -0.3351200   0.3899800  )
         9        O      tau(   9) = (  -0.3506539  -0.0628897   0.4137471  )
        10        O      tau(  10) = (   0.3506539   0.0628897   0.3899800  )
        11        O      tau(  11) = (   0.2297910  -0.2722304   0.4137471  )
        12        O      tau(  12) = (  -0.2297910   0.2722304   0.3899800  )
        13        H      tau(  13) = (  -0.5430428  -0.4102686   0.2622098  )
        14        H      tau(  14) = (   0.5430428   0.4102686   0.5415173  )
        15        H      tau(  15) = (   0.6268245  -0.2651546   0.2622098  )
        16        H      tau(  16) = (  -0.6268245   0.2651546   0.5415173  )
        17        H      tau(  17) = (  -0.0837816   0.6754232   0.2622098  )
        18        H      tau(  18) = (   0.0837817  -0.6754232   0.5415173  )
        19        H      tau(  19) = (  -0.4681736  -0.4859583   0.4327384  )
        20        H      tau(  20) = (   0.4681736   0.4859583   0.3709887  )
        21        H      tau(  21) = (   0.6549390  -0.1624711   0.4327384  )
        22        H      tau(  22) = (  -0.6549390   0.1624711   0.3709887  )
        23        H      tau(  23) = (  -0.1867654   0.6484294   0.4327384  )
        24        H      tau(  24) = (   0.1867654  -0.6484294   0.3709887  )
        25        H      tau(  25) = (   0.2718867  -0.1516220   0.4118766  )
        26        H      tau(  26) = (  -0.2718867   0.1516219   0.3918506  )
        27        H      tau(  27) = (  -0.0046349   0.3112717   0.4118766  )
        28        H      tau(  28) = (   0.0046349  -0.3112717   0.3918506  )
        29        H      tau(  29) = (  -0.2672518  -0.1596498   0.4118766  )
        30        H      tau(  30) = (   0.2672518   0.1596498   0.3918506  )
        31        H      tau(  31) = (   0.3136186  -0.3416266   0.3473301  )
        32        H      tau(  32) = (  -0.3136186   0.3416266   0.4563970  )
        33        H      tau(  33) = (   0.1390481   0.4424150   0.3473301  )
        34        H      tau(  34) = (  -0.1390480  -0.4424150   0.4563970  )
        35        H      tau(  35) = (  -0.4526667  -0.1007884   0.3473301  )
        36        H      tau(  36) = (   0.4526666   0.1007884   0.4563970  )

     number of k points=    14
                       cart. coord. in units 2pi/alat
        k(    1) = (   0.0000000   0.0000000   0.0000000), wk =   0.0312500
        k(    2) = (  -0.1498141  -0.0864952   0.3110508), wk =   0.1875000
        k(    3) = (   0.2996283   0.1729905  -0.6221017), wk =   0.0937500
        k(    4) = (  -0.1498141   0.0864952   0.6221017), wk =   0.1875000
        k(    5) = (   0.2996283   0.3459809  -0.3110508), wk =   0.1875000
        k(    6) = (   0.1498141   0.2594857   0.0000000), wk =   0.1875000
        k(    7) = (   0.2996283  -0.1729905  -1.2442034), wk =   0.0937500
        k(    8) = (   0.0000000   0.0000000   0.9331525), wk =   0.0625000
        k(    9) = (   0.4494424   0.2594857   0.0000000), wk =   0.1875000
        k(   10) = (   0.2996283   0.1729905   0.3110508), wk =   0.1875000
        k(   11) = (   0.4494424  -0.2594857  -0.9331525), wk =   0.1875000
        k(   12) = (   0.2996283  -0.3459809  -0.6221017), wk =   0.1875000
        k(   13) = (   0.0000000   0.0000000  -1.8663050), wk =   0.0312500
        k(   14) = (   0.2996283  -0.3459809   0.3110508), wk =   0.1875000

     Dense  grid:   241139 G-vectors     FFT dimensions: (  90,  90,  90)

     Estimated max dynamical RAM per process >      15.72 MB

     Estimated total dynamical RAM >       1.79 GB

     Initial potential from superposition of free atoms

     starting charge      95.9998, renormalised to      96.0000


     %%%%%%%%%%%%%%%%%%%%%%%%%%%%%%%%%%%%%%%%%%%%%%%%%%%%%%%%%%%%%%%%%%%%%%%%
     %                                                                      %
     % You are using vdW-DF, which was implemented by the Thonhauser group. %
     % Please cite the following two papers that made this development      %
     % possible and the two reviews that describe the various versions:     %
     %                                                                      %
     %   T. Thonhauser et al., PRL 115, 136402 (2015).                      %
     %   T. Thonhauser et al., PRB 76, 125112 (2007).                       %
     %   K. Berland et al., Rep. Prog. Phys. 78, 066501 (2015).             %
     %   D.C. Langreth et al., J. Phys.: Condens. Matter 21, 084203 (2009). %
     %                                                                      %
     % If you are calculating stress with vdW-DF, please also cite:         %
     %                                                                      %
     %   R. Sabatini et al., J. Phys.: Condens. Matter 24, 424209 (2012).   %
     %                                                                      %
     %%%%%%%%%%%%%%%%%%%%%%%%%%%%%%%%%%%%%%%%%%%%%%%%%%%%%%%%%%%%%%%%%%%%%%%%

     %%%%%%%%%%%%%%%%%%%%%%%%%%%%%%%%%%%%%%%%%%%%%%%%%%%%%%%%%%%%%%%%%%%%%%%%
     %                                                                      %
     %  vdW-DF NEWS:                                                        %
     %                                                                      %
     %  * vdW-DF3 is now available. DOI: 10.1021/acs.jctc.0c00471           %
     %    use with input_dft = 'vdW-DF3-opt1' or 'vdW-DF3-opt2'             %
     %                                                                      %
     %  * Unscreened and range-separated hybrid vdW-DF-cx functionals       %
     %    DOI: 10.1063/1.4986522 and 10.1088/1361-648X/ac2ad2               %
     %    use with input_dft = 'vdW-DF-cx0'    and 'vdW-DF-ahcx'            %
     %  * Unscreened and range-separated hybrid vdW-DF2-b86r functionals    %
     %    DOI: 10.1063/1.4986522 and DOI: 10.1103/PhysRevX.12.041003        %
     %    use with input_dft = 'vdW-DF2-br0' and 'vdW-DF2-ahbr'             %
     %                                                                      %
     %%%%%%%%%%%%%%%%%%%%%%%%%%%%%%%%%%%%%%%%%%%%%%%%%%%%%%%%%%%%%%%%%%%%%%%%


     Starting wfcs are   72 randomized atomic wfcs

     total cpu time spent up to now is        2.9 secs

     per-process dynamical memory:    19.6 Mb

     Self-consistent Calculation

     iteration #  1     ecut=    90.00 Ry     beta= 0.70
     Davidson diagonalization with overlap
     ethr =  1.00E-02,  avg # of iterations =  2.0

     total cpu time spent up to now is        3.9 secs

     total energy              =    -415.94209630 Ry
     estimated scf accuracy    <       4.73335528 Ry

     iteration #  2     ecut=    90.00 Ry     beta= 0.70
     Davidson diagonalization with overlap
     ethr =  4.93E-03,  avg # of iterations =  3.0

     total cpu time spent up to now is        5.1 secs

     total energy              =    -417.49328181 Ry
     estimated scf accuracy    <       3.42721032 Ry

     iteration #  3     ecut=    90.00 Ry     beta= 0.70
     Davidson diagonalization with overlap
     ethr =  3.57E-03,  avg # of iterations =  2.0

     total cpu time spent up to now is        6.0 secs

     total energy              =    -417.94146428 Ry
     estimated scf accuracy    <       0.14870637 Ry

     iteration #  4     ecut=    90.00 Ry     beta= 0.70
     Davidson diagonalization with overlap
     ethr =  1.55E-04,  avg # of iterations =  4.0

     total cpu time spent up to now is        7.4 secs

     total energy              =    -418.05573135 Ry
     estimated scf accuracy    <       0.18577597 Ry

     iteration #  5     ecut=    90.00 Ry     beta= 0.70
     Davidson diagonalization with overlap
     ethr =  1.55E-04,  avg # of iterations =  2.0

     total cpu time spent up to now is        8.2 secs

     total energy              =    -418.06099713 Ry
     estimated scf accuracy    <       0.02736852 Ry

     iteration #  6     ecut=    90.00 Ry     beta= 0.70
     Davidson diagonalization with overlap
     ethr =  2.85E-05,  avg # of iterations =  2.0

     total cpu time spent up to now is        9.2 secs

     total energy              =    -418.06293766 Ry
     estimated scf accuracy    <       0.00428827 Ry

     iteration #  7     ecut=    90.00 Ry     beta= 0.70
     Davidson diagonalization with overlap
     ethr =  4.47E-06,  avg # of iterations =  3.0

     total cpu time spent up to now is       10.3 secs

     total energy              =    -418.06601822 Ry
     estimated scf accuracy    <       0.00109769 Ry

     iteration #  8     ecut=    90.00 Ry     beta= 0.70
     Davidson diagonalization with overlap
     ethr =  1.14E-06,  avg # of iterations =  2.1

     total cpu time spent up to now is       11.3 secs

     total energy              =    -418.06494872 Ry
     estimated scf accuracy    <       0.00346518 Ry

     iteration #  9     ecut=    90.00 Ry     beta= 0.70
     Davidson diagonalization with overlap
     ethr =  1.14E-06,  avg # of iterations =  2.0

     total cpu time spent up to now is       12.3 secs

     total energy              =    -418.06512531 Ry
     estimated scf accuracy    <       0.00060924 Ry

     iteration # 10     ecut=    90.00 Ry     beta= 0.70
     Davidson diagonalization with overlap
     ethr =  6.35E-07,  avg # of iterations =  1.3

     total cpu time spent up to now is       13.1 secs

     total energy              =    -418.06510325 Ry
     estimated scf accuracy    <       0.00025483 Ry

     iteration # 11     ecut=    90.00 Ry     beta= 0.70
     Davidson diagonalization with overlap
     ethr =  2.65E-07,  avg # of iterations =  2.0

     total cpu time spent up to now is       14.0 secs

     total energy              =    -418.06510118 Ry
     estimated scf accuracy    <       0.00006915 Ry

     iteration # 12     ecut=    90.00 Ry     beta= 0.70
     Davidson diagonalization with overlap
     ethr =  7.20E-08,  avg # of iterations =  2.3

     total cpu time spent up to now is       15.1 secs

     total energy              =    -418.06513037 Ry
     estimated scf accuracy    <       0.00000878 Ry

     iteration # 13     ecut=    90.00 Ry     beta= 0.70
     Davidson diagonalization with overlap
     ethr =  9.15E-09,  avg # of iterations =  2.0

     total cpu time spent up to now is       16.0 secs

     total energy              =    -418.06512334 Ry
     estimated scf accuracy    <       0.00002059 Ry

     iteration # 14     ecut=    90.00 Ry     beta= 0.70
     Davidson diagonalization with overlap
     ethr =  9.15E-09,  avg # of iterations =  3.0

     total cpu time spent up to now is       17.1 secs

     total energy              =    -418.06512650 Ry
     estimated scf accuracy    <       0.00000305 Ry

     iteration # 15     ecut=    90.00 Ry     beta= 0.70
     Davidson diagonalization with overlap
     ethr =  3.18E-09,  avg # of iterations =  2.0

     total cpu time spent up to now is       18.0 secs

     total energy              =    -418.06512633 Ry
     estimated scf accuracy    <       0.00000368 Ry

     iteration # 16     ecut=    90.00 Ry     beta= 0.70
     Davidson diagonalization with overlap
     ethr =  3.18E-09,  avg # of iterations =  1.0

     total cpu time spent up to now is       18.8 secs

     total energy              =    -418.06512603 Ry
     estimated scf accuracy    <       0.00000200 Ry

     iteration # 17     ecut=    90.00 Ry     beta= 0.70
     Davidson diagonalization with overlap
     ethr =  2.08E-09,  avg # of iterations =  1.0

     total cpu time spent up to now is       19.5 secs

     total energy              =    -418.06512593 Ry
     estimated scf accuracy    <       0.00000088 Ry

     iteration # 18     ecut=    90.00 Ry     beta= 0.70
     Davidson diagonalization with overlap
     ethr =  9.19E-10,  avg # of iterations =  1.0

     total cpu time spent up to now is       20.3 secs

     total energy              =    -418.06512576 Ry
     estimated scf accuracy    <       0.00000045 Ry

     iteration # 19     ecut=    90.00 Ry     beta= 0.70
     Davidson diagonalization with overlap
     ethr =  4.72E-10,  avg # of iterations =  2.0

     total cpu time spent up to now is       21.3 secs

     End of self-consistent calculation

          k = 0.0000 0.0000 0.0000 ( 30161 PWs)   bands (ev):

   -21.2412 -20.7943 -20.7943 -20.6035 -20.6035 -20.5625 -20.5618 -20.5618
   -20.5610 -20.2818 -20.2818 -19.9883  -8.8452  -8.7753  -8.7753  -8.7500
    -8.6657  -8.6657  -8.3917  -8.3917  -8.3865  -8.3403  -8.3323  -8.3323
    -7.0663  -6.0290  -6.0290  -5.4377  -5.4377  -5.2750  -5.2750  -5.1108
    -4.9994  -4.3395  -4.3395  -3.6288  -3.2673  -3.2673  -3.2348  -3.1033
    -3.1033  -3.0686  -2.9686  -2.9686  -2.9254  -2.8509  -2.8032  -2.8032

          k =-0.1498-0.0865 0.3111 ( 30160 PWs)   bands (ev):

   -21.1712 -20.8344 -20.7854 -20.7330 -20.6986 -20.6338 -20.5176 -20.4756
   -20.4173 -20.2862 -20.2472 -20.0426  -8.8109  -8.7870  -8.7677  -8.7323
    -8.6591  -8.6313  -8.4487  -8.4235  -8.4113  -8.3276  -8.2696  -8.2671
    -6.9034  -6.1926  -6.0598  -5.7486  -5.5166  -5.2831  -5.1208  -4.9877
    -4.8308  -4.3323  -4.2746  -3.7728  -3.3465  -3.2810  -3.2497  -3.1691
    -3.1515  -3.0986  -3.0035  -2.9566  -2.8940  -2.8795  -2.8215  -2.7967

          k = 0.2996 0.1730-0.6221 ( 30140 PWs)   bands (ev):

   -20.9924 -20.9863 -20.8166 -20.8017 -20.6957 -20.6936 -20.4671 -20.4660
   -20.2966 -20.2842 -20.1762 -20.1736  -8.7932  -8.7777  -8.7357  -8.7306
    -8.6596  -8.6097  -8.4679  -8.4536  -8.4244  -8.3147  -8.2298  -8.2185
    -6.5713  -6.4636  -6.0526  -6.0447  -5.5027  -5.4390  -4.9981  -4.9104
    -4.4698  -4.4096  -4.2422  -4.0025  -3.4192  -3.3049  -3.2376  -3.2261
    -3.1701  -3.1315  -3.0529  -2.9602  -2.9410  -2.8588  -2.8053  -2.7884

          k =-0.1498 0.0865 0.6221 ( 30140 PWs)   bands (ev):

   -21.0310 -20.8970 -20.8819 -20.7673 -20.7435 -20.6820 -20.4753 -20.3991
   -20.3566 -20.2456 -20.2299 -20.1407  -8.7920  -8.7738  -8.7473  -8.7324
    -8.6539  -8.5978  -8.4668  -8.4589  -8.4426  -8.2816  -8.2479  -8.2210
    -6.6135  -6.3256  -6.2760  -5.8288  -5.6272  -5.4508  -4.9919  -4.7658
    -4.6473  -4.3167  -4.2464  -4.0240  -3.4034  -3.3321  -3.2312  -3.2076
    -3.1573  -3.1424  -3.0628  -2.9614  -2.9275  -2.8597  -2.8280  -2.7741

          k = 0.2996 0.3460-0.3111 ( 30149 PWs)   bands (ev):

   -21.0773 -20.9226 -20.8328 -20.7934 -20.7231 -20.6597 -20.4733 -20.3738
   -20.3583 -20.2815 -20.2228 -20.1236  -8.7966  -8.7890  -8.7542  -8.7152
    -8.6548  -8.6287  -8.5152  -8.4744  -8.4452  -8.3025  -8.2651  -8.2313
    -6.6245  -6.3077  -6.1129  -5.8743  -5.8065  -5.2921  -4.9095  -4.8180
    -4.6450  -4.3759  -4.2430  -3.9697  -3.3457  -3.2990  -3.2450  -3.1961
    -3.1483  -3.0839  -3.0264  -2.9956  -2.9028  -2.9000  -2.8167  -2.7341

          k = 0.1498 0.2595 0.0000 ( 30103 PWs)   bands (ev):

   -21.1896 -20.8661 -20.8115 -20.7076 -20.6789 -20.6060 -20.5196 -20.4557
   -20.4159 -20.2898 -20.2610 -20.0334  -8.8280  -8.7818  -8.7738  -8.7312
    -8.6650  -8.6570  -8.4759  -8.4446  -8.4062  -8.3449  -8.3158  -8.2690
    -6.8903  -6.0869  -5.9842  -5.7830  -5.7463  -5.1885  -5.0140  -4.8960
    -4.8697  -4.3751  -4.3312  -3.7265  -3.2710  -3.2575  -3.2501  -3.1557
    -3.1106  -3.0843  -3.0009  -2.9841  -2.9042  -2.8812  -2.7822  -2.7623

          k = 0.2996-0.1730-1.2442 ( 30130 PWs)   bands (ev):

   -21.0691 -21.0229 -20.8237 -20.7570 -20.6744 -20.6312 -20.4584 -20.4468
   -20.3287 -20.3217 -20.1538 -20.1467  -8.8070  -8.7853  -8.7605  -8.7171
    -8.6590  -8.6588  -8.5450  -8.4868  -8.4290  -8.3165  -8.3114  -8.2563
    -6.4707  -6.4421  -6.0770  -5.9399  -5.6888  -5.3194  -4.8302  -4.8144
    -4.6363  -4.5009  -4.1466  -3.9772  -3.2831  -3.2584  -3.2346  -3.1913
    -3.1208  -3.0844  -3.0314  -2.9632  -2.9606  -2.8728  -2.7478  -2.7458

          k = 0.0000 0.0000 0.9332 ( 30144 PWs)   bands (ev):

   -20.9737 -20.9737 -20.8892 -20.8650 -20.6841 -20.6841 -20.3990 -20.3990
   -20.2744 -20.2544 -20.2229 -20.2229  -8.7890  -8.7890  -8.7617  -8.6747
    -8.6747  -8.6576  -8.5498  -8.4748  -8.4748  -8.2461  -8.2461  -8.2238
    -6.3796  -6.3796  -6.3398  -5.9481  -5.6015  -5.6015  -4.6770  -4.6770
    -4.6085  -4.3070  -4.3070  -4.1965  -3.3035  -3.3035  -3.2126  -3.1913
    -3.1157  -3.1157  -3.0731  -2.9609  -2.9609  -2.8629  -2.8629  -2.7102

          k = 0.4494 0.2595 0.0000 ( 30117 PWs)   bands (ev):

   -21.0943 -20.9344 -20.9191 -20.7588 -20.6260 -20.6125 -20.4919 -20.4746
   -20.3220 -20.2565 -20.2292 -20.1151  -8.8033  -8.7800  -8.7728  -8.7092
    -8.6839  -8.6295  -8.5532  -8.4816  -8.4455  -8.3127  -8.3000  -8.2602
    -6.5910  -6.1866  -6.1394  -6.0456  -5.6485  -5.3157  -4.9142  -4.8310
    -4.5531  -4.3921  -4.2880  -3.9378  -3.2706  -3.2611  -3.2439  -3.1850
    -3.1364  -3.0912  -3.0158  -2.9893  -2.9374  -2.8478  -2.7884  -2.7278

          k = 0.2996 0.1730 0.3111 ( 30141 PWs)   bands (ev):

   -21.1226 -20.8749 -20.7996 -20.7856 -20.7153 -20.6461 -20.4894 -20.4402
   -20.3938 -20.2683 -20.2270 -20.0795  -8.8018  -8.7880  -8.7561  -8.7103
    -8.6666  -8.6081  -8.4887  -8.4375  -8.4056  -8.3648  -8.3083  -8.2467
    -6.7420  -6.1598  -6.1268  -5.8327  -5.7198  -5.2814  -5.0185  -4.8460
    -4.7874  -4.3217  -4.2651  -3.8359  -3.3677  -3.2925  -3.2667  -3.2104
    -3.1765  -3.0647  -3.0395  -2.9636  -2.8765  -2.8752  -2.8022  -2.7750

          k = 0.4494-0.2595-0.9332 ( 30129 PWs)   bands (ev):

   -21.0011 -20.9866 -20.8611 -20.8147 -20.7021 -20.6174 -20.5251 -20.4278
   -20.3109 -20.2477 -20.2083 -20.1388  -8.7931  -8.7714  -8.7602  -8.6895
    -8.6527  -8.6014  -8.5141  -8.4716  -8.4338  -8.3715  -8.3040  -8.2632
    -6.4317  -6.3224  -6.1746  -5.9566  -5.7456  -5.3184  -5.0626  -4.7746
    -4.5344  -4.3218  -4.2795  -3.9437  -3.3742  -3.3148  -3.2860  -3.2276
    -3.2017  -3.0907  -2.9936  -2.9741  -2.8968  -2.8579  -2.7825  -2.7591

          k = 0.2996-0.3460-0.6221 ( 30150 PWs)   bands (ev):

   -20.9579 -20.9484 -20.8512 -20.8395 -20.7182 -20.7170 -20.4485 -20.4454
   -20.2929 -20.2861 -20.1756 -20.1686  -8.7946  -8.7468  -8.7297  -8.7083
    -8.6874  -8.5572  -8.5012  -8.4601  -8.4193  -8.3471  -8.2638  -8.2517
    -6.4325  -6.3980  -6.1149  -6.0609  -5.5837  -5.5458  -4.9036  -4.8348
    -4.4926  -4.4584  -4.1984  -3.9809  -3.4392  -3.3201  -3.2831  -3.2785
    -3.2193  -3.0946  -2.9926  -2.9782  -2.9264  -2.8364  -2.8213  -2.7616

          k = 0.0000 0.0000-1.8663 ( 30168 PWs)   bands (ev):

   -20.9192 -20.8954 -20.8218 -20.8218 -20.8216 -20.8216 -20.3656 -20.3656
   -20.3474 -20.3474 -20.1681 -20.1534  -8.7934  -8.7059  -8.7059  -8.7043
    -8.7043  -8.5494  -8.4893  -8.4720  -8.3997  -8.3997  -8.2960  -8.2960
    -6.4193  -6.2673  -5.9332  -5.9332  -5.8460  -5.8460  -4.6463  -4.6463
    -4.6295  -4.6295  -4.1473  -3.9588  -3.4396  -3.3239  -3.3239  -3.3130
    -3.3130  -3.0410  -2.9996  -2.9086  -2.9086  -2.8535  -2.8535  -2.7304

          k = 0.2996-0.3460 0.3111 ( 30149 PWs)   bands (ev):

   -21.0774 -20.9202 -20.8397 -20.7895 -20.7220 -20.6592 -20.4722 -20.3806
   -20.3566 -20.2784 -20.2214 -20.1249  -8.8010  -8.7778  -8.7622  -8.7004
    -8.6676  -8.6305  -8.5259  -8.4690  -8.4404  -8.2975  -8.2587  -8.2413
    -6.6270  -6.2769  -6.1761  -5.8524  -5.7482  -5.3555  -5.0065  -4.6838
    -4.5713  -4.4285  -4.3130  -3.9390  -3.3560  -3.2856  -3.2352  -3.1894
    -3.1593  -3.0877  -3.0336  -3.0080  -2.9129  -2.8694  -2.8177  -2.7393

     highest occupied level (ev):    -2.7102

!    total energy              =    -418.06512584 Ry
     estimated scf accuracy    <          7.7E-09 Ry

     The total energy is the sum of the following terms:
     one-electron contribution =    -296.15052526 Ry
     hartree contribution      =     182.71524305 Ry
     xc contribution           =    -105.77052739 Ry
     ewald contribution        =    -198.85931623 Ry

     convergence has been achieved in  19 iterations

     Forces acting on atoms (cartesian axes, Ry/au):

     atom    1 type  2   force =    -0.00225257    0.00863126    0.00510994
     atom    2 type  2   force =     0.00225257   -0.00863126   -0.00510994
     atom    3 type  2   force =    -0.00634860   -0.00626641    0.00510994
     atom    4 type  2   force =     0.00634860    0.00626641   -0.00510994
     atom    5 type  2   force =     0.00860117   -0.00236485    0.00510994
     atom    6 type  2   force =    -0.00860117    0.00236485   -0.00510994
     atom    7 type  2   force =    -0.00613490    0.00473591   -0.00389059
     atom    8 type  2   force =     0.00613490   -0.00473591    0.00389059
     atom    9 type  2   force =    -0.00103397   -0.00768093   -0.00389059
     atom   10 type  2   force =     0.00103397    0.00768093    0.00389059
     atom   11 type  2   force =     0.00716887    0.00294502   -0.00389059
     atom   12 type  2   force =    -0.00716887   -0.00294502    0.00389059
     atom   13 type  1   force =     0.00440979   -0.00729871    0.00336121
     atom   14 type  1   force =    -0.00440979    0.00729871   -0.00336121
     atom   15 type  1   force =     0.00411597    0.00746834    0.00336121
     atom   16 type  1   force =    -0.00411597   -0.00746834   -0.00336121
     atom   17 type  1   force =    -0.00852576   -0.00016964    0.00336121
     atom   18 type  1   force =     0.00852576    0.00016964   -0.00336121
     atom   19 type  1   force =    -0.00180323   -0.00192588   -0.00880206
     atom   20 type  1   force =     0.00180323    0.00192588    0.00880206
     atom   21 type  1   force =     0.00256948   -0.00059871   -0.00880206
     atom   22 type  1   force =    -0.00256948    0.00059871    0.00880206
     atom   23 type  1   force =    -0.00076625    0.00252459   -0.00880206
     atom   24 type  1   force =     0.00076625   -0.00252459    0.00880206
     atom   25 type  1   force =    -0.00201835   -0.00945754   -0.00040115
     atom   26 type  1   force =     0.00201835    0.00945754    0.00040115
     atom   27 type  1   force =     0.00919964    0.00298082   -0.00040115
     atom   28 type  1   force =    -0.00919964   -0.00298082    0.00040115
     atom   29 type  1   force =    -0.00718129    0.00647671   -0.00040115
     atom   30 type  1   force =     0.00718129   -0.00647671    0.00040115
     atom   31 type  1   force =    -0.00577523    0.00609260    0.00548985
     atom   32 type  1   force =     0.00577523   -0.00609260   -0.00548985
     atom   33 type  1   force =    -0.00238873   -0.00804779    0.00548985
     atom   34 type  1   force =     0.00238873    0.00804779   -0.00548985
     atom   35 type  1   force =     0.00816396    0.00195519    0.00548985
     atom   36 type  1   force =    -0.00816396   -0.00195519   -0.00548985

     Total force =     0.057112     Total SCF correction =     0.000045


     Computing stress (Cartesian axis) and pressure

          total   stress  (Ry/bohr**3)                   (kbar)     P=      -12.93
  -0.00008923   0.00000000  -0.00000000          -13.13        0.00       -0.00
  -0.00000000  -0.00008923  -0.00000000           -0.00      -13.13       -0.00
   0.00000000  -0.00000000  -0.00008530            0.00       -0.00      -12.55


     Writing all to output data dir ./iceII/iceII.save/ :
     XML data file, charge density, pseudopotentials, collected wavefunctions

     init_run     :      2.52s CPU      2.67s WALL (       1 calls)
     electrons    :     17.48s CPU     18.47s WALL (       1 calls)
     forces       :      0.14s CPU      0.15s WALL (       1 calls)
     stress       :      1.07s CPU      1.11s WALL (       1 calls)

     Called by init_run:
     wfcinit      :      0.35s CPU      0.35s WALL (       1 calls)
     potinit      :      1.63s CPU      1.73s WALL (       1 calls)
     hinit0       :      0.40s CPU      0.40s WALL (       1 calls)

     Called by electrons:
     c_bands      :     12.60s CPU     12.77s WALL (      19 calls)
     sum_band     :      2.02s CPU      2.05s WALL (      19 calls)
     v_of_rho     :      4.28s CPU      5.06s WALL (      20 calls)
     newd         :      0.07s CPU      0.07s WALL (      20 calls)
     mix_rho      :      0.08s CPU      0.08s WALL (      19 calls)
     vdW_kernel   :      1.51s CPU      1.52s WALL (       1 calls)

     Called by c_bands:
     init_us_2    :      0.24s CPU      0.25s WALL (     164 calls)
     cegterg      :     12.15s CPU     12.27s WALL (      76 calls)

     Called by *egterg:
     cdiaghg      :      0.87s CPU      0.87s WALL (     235 calls)
     h_psi        :      9.57s CPU      9.67s WALL (     239 calls)
     s_psi        :      0.41s CPU      0.42s WALL (     239 calls)
     g_psi        :      0.03s CPU      0.03s WALL (     159 calls)

     Called by h_psi:
     h_psi:calbec :      0.68s CPU      0.69s WALL (     239 calls)
     vloc_psi     :      8.40s CPU      8.49s WALL (     239 calls)
     add_vuspsi   :      0.42s CPU      0.42s WALL (     239 calls)

     General routines
     calbec       :      0.93s CPU      0.94s WALL (     335 calls)
     fft          :      2.03s CPU      2.48s WALL (    1272 calls)
     ffts         :      0.02s CPU      0.03s WALL (      19 calls)
     fftw         :      8.91s CPU      9.00s WALL (   24268 calls)

     Parallel routines

     PWSCF        :     21.50s CPU     23.10s WALL


   This run was terminated on:  14:55:56  26Mar2026            

=------------------------------------------------------------------------------=
   JOB DONE.
=------------------------------------------------------------------------------=
