
     Program PWSCF v.7.3.1 starts on 26Mar2026 at 14:56: 3 

     This program is part of the open-source Quantum ESPRESSO suite
     for quantum simulation of materials; please cite
         "P. Giannozzi et al., J. Phys.:Condens. Matter 21 395502 (2009);
         "P. Giannozzi et al., J. Phys.:Condens. Matter 29 465901 (2017);
         "P. Giannozzi et al., J. Chem. Phys. 152 154105 (2020);
          URL http://www.quantum-espresso.org", 
     in publications or presentations arising from this work. More details at
     http://www.quantum-espresso.org/quote

     Parallel version (MPI), running on   128 processors

     MPI processes distributed on     1 nodes
     242769 MiB available memory on the printing compute node when the environment starts

     Waiting for input...
     Reading input from standard input

     Current dimensions of program PWSCF are:
     Max number of different atomic species (ntypx) = 10
     Max number of k-points (npk) =  40000
     Max angular momentum in pseudopotentials (lmaxx) =  4

     IMPORTANT: XC functional enforced from input :
     Exchange-correlation= VDW-DF2
                           (   1   4  13   0   2   0   0)
     Any further DFT definition will be discarded
     Please, verify this is what you really want


     K-points division:     npool     =       4
     R & G space division:  proc/nbgrp/npool/nimage =      32
     Subspace diagonalization in iterative solution of the eigenvalue problem:
     a serial algorithm will be used


     Parallelization info
     --------------------
     sticks:   dense  smooth     PW     G-vecs:    dense   smooth      PW
     Min         180     180     52                 7578     7578    1200
     Max         181     181     53                 7582     7582    1204
     Sum        5779    5779   1695               242567   242567   38485

     Using Slab Decomposition



     bravais-lattice index     =            5
     lattice parameter (alat)  =      14.8197  a.u.
     unit-cell volume          =    2102.8548 (a.u.)^3
     number of atoms/cell      =           36
     number of atomic types    =            2
     number of electrons       =        96.00
     number of Kohn-Sham states=           48
     kinetic-energy cutoff     =      90.0000  Ry
     charge density cutoff     =     360.0000  Ry
     scf convergence threshold =      1.0E-07
     mixing beta               =       0.7000
     number of iterations used =            8  plain     mixing
     Exchange-correlation= VDW-DF2
                           (   1   4  13   0   2   0   0)

     celldm(1)=  14.819685  celldm(2)=   0.000000  celldm(3)=   0.000000
     celldm(4)=  -0.392337  celldm(5)=   0.000000  celldm(6)=   0.000000

     crystal axes: (cart. coord. in units of alat)
               a(1) = (   0.834367  -0.481722   0.267909 )  
               a(2) = (   0.000000   0.963444   0.267909 )  
               a(3) = (  -0.834367  -0.481722   0.267909 )  

     reciprocal axes: (cart. coord. in units 2 pi/alat)
               b(1) = (  0.599257 -0.345981  1.244203 )  
               b(2) = ( -0.000000  0.691962  1.244203 )  
               b(3) = ( -0.599257 -0.345981  1.244203 )  


     PseudoPot. # 1 for H  read from file:
     ./H.pbe-van_ak.UPF
     MD5 check sum: 077eb6d537518a38cb46c6de387227b7
     Pseudo is Ultrasoft, Zval =  1.0
     Generated by new atomic code, or converted to UPF format
     Using radial grid of  615 points,  1 beta functions with: 
                l(1) =   0
     Q(r) pseudized with  8 coefficients,  rinner =    0.800

     PseudoPot. # 2 for O  read from file:
     ./O.pbe-van_ak.UPF
     MD5 check sum: 78c19812648e8988a0fe644b0f25305e
     Pseudo is Ultrasoft, Zval =  6.0
     Generated by new atomic code, or converted to UPF format
     Using radial grid of  737 points,  4 beta functions with: 
                l(1) =   0
                l(2) =   0
                l(3) =   1
                l(4) =   1
     Q(r) pseudized with  8 coefficients,  rinner =    0.800   0.800   0.800


     atomic species   valence    mass     pseudopotential
     H                 1.00     1.00800     H ( 1.00)
     O                 6.00    16.00000     O ( 1.00)

      6 Sym. Ops., with inversion, found



   Cartesian axes

     site n.     atom                  positions (alat units)
         1        O      tau(   1) = (  -0.4881587  -0.5153728   0.3102004  )
         2        O      tau(   2) = (   0.4881587   0.5153729   0.4935268  )
         3        O      tau(   3) = (   0.6904053  -0.1650714   0.3102004  )
         4        O      tau(   4) = (  -0.6904053   0.1650714   0.4935268  )
         5        O      tau(   5) = (  -0.2022466   0.6804442   0.3102004  )
         6        O      tau(   6) = (   0.2022466  -0.6804442   0.4935268  )
         7        O      tau(   7) = (   0.1208629   0.3351200   0.4137471  )
         8        O      tau(   8) = (  -0.1208629  -0.3351200   0.3899800  )
         9        O      tau(   9) = (  -0.3506539  -0.0628897   0.4137471  )
        10        O      tau(  10) = (   0.3506539   0.0628897   0.3899800  )
        11        O      tau(  11) = (   0.2297910  -0.2722304   0.4137471  )
        12        O      tau(  12) = (  -0.2297910   0.2722304   0.3899800  )
        13        H      tau(  13) = (  -0.5430428  -0.4102686   0.2622098  )
        14        H      tau(  14) = (   0.5430428   0.4102686   0.5415173  )
        15        H      tau(  15) = (   0.6268245  -0.2651546   0.2622098  )
        16        H      tau(  16) = (  -0.6268245   0.2651546   0.5415173  )
        17        H      tau(  17) = (  -0.0837816   0.6754232   0.2622098  )
        18        H      tau(  18) = (   0.0837817  -0.6754232   0.5415173  )
        19        H      tau(  19) = (  -0.4681736  -0.4859583   0.4327384  )
        20        H      tau(  20) = (   0.4681736   0.4859583   0.3709887  )
        21        H      tau(  21) = (   0.6549390  -0.1624711   0.4327384  )
        22        H      tau(  22) = (  -0.6549390   0.1624711   0.3709887  )
        23        H      tau(  23) = (  -0.1867654   0.6484294   0.4327384  )
        24        H      tau(  24) = (   0.1867654  -0.6484294   0.3709887  )
        25        H      tau(  25) = (   0.2718867  -0.1516220   0.4118766  )
        26        H      tau(  26) = (  -0.2718867   0.1516219   0.3918506  )
        27        H      tau(  27) = (  -0.0046349   0.3112717   0.4118766  )
        28        H      tau(  28) = (   0.0046349  -0.3112717   0.3918506  )
        29        H      tau(  29) = (  -0.2672518  -0.1596498   0.4118766  )
        30        H      tau(  30) = (   0.2672518   0.1596498   0.3918506  )
        31        H      tau(  31) = (   0.3136186  -0.3416266   0.3473301  )
        32        H      tau(  32) = (  -0.3136186   0.3416266   0.4563970  )
        33        H      tau(  33) = (   0.1390481   0.4424150   0.3473301  )
        34        H      tau(  34) = (  -0.1390480  -0.4424150   0.4563970  )
        35        H      tau(  35) = (  -0.4526667  -0.1007884   0.3473301  )
        36        H      tau(  36) = (   0.4526666   0.1007884   0.4563970  )

     number of k points=    14
                       cart. coord. in units 2pi/alat
        k(    1) = (   0.0000000   0.0000000   0.0000000), wk =   0.0312500
        k(    2) = (  -0.1498141  -0.0864952   0.3110508), wk =   0.1875000
        k(    3) = (   0.2996283   0.1729905  -0.6221017), wk =   0.0937500
        k(    4) = (  -0.1498141   0.0864952   0.6221017), wk =   0.1875000
        k(    5) = (   0.2996283   0.3459809  -0.3110508), wk =   0.1875000
        k(    6) = (   0.1498141   0.2594857   0.0000000), wk =   0.1875000
        k(    7) = (   0.2996283  -0.1729905  -1.2442034), wk =   0.0937500
        k(    8) = (   0.0000000   0.0000000   0.9331525), wk =   0.0625000
        k(    9) = (   0.4494424   0.2594857   0.0000000), wk =   0.1875000
        k(   10) = (   0.2996283   0.1729905   0.3110508), wk =   0.1875000
        k(   11) = (   0.4494424  -0.2594857  -0.9331525), wk =   0.1875000
        k(   12) = (   0.2996283  -0.3459809  -0.6221017), wk =   0.1875000
        k(   13) = (   0.0000000   0.0000000  -1.8663050), wk =   0.0312500
        k(   14) = (   0.2996283  -0.3459809   0.3110508), wk =   0.1875000

     Dense  grid:   242567 G-vectors     FFT dimensions: (  90,  90,  90)

     Estimated max dynamical RAM per process >      15.80 MB

     Estimated total dynamical RAM >       1.80 GB

     Initial potential from superposition of free atoms

     starting charge      95.9998, renormalised to      96.0000


     %%%%%%%%%%%%%%%%%%%%%%%%%%%%%%%%%%%%%%%%%%%%%%%%%%%%%%%%%%%%%%%%%%%%%%%%
     %                                                                      %
     % You are using vdW-DF, which was implemented by the Thonhauser group. %
     % Please cite the following two papers that made this development      %
     % possible and the two reviews that describe the various versions:     %
     %                                                                      %
     %   T. Thonhauser et al., PRL 115, 136402 (2015).                      %
     %   T. Thonhauser et al., PRB 76, 125112 (2007).                       %
     %   K. Berland et al., Rep. Prog. Phys. 78, 066501 (2015).             %
     %   D.C. Langreth et al., J. Phys.: Condens. Matter 21, 084203 (2009). %
     %                                                                      %
     % If you are calculating stress with vdW-DF, please also cite:         %
     %                                                                      %
     %   R. Sabatini et al., J. Phys.: Condens. Matter 24, 424209 (2012).   %
     %                                                                      %
     %%%%%%%%%%%%%%%%%%%%%%%%%%%%%%%%%%%%%%%%%%%%%%%%%%%%%%%%%%%%%%%%%%%%%%%%

     %%%%%%%%%%%%%%%%%%%%%%%%%%%%%%%%%%%%%%%%%%%%%%%%%%%%%%%%%%%%%%%%%%%%%%%%
     %                                                                      %
     %  vdW-DF NEWS:                                                        %
     %                                                                      %
     %  * vdW-DF3 is now available. DOI: 10.1021/acs.jctc.0c00471           %
     %    use with input_dft = 'vdW-DF3-opt1' or 'vdW-DF3-opt2'             %
     %                                                                      %
     %  * Unscreened and range-separated hybrid vdW-DF-cx functionals       %
     %    DOI: 10.1063/1.4986522 and 10.1088/1361-648X/ac2ad2               %
     %    use with input_dft = 'vdW-DF-cx0'    and 'vdW-DF-ahcx'            %
     %  * Unscreened and range-separated hybrid vdW-DF2-b86r functionals    %
     %    DOI: 10.1063/1.4986522 and DOI: 10.1103/PhysRevX.12.041003        %
     %    use with input_dft = 'vdW-DF2-br0' and 'vdW-DF2-ahbr'             %
     %                                                                      %
     %%%%%%%%%%%%%%%%%%%%%%%%%%%%%%%%%%%%%%%%%%%%%%%%%%%%%%%%%%%%%%%%%%%%%%%%


     Starting wfcs are   72 randomized atomic wfcs

     total cpu time spent up to now is        2.9 secs

     per-process dynamical memory:    20.3 Mb

     Self-consistent Calculation

     iteration #  1     ecut=    90.00 Ry     beta= 0.70
     Davidson diagonalization with overlap
     ethr =  1.00E-02,  avg # of iterations =  2.0

     total cpu time spent up to now is        3.9 secs

     total energy              =    -415.94286356 Ry
     estimated scf accuracy    <       4.72160429 Ry

     iteration #  2     ecut=    90.00 Ry     beta= 0.70
     Davidson diagonalization with overlap
     ethr =  4.92E-03,  avg # of iterations =  3.0

     total cpu time spent up to now is        5.1 secs

     total energy              =    -417.49047262 Ry
     estimated scf accuracy    <       3.44303786 Ry

     iteration #  3     ecut=    90.00 Ry     beta= 0.70
     Davidson diagonalization with overlap
     ethr =  3.59E-03,  avg # of iterations =  2.0

     total cpu time spent up to now is        6.0 secs

     total energy              =    -417.93886120 Ry
     estimated scf accuracy    <       0.15057353 Ry

     iteration #  4     ecut=    90.00 Ry     beta= 0.70
     Davidson diagonalization with overlap
     ethr =  1.57E-04,  avg # of iterations =  4.0

     negative rho (up, down):  5.498E-08 0.000E+00

     total cpu time spent up to now is        7.4 secs

     total energy              =    -418.05464375 Ry
     estimated scf accuracy    <       0.18704989 Ry

     iteration #  5     ecut=    90.00 Ry     beta= 0.70
     Davidson diagonalization with overlap
     ethr =  1.57E-04,  avg # of iterations =  2.0

     negative rho (up, down):  2.088E-07 0.000E+00

     total cpu time spent up to now is        8.2 secs

     total energy              =    -418.05978147 Ry
     estimated scf accuracy    <       0.02762421 Ry

     iteration #  6     ecut=    90.00 Ry     beta= 0.70
     Davidson diagonalization with overlap
     ethr =  2.88E-05,  avg # of iterations =  2.0

     negative rho (up, down):  4.242E-07 0.000E+00

     total cpu time spent up to now is        9.2 secs

     total energy              =    -418.06197345 Ry
     estimated scf accuracy    <       0.00416596 Ry

     iteration #  7     ecut=    90.00 Ry     beta= 0.70
     Davidson diagonalization with overlap
     ethr =  4.34E-06,  avg # of iterations =  3.0

     negative rho (up, down):  4.846E-07 0.000E+00

     total cpu time spent up to now is       10.3 secs

     total energy              =    -418.06510103 Ry
     estimated scf accuracy    <       0.00088049 Ry

     iteration #  8     ecut=    90.00 Ry     beta= 0.70
     Davidson diagonalization with overlap
     ethr =  9.17E-07,  avg # of iterations =  3.0

     negative rho (up, down):  3.616E-07 0.000E+00

     total cpu time spent up to now is       11.4 secs

     total energy              =    -418.06369137 Ry
     estimated scf accuracy    <       0.00468182 Ry

     iteration #  9     ecut=    90.00 Ry     beta= 0.70
     Davidson diagonalization with overlap
     ethr =  9.17E-07,  avg # of iterations =  3.0

     negative rho (up, down):  3.474E-07 0.000E+00

     total cpu time spent up to now is       12.6 secs

     total energy              =    -418.06409410 Ry
     estimated scf accuracy    <       0.00046131 Ry

     iteration # 10     ecut=    90.00 Ry     beta= 0.70
     Davidson diagonalization with overlap
     ethr =  4.81E-07,  avg # of iterations =  1.0

     negative rho (up, down):  3.299E-07 0.000E+00

     total cpu time spent up to now is       13.4 secs

     total energy              =    -418.06405767 Ry
     estimated scf accuracy    <       0.00029257 Ry

     iteration # 11     ecut=    90.00 Ry     beta= 0.70
     Davidson diagonalization with overlap
     ethr =  3.05E-07,  avg # of iterations =  1.2

     negative rho (up, down):  3.089E-07 0.000E+00

     total cpu time spent up to now is       14.1 secs

     total energy              =    -418.06405064 Ry
     estimated scf accuracy    <       0.00011721 Ry

     iteration # 12     ecut=    90.00 Ry     beta= 0.70
     Davidson diagonalization with overlap
     ethr =  1.22E-07,  avg # of iterations =  2.0

     negative rho (up, down):  2.948E-07 0.000E+00

     total cpu time spent up to now is       15.1 secs

     total energy              =    -418.06406136 Ry
     estimated scf accuracy    <       0.00002012 Ry

     iteration # 13     ecut=    90.00 Ry     beta= 0.70
     Davidson diagonalization with overlap
     ethr =  2.10E-08,  avg # of iterations =  2.4

     negative rho (up, down):  2.944E-07 0.000E+00

     total cpu time spent up to now is       16.1 secs

     total energy              =    -418.06406578 Ry
     estimated scf accuracy    <       0.00000065 Ry

     iteration # 14     ecut=    90.00 Ry     beta= 0.70
     Davidson diagonalization with overlap
     ethr =  6.81E-10,  avg # of iterations =  3.4

     negative rho (up, down):  2.955E-07 0.000E+00

     total cpu time spent up to now is       17.3 secs

     total energy              =    -418.06406608 Ry
     estimated scf accuracy    <       0.00000029 Ry

     iteration # 15     ecut=    90.00 Ry     beta= 0.70
     Davidson diagonalization with overlap
     ethr =  3.07E-10,  avg # of iterations =  1.0

     negative rho (up, down):  2.982E-07 0.000E+00

     total cpu time spent up to now is       18.0 secs

     total energy              =    -418.06406607 Ry
     estimated scf accuracy    <       0.00000012 Ry

     iteration # 16     ecut=    90.00 Ry     beta= 0.70
     Davidson diagonalization with overlap
     ethr =  1.23E-10,  avg # of iterations =  2.0

     negative rho (up, down):  2.966E-07 0.000E+00

     total cpu time spent up to now is       19.0 secs

     End of self-consistent calculation

          k = 0.0000 0.0000 0.0000 ( 30383 PWs)   bands (ev):

   -21.2416 -20.8002 -20.8002 -20.6113 -20.6113 -20.5706 -20.5699 -20.5699
   -20.5695 -20.2932 -20.2932 -20.0030  -8.8517  -8.7819  -8.7819  -8.7573
    -8.6738  -8.6738  -8.4015  -8.4015  -8.3961  -8.3500  -8.3426  -8.3426
    -7.0784  -6.0475  -6.0475  -5.4603  -5.4603  -5.2983  -5.2983  -5.1356
    -5.0237  -4.3675  -4.3675  -3.6590  -3.2911  -3.2911  -3.2591  -3.1286
    -3.1286  -3.0942  -2.9947  -2.9947  -2.9520  -2.8789  -2.8311  -2.8311

          k =-0.1498-0.0865 0.3111 ( 30362 PWs)   bands (ev):

   -21.1724 -20.8398 -20.7914 -20.7393 -20.7052 -20.6412 -20.5263 -20.4847
   -20.4271 -20.2976 -20.2590 -20.0567  -8.8177  -8.7937  -8.7745  -8.7396
    -8.6673  -8.6397  -8.4578  -8.4328  -8.4209  -8.3378  -8.2805  -8.2778
    -6.9166  -6.2103  -6.0784  -5.7692  -5.5388  -5.3065  -5.1447  -5.0127
    -4.8560  -4.3603  -4.3029  -3.8029  -3.3695  -3.3044  -3.2737  -3.1937
    -3.1764  -3.1242  -3.0295  -2.9830  -2.9209  -2.9066  -2.8491  -2.8245

          k = 0.2996 0.1730-0.6221 ( 30336 PWs)   bands (ev):

   -20.9957 -20.9897 -20.8222 -20.8076 -20.7024 -20.7004 -20.4763 -20.4753
   -20.3078 -20.2956 -20.1888 -20.1862  -8.7999  -8.7846  -8.7429  -8.7383
    -8.6679  -8.6182  -8.4770  -8.4624  -8.4340  -8.3250  -8.2410  -8.2299
    -6.5865  -6.4801  -6.0714  -6.0635  -5.5247  -5.4616  -5.0227  -4.9356
    -4.4975  -4.4365  -4.2703  -4.0320  -3.4416  -3.3280  -3.2616  -3.2502
    -3.1946  -3.1571  -3.0784  -2.9867  -2.9673  -2.8860  -2.8331  -2.8161

          k =-0.1498 0.0865 0.6221 ( 30323 PWs)   bands (ev):

   -21.0339 -20.9015 -20.8867 -20.7734 -20.7498 -20.6890 -20.4844 -20.4091
   -20.3671 -20.2574 -20.2419 -20.1537  -8.7988  -8.7807  -8.7542  -8.7400
    -8.6623  -8.6066  -8.4758  -8.4678  -8.4517  -8.2924  -8.2589  -8.2323
    -6.6288  -6.3425  -6.2934  -5.8488  -5.6489  -5.4731  -5.0166  -4.7914
    -4.6736  -4.3445  -4.2750  -4.0528  -3.4259  -3.3550  -3.2554  -3.2318
    -3.1826  -3.1672  -3.0883  -2.9878  -2.9540  -2.8867  -2.8556  -2.8019

          k = 0.2996 0.3460-0.3111 ( 30315 PWs)   bands (ev):

   -21.0796 -20.9268 -20.8381 -20.7991 -20.7298 -20.6668 -20.4826 -20.3841
   -20.3689 -20.2929 -20.2349 -20.1368  -8.8034  -8.7960  -8.7613  -8.7227
    -8.6629  -8.6369  -8.5235  -8.4832  -8.4542  -8.3130  -8.2760  -8.2426
    -6.6397  -6.3247  -6.1315  -5.8940  -5.8270  -5.3155  -4.9347  -4.8433
    -4.6715  -4.4032  -4.2718  -3.9993  -3.3689  -3.3223  -3.2689  -3.2205
    -3.1730  -3.1094  -3.0521  -3.0218  -2.9296  -2.9268  -2.8443  -2.7624

          k = 0.1498 0.2595 0.0000 ( 30295 PWs)   bands (ev):

   -21.1906 -20.8709 -20.8171 -20.7144 -20.6859 -20.6138 -20.5284 -20.4651
   -20.4257 -20.3011 -20.2726 -20.0476  -8.8347  -8.7886  -8.7806  -8.7384
    -8.6729  -8.6650  -8.4846  -8.4538  -8.4155  -8.3549  -8.3262  -8.2798
    -6.9038  -6.1051  -6.0035  -5.8033  -5.7670  -5.2123  -5.0391  -4.9212
    -4.8950  -4.4030  -4.3591  -3.7571  -3.2947  -3.2814  -3.2741  -3.1803
    -3.1358  -3.1098  -3.0268  -3.0101  -2.9313  -2.9084  -2.8102  -2.7904

          k = 0.2996-0.1730-1.2442 ( 30290 PWs)   bands (ev):

   -21.0714 -21.0259 -20.8290 -20.7634 -20.6813 -20.6389 -20.4678 -20.4565
   -20.3395 -20.3326 -20.1666 -20.1596  -8.8138  -8.7924  -8.7677  -8.7247
    -8.6665  -8.6664  -8.5528  -8.4955  -8.4381  -8.3269  -8.3217  -8.2673
    -6.4872  -6.4585  -6.0957  -5.9594  -5.7094  -5.3426  -4.8560  -4.8405
    -4.6627  -4.5277  -4.1752  -4.0072  -3.3068  -3.2823  -3.2590  -3.2154
    -3.1457  -3.1098  -3.0572  -2.9894  -2.9873  -2.8998  -2.7762  -2.7741

          k = 0.0000 0.0000 0.9332 ( 30327 PWs)   bands (ev):

   -20.9772 -20.9772 -20.8937 -20.8700 -20.6912 -20.6912 -20.4091 -20.4091
   -20.2857 -20.2661 -20.2349 -20.2349  -8.7959  -8.7959  -8.7687  -8.6826
    -8.6826  -8.6654  -8.5578  -8.4834  -8.4834  -8.2573  -8.2573  -8.2352
    -6.3964  -6.3964  -6.3564  -5.9684  -5.6229  -5.6229  -4.7032  -4.7032
    -4.6343  -4.3353  -4.3353  -4.2249  -3.3270  -3.3270  -3.2368  -3.2158
    -3.1408  -3.1408  -3.0988  -2.9872  -2.9872  -2.8900  -2.8900  -2.7387

          k = 0.4494 0.2595 0.0000 ( 30303 PWs)   bands (ev):

   -21.0964 -20.9383 -20.9234 -20.7651 -20.6337 -20.6203 -20.5010 -20.4837
   -20.3329 -20.2682 -20.2412 -20.1284  -8.8102  -8.7871  -8.7799  -8.7167
    -8.6915  -8.6373  -8.5611  -8.4902  -8.4544  -8.3231  -8.3106  -8.2712
    -6.6065  -6.2044  -6.1579  -6.0648  -5.6694  -5.3386  -4.9397  -4.8569
    -4.5798  -4.4199  -4.3160  -3.9678  -3.2944  -3.2850  -3.2681  -3.2091
    -3.1614  -3.1166  -3.0416  -3.0153  -2.9643  -2.8751  -2.8163  -2.7563

          k = 0.2996 0.1730 0.3111 ( 30349 PWs)   bands (ev):

   -21.1244 -20.8798 -20.8055 -20.7912 -20.7217 -20.6534 -20.4984 -20.4497
   -20.4039 -20.2798 -20.2390 -20.0932  -8.8087  -8.7949  -8.7631  -8.7178
    -8.6747  -8.6164  -8.4974  -8.4467  -8.4152  -8.3747  -8.3185  -8.2578
    -6.7565  -6.1780  -6.1452  -5.8526  -5.7407  -5.3051  -5.0430  -4.8719
    -4.8130  -4.3495  -4.2935  -3.8662  -3.3906  -3.3160  -3.2903  -3.2346
    -3.2010  -3.0903  -3.0652  -2.9899  -2.9035  -2.9023  -2.8301  -2.8030

          k = 0.4494-0.2595-0.9332 ( 30294 PWs)   bands (ev):

   -21.0042 -20.9901 -20.8659 -20.8204 -20.7088 -20.6250 -20.5338 -20.4376
   -20.3220 -20.2595 -20.2206 -20.1519  -8.8001  -8.7786  -8.7674  -8.6973
    -8.6608  -8.6093  -8.5226  -8.4804  -8.4429  -8.3813  -8.3142  -8.2741
    -6.4482  -6.3398  -6.1927  -5.9761  -5.7661  -5.3414  -5.0874  -4.8007
    -4.5616  -4.3496  -4.3076  -3.9737  -3.3972  -3.3381  -3.3095  -3.2516
    -3.2258  -3.1157  -3.0196  -3.0003  -2.9237  -2.8850  -2.8105  -2.7873

          k = 0.2996-0.3460-0.6221 ( 30344 PWs)   bands (ev):

   -20.9617 -20.9523 -20.8563 -20.8448 -20.7246 -20.7235 -20.4580 -20.4550
   -20.3042 -20.2975 -20.1882 -20.1813  -8.8016  -8.7538  -8.7371  -8.7161
    -8.6954  -8.5662  -8.5099  -8.4686  -8.4289  -8.3572  -8.2747  -8.2626
    -6.4489  -6.4148  -6.1332  -6.0798  -5.6052  -5.5678  -4.9289  -4.8609
    -4.5197  -4.4855  -4.2269  -4.0103  -3.4617  -3.3431  -3.3067  -3.3021
    -3.2439  -3.1195  -3.0186  -3.0044  -2.9529  -2.8637  -2.8487  -2.7899

          k = 0.0000 0.0000-1.8663 ( 30306 PWs)   bands (ev):

   -20.9237 -20.9004 -20.8270 -20.8270 -20.8268 -20.8268 -20.3760 -20.3760
   -20.3581 -20.3581 -20.1808 -20.1663  -8.8004  -8.7138  -8.7138  -8.7118
    -8.7118  -8.5579  -8.4984  -8.4802  -8.4095  -8.4095  -8.3063  -8.3063
    -6.4358  -6.2851  -5.9525  -5.9525  -5.8664  -5.8664  -4.6735  -4.6735
    -4.6559  -4.6559  -4.1758  -3.9880  -3.4628  -3.3469  -3.3469  -3.3362
    -3.3362  -3.0661  -3.0256  -2.9352  -2.9352  -2.8807  -2.8807  -2.7591

          k = 0.2996-0.3460 0.3111 ( 30315 PWs)   bands (ev):

   -21.0797 -20.9245 -20.8449 -20.7952 -20.7287 -20.6664 -20.4815 -20.3908
   -20.3671 -20.2898 -20.2335 -20.1380  -8.8079  -8.7848  -8.7693  -8.7082
    -8.6755  -8.6386  -8.5341  -8.4779  -8.4494  -8.3082  -8.2696  -8.2525
    -6.6421  -6.2944  -6.1939  -5.8724  -5.7692  -5.3784  -5.0310  -4.7105
    -4.5979  -4.4562  -4.3403  -3.9691  -3.3791  -3.3092  -3.2593  -3.2138
    -3.1840  -3.1131  -3.0593  -3.0341  -2.9395  -2.8965  -2.8453  -2.7676

     highest occupied level (ev):    -2.7387

!    total energy              =    -418.06406608 Ry
     estimated scf accuracy    <       0.00000005 Ry

     The total energy is the sum of the following terms:
     one-electron contribution =    -296.85386113 Ry
     hartree contribution      =     182.97181081 Ry
     xc contribution           =    -105.71726166 Ry
     ewald contribution        =    -198.46475410 Ry

     convergence has been achieved in  16 iterations

     Forces acting on atoms (cartesian axes, Ry/au):

     atom    1 type  2   force =    -0.00296986    0.01144962    0.00662006
     atom    2 type  2   force =     0.00296986   -0.01144962   -0.00662006
     atom    3 type  2   force =    -0.00843073   -0.00829679    0.00662006
     atom    4 type  2   force =     0.00843073    0.00829679   -0.00662006
     atom    5 type  2   force =     0.01140059   -0.00315283    0.00662006
     atom    6 type  2   force =    -0.01140059    0.00315283   -0.00662006
     atom    7 type  2   force =    -0.00828113    0.00639815   -0.00515529
     atom    8 type  2   force =     0.00828113   -0.00639815    0.00515529
     atom    9 type  2   force =    -0.00140040   -0.01037075   -0.00515529
     atom   10 type  2   force =     0.00140040    0.01037075    0.00515529
     atom   11 type  2   force =     0.00968153    0.00397259   -0.00515529
     atom   12 type  2   force =    -0.00968153   -0.00397259    0.00515529
     atom   13 type  1   force =     0.00566810   -0.00961119    0.00466160
     atom   14 type  1   force =    -0.00566810    0.00961119   -0.00466160
     atom   15 type  1   force =     0.00548948    0.00971431    0.00466160
     atom   16 type  1   force =    -0.00548948   -0.00971431   -0.00466160
     atom   17 type  1   force =    -0.01115758   -0.00010312    0.00466160
     atom   18 type  1   force =     0.01115758    0.00010312   -0.00466160
     atom   19 type  1   force =    -0.00235376   -0.00243917   -0.01169373
     atom   20 type  1   force =     0.00235376    0.00243917    0.01169373
     atom   21 type  1   force =     0.00328926   -0.00081883   -0.01169373
     atom   22 type  1   force =    -0.00328926    0.00081883    0.01169373
     atom   23 type  1   force =    -0.00093550    0.00325800   -0.01169373
     atom   24 type  1   force =     0.00093550   -0.00325800    0.01169373
     atom   25 type  1   force =    -0.00282958   -0.01228911   -0.00046072
     atom   26 type  1   force =     0.00282958    0.01228911    0.00046072
     atom   27 type  1   force =     0.01205747    0.00369407   -0.00046072
     atom   28 type  1   force =    -0.01205747   -0.00369407    0.00046072
     atom   29 type  1   force =    -0.00922790    0.00859504   -0.00046072
     atom   30 type  1   force =     0.00922790   -0.00859504    0.00046072
     atom   31 type  1   force =    -0.00764655    0.00787605    0.00704736
     atom   32 type  1   force =     0.00764655   -0.00787605   -0.00704736
     atom   33 type  1   force =    -0.00299758   -0.01056013    0.00704736
     atom   34 type  1   force =     0.00299758    0.01056013   -0.00704736
     atom   35 type  1   force =     0.01064413    0.00268408    0.00704736
     atom   36 type  1   force =    -0.01064413   -0.00268408   -0.00704736

     Total force =     0.075248     Total SCF correction =     0.000130


     Computing stress (Cartesian axis) and pressure

          total   stress  (Ry/bohr**3)                   (kbar)     P=      -17.48
  -0.00012034  -0.00000000  -0.00000000          -17.70       -0.00       -0.00
   0.00000000  -0.00012034  -0.00000000            0.00      -17.70       -0.00
   0.00000000  -0.00000000  -0.00011583            0.00       -0.00      -17.04


     Writing all to output data dir ./iceII/iceII.save/ :
     XML data file, charge density, pseudopotentials, collected wavefunctions

     init_run     :      2.56s CPU      2.67s WALL (       1 calls)
     electrons    :     15.40s CPU     16.19s WALL (       1 calls)
     forces       :      0.14s CPU      0.14s WALL (       1 calls)
     stress       :      1.06s CPU      1.11s WALL (       1 calls)

     Called by init_run:
     wfcinit      :      0.36s CPU      0.36s WALL (       1 calls)
     potinit      :      1.66s CPU      1.73s WALL (       1 calls)
     hinit0       :      0.39s CPU      0.40s WALL (       1 calls)

     Called by electrons:
     c_bands      :     11.26s CPU     11.39s WALL (      16 calls)
     sum_band     :      1.71s CPU      1.74s WALL (      16 calls)
     v_of_rho     :      3.88s CPU      4.53s WALL (      17 calls)
     newd         :      0.06s CPU      0.07s WALL (      17 calls)
     mix_rho      :      0.07s CPU      0.07s WALL (      16 calls)
     vdW_kernel   :      1.51s CPU      1.52s WALL (       1 calls)

     Called by c_bands:
     init_us_2    :      0.20s CPU      0.22s WALL (     140 calls)
     cegterg      :     10.90s CPU     10.99s WALL (      64 calls)

     Called by *egterg:
     cdiaghg      :      0.80s CPU      0.80s WALL (     212 calls)
     h_psi        :      8.57s CPU      8.64s WALL (     216 calls)
     s_psi        :      0.36s CPU      0.37s WALL (     216 calls)
     g_psi        :      0.02s CPU      0.02s WALL (     148 calls)

     Called by h_psi:
     h_psi:calbec :      0.62s CPU      0.62s WALL (     216 calls)
     vloc_psi     :      7.51s CPU      7.57s WALL (     216 calls)
     add_vuspsi   :      0.38s CPU      0.38s WALL (     216 calls)

     General routines
     calbec       :      0.83s CPU      0.84s WALL (     300 calls)
     fft          :      1.81s CPU      2.19s WALL (    1089 calls)
     ffts         :      0.02s CPU      0.02s WALL (      16 calls)
     fftw         :      7.91s CPU      7.97s WALL (   21566 calls)

     Parallel routines

     PWSCF        :     19.47s CPU     20.80s WALL


   This run was terminated on:  14:56:24  26Mar2026            

=------------------------------------------------------------------------------=
   JOB DONE.
=------------------------------------------------------------------------------=
