
     Program PWSCF v.7.3.1 starts on  1Apr2026 at 14:48:52 

     This program is part of the open-source Quantum ESPRESSO suite
     for quantum simulation of materials; please cite
         "P. Giannozzi et al., J. Phys.:Condens. Matter 21 395502 (2009);
         "P. Giannozzi et al., J. Phys.:Condens. Matter 29 465901 (2017);
         "P. Giannozzi et al., J. Chem. Phys. 152 154105 (2020);
          URL http://www.quantum-espresso.org", 
     in publications or presentations arising from this work. More details at
     http://www.quantum-espresso.org/quote

     Parallel version (MPI), running on   128 processors

     MPI processes distributed on     1 nodes
     242573 MiB available memory on the printing compute node when the environment starts

     Waiting for input...
     Reading input from standard input

     Current dimensions of program PWSCF are:
     Max number of different atomic species (ntypx) = 10
     Max number of k-points (npk) =  40000
     Max angular momentum in pseudopotentials (lmaxx) =  4

     IMPORTANT: XC functional enforced from input :
     Exchange-correlation= VDW-DF2
                           (   1   4  13   0   2   0   0)
     Any further DFT definition will be discarded
     Please, verify this is what you really want


     K-points division:     npool     =       4
     R & G space division:  proc/nbgrp/npool/nimage =      32
     Subspace diagonalization in iterative solution of the eigenvalue problem:
     a serial algorithm will be used


     Parallelization info
     --------------------
     sticks:   dense  smooth     PW     G-vecs:    dense   smooth      PW
     Min         180     180     53                 7599     7599    1205
     Max         181     181     54                 7604     7604    1207
     Sum        5783    5783   1703               243265   243265   38593

     Using Slab Decomposition



     bravais-lattice index     =            5
     lattice parameter (alat)  =      14.8344  a.u.
     unit-cell volume          =    2109.1196 (a.u.)^3
     number of atoms/cell      =           36
     number of atomic types    =            2
     number of electrons       =        96.00
     number of Kohn-Sham states=           48
     kinetic-energy cutoff     =      90.0000  Ry
     charge density cutoff     =     360.0000  Ry
     scf convergence threshold =      1.0E-07
     mixing beta               =       0.7000
     number of iterations used =            8  plain     mixing
     energy convergence thresh.=      1.0E-04
     force convergence thresh. =      1.0E-03
     Exchange-correlation= VDW-DF2
                           (   1   4  13   0   2   0   0)
     nstep                     =           50


     celldm(1)=  14.834387  celldm(2)=   0.000000  celldm(3)=   0.000000
     celldm(4)=  -0.392337  celldm(5)=   0.000000  celldm(6)=   0.000000

     crystal axes: (cart. coord. in units of alat)
               a(1) = (   0.834367  -0.481722   0.267909 )  
               a(2) = (   0.000000   0.963444   0.267909 )  
               a(3) = (  -0.834367  -0.481722   0.267909 )  

     reciprocal axes: (cart. coord. in units 2 pi/alat)
               b(1) = (  0.599257 -0.345981  1.244203 )  
               b(2) = (  0.000000  0.691962  1.244203 )  
               b(3) = ( -0.599257 -0.345981  1.244203 )  


     PseudoPot. # 1 for H  read from file:
     ./H.pbe-van_ak.UPF
     MD5 check sum: 077eb6d537518a38cb46c6de387227b7
     Pseudo is Ultrasoft, Zval =  1.0
     Generated by new atomic code, or converted to UPF format
     Using radial grid of  615 points,  1 beta functions with: 
                l(1) =   0
     Q(r) pseudized with  8 coefficients,  rinner =    0.800

     PseudoPot. # 2 for O  read from file:
     ./O.pbe-van_ak.UPF
     MD5 check sum: 78c19812648e8988a0fe644b0f25305e
     Pseudo is Ultrasoft, Zval =  6.0
     Generated by new atomic code, or converted to UPF format
     Using radial grid of  737 points,  4 beta functions with: 
                l(1) =   0
                l(2) =   0
                l(3) =   1
                l(4) =   1
     Q(r) pseudized with  8 coefficients,  rinner =    0.800   0.800   0.800


     atomic species   valence    mass     pseudopotential
     H                 1.00     1.00800     H ( 1.00)
     O                 6.00    16.00000     O ( 1.00)

      6 Sym. Ops., with inversion, found



   Cartesian axes

     site n.     atom                  positions (alat units)
         1        O      tau(   1) = (  -0.4847673  -0.5197781   0.3083633  )
         2        O      tau(   2) = (   0.4847673   0.5197782   0.4953638  )
         3        O      tau(   3) = (   0.6925247  -0.1599317   0.3083633  )
         4        O      tau(   4) = (  -0.6925248   0.1599317   0.4953638  )
         5        O      tau(   5) = (  -0.2077574   0.6797099   0.3083633  )
         6        O      tau(   6) = (   0.2077574  -0.6797099   0.4953638  )
         7        O      tau(   7) = (   0.1218176   0.3323883   0.4179381  )
         8        O      tau(   8) = (  -0.1218176  -0.3323883   0.3857890  )
         9        O      tau(   9) = (  -0.3487655  -0.0606970   0.4179381  )
        10        O      tau(  10) = (   0.3487655   0.0606970   0.3857890  )
        11        O      tau(  11) = (   0.2269479  -0.2716913   0.4179381  )
        12        O      tau(  12) = (  -0.2269479   0.2716912   0.3857890  )
        13        H      tau(  13) = (  -0.5381668  -0.4032014   0.2796970  )
        14        H      tau(  14) = (   0.5381668   0.4032014   0.5240301  )
        15        H      tau(  15) = (   0.6182661  -0.2644654   0.2796970  )
        16        H      tau(  16) = (  -0.6182661   0.2644654   0.5240301  )
        17        H      tau(  17) = (  -0.0800993   0.6676668   0.2796970  )
        18        H      tau(  18) = (   0.0800993  -0.6676668   0.5240301  )
        19        H      tau(  19) = (  -0.4872704  -0.4817221   0.4326731  )
        20        H      tau(  20) = (   0.4872704   0.4817221   0.3710540  )
        21        H      tau(  21) = (   0.6608188  -0.1811275   0.4326731  )
        22        H      tau(  22) = (  -0.6608188   0.1811275   0.3710540  )
        23        H      tau(  23) = (  -0.1735484   0.6628496   0.4326731  )
        24        H      tau(  24) = (   0.1735484  -0.6628496   0.3710540  )
        25        H      tau(  25) = (   0.2703349  -0.1502973   0.4058822  )
        26        H      tau(  26) = (  -0.2703350   0.1502973   0.3978449  )
        27        H      tau(  27) = (  -0.0050062   0.3092656   0.4058822  )
        28        H      tau(  28) = (   0.0050062  -0.3092656   0.3978449  )
        29        H      tau(  29) = (  -0.2653287  -0.1589683   0.4058822  )
        30        H      tau(  30) = (   0.2653287   0.1589683   0.3978449  )
        31        H      tau(  31) = (   0.3178939  -0.3347969   0.3493534  )
        32        H      tau(  32) = (  -0.3178939   0.3347969   0.4543737  )
        33        H      tau(  33) = (   0.1309957   0.4427026   0.3493534  )
        34        H      tau(  34) = (  -0.1309956  -0.4427026   0.4543737  )
        35        H      tau(  35) = (  -0.4488895  -0.1079057   0.3493534  )
        36        H      tau(  36) = (   0.4488895   0.1079057   0.4543737  )

     number of k points=    14
                       cart. coord. in units 2pi/alat
        k(    1) = (   0.0000000   0.0000000   0.0000000), wk =   0.0312500
        k(    2) = (  -0.1498141  -0.0864952   0.3110508), wk =   0.1875000
        k(    3) = (   0.2996283   0.1729905  -0.6221017), wk =   0.0937500
        k(    4) = (  -0.1498141   0.0864952   0.6221017), wk =   0.1875000
        k(    5) = (   0.2996283   0.3459809  -0.3110508), wk =   0.1875000
        k(    6) = (   0.1498141   0.2594857   0.0000000), wk =   0.1875000
        k(    7) = (   0.2996283  -0.1729905  -1.2442034), wk =   0.0937500
        k(    8) = (   0.0000000   0.0000000   0.9331525), wk =   0.0625000
        k(    9) = (   0.4494424   0.2594857   0.0000000), wk =   0.1875000
        k(   10) = (   0.2996283   0.1729905   0.3110508), wk =   0.1875000
        k(   11) = (   0.4494424  -0.2594857  -0.9331525), wk =   0.1875000
        k(   12) = (   0.2996283  -0.3459809  -0.6221017), wk =   0.1875000
        k(   13) = (   0.0000000   0.0000000  -1.8663050), wk =   0.0312500
        k(   14) = (   0.2996283  -0.3459809   0.3110508), wk =   0.1875000

     Dense  grid:   243265 G-vectors     FFT dimensions: (  90,  90,  90)

     Estimated max dynamical RAM per process >      15.84 MB

     Estimated total dynamical RAM >       1.81 GB

     Initial potential from superposition of free atoms

     starting charge      95.9998, renormalised to      96.0000


     %%%%%%%%%%%%%%%%%%%%%%%%%%%%%%%%%%%%%%%%%%%%%%%%%%%%%%%%%%%%%%%%%%%%%%%%
     %                                                                      %
     % You are using vdW-DF, which was implemented by the Thonhauser group. %
     % Please cite the following two papers that made this development      %
     % possible and the two reviews that describe the various versions:     %
     %                                                                      %
     %   T. Thonhauser et al., PRL 115, 136402 (2015).                      %
     %   T. Thonhauser et al., PRB 76, 125112 (2007).                       %
     %   K. Berland et al., Rep. Prog. Phys. 78, 066501 (2015).             %
     %   D.C. Langreth et al., J. Phys.: Condens. Matter 21, 084203 (2009). %
     %                                                                      %
     % If you are calculating stress with vdW-DF, please also cite:         %
     %                                                                      %
     %   R. Sabatini et al., J. Phys.: Condens. Matter 24, 424209 (2012).   %
     %                                                                      %
     %%%%%%%%%%%%%%%%%%%%%%%%%%%%%%%%%%%%%%%%%%%%%%%%%%%%%%%%%%%%%%%%%%%%%%%%

     %%%%%%%%%%%%%%%%%%%%%%%%%%%%%%%%%%%%%%%%%%%%%%%%%%%%%%%%%%%%%%%%%%%%%%%%
     %                                                                      %
     %  vdW-DF NEWS:                                                        %
     %                                                                      %
     %  * vdW-DF3 is now available. DOI: 10.1021/acs.jctc.0c00471           %
     %    use with input_dft = 'vdW-DF3-opt1' or 'vdW-DF3-opt2'             %
     %                                                                      %
     %  * Unscreened and range-separated hybrid vdW-DF-cx functionals       %
     %    DOI: 10.1063/1.4986522 and 10.1088/1361-648X/ac2ad2               %
     %    use with input_dft = 'vdW-DF-cx0'    and 'vdW-DF-ahcx'            %
     %  * Unscreened and range-separated hybrid vdW-DF2-b86r functionals    %
     %    DOI: 10.1063/1.4986522 and DOI: 10.1103/PhysRevX.12.041003        %
     %    use with input_dft = 'vdW-DF2-br0' and 'vdW-DF2-ahbr'             %
     %                                                                      %
     %%%%%%%%%%%%%%%%%%%%%%%%%%%%%%%%%%%%%%%%%%%%%%%%%%%%%%%%%%%%%%%%%%%%%%%%


     Starting wfcs are   72 randomized atomic wfcs

     total cpu time spent up to now is        2.9 secs

     per-process dynamical memory:    19.6 Mb

     Self-consistent Calculation

     iteration #  1     ecut=    90.00 Ry     beta= 0.70
     Davidson diagonalization with overlap
     ethr =  1.00E-02,  avg # of iterations =  2.0

     total cpu time spent up to now is        3.9 secs

     total energy              =    -415.90134108 Ry
     estimated scf accuracy    <       4.47524113 Ry

     iteration #  2     ecut=    90.00 Ry     beta= 0.70
     Davidson diagonalization with overlap
     ethr =  4.66E-03,  avg # of iterations =  3.0

     total cpu time spent up to now is        5.2 secs

     total energy              =    -417.36847663 Ry
     estimated scf accuracy    <       3.41091588 Ry

     iteration #  3     ecut=    90.00 Ry     beta= 0.70
     Davidson diagonalization with overlap
     ethr =  3.55E-03,  avg # of iterations =  2.0

     total cpu time spent up to now is        6.1 secs

     total energy              =    -417.80371361 Ry
     estimated scf accuracy    <       0.15924215 Ry

     iteration #  4     ecut=    90.00 Ry     beta= 0.70
     Davidson diagonalization with overlap
     ethr =  1.66E-04,  avg # of iterations =  4.0

     total cpu time spent up to now is        7.5 secs

     total energy              =    -417.92530117 Ry
     estimated scf accuracy    <       0.17967470 Ry

     iteration #  5     ecut=    90.00 Ry     beta= 0.70
     Davidson diagonalization with overlap
     ethr =  1.66E-04,  avg # of iterations =  1.4

     total cpu time spent up to now is        8.3 secs

     total energy              =    -417.92795666 Ry
     estimated scf accuracy    <       0.03095076 Ry

     iteration #  6     ecut=    90.00 Ry     beta= 0.70
     Davidson diagonalization with overlap
     ethr =  3.22E-05,  avg # of iterations =  2.0

     negative rho (up, down):  3.712E-08 0.000E+00

     total cpu time spent up to now is        9.3 secs

     total energy              =    -417.93117595 Ry
     estimated scf accuracy    <       0.00457888 Ry

     iteration #  7     ecut=    90.00 Ry     beta= 0.70
     Davidson diagonalization with overlap
     ethr =  4.77E-06,  avg # of iterations =  2.0

     negative rho (up, down):  3.648E-08 0.000E+00

     total cpu time spent up to now is       10.3 secs

     total energy              =    -417.93234495 Ry
     estimated scf accuracy    <       0.00013920 Ry

     iteration #  8     ecut=    90.00 Ry     beta= 0.70
     Davidson diagonalization with overlap
     ethr =  1.45E-07,  avg # of iterations =  2.8

     negative rho (up, down):  5.116E-08 0.000E+00

     total cpu time spent up to now is       11.3 secs

     total energy              =    -417.93236469 Ry
     estimated scf accuracy    <       0.00013991 Ry

     iteration #  9     ecut=    90.00 Ry     beta= 0.70
     Davidson diagonalization with overlap
     ethr =  1.45E-07,  avg # of iterations =  1.1

     negative rho (up, down):  9.325E-08 0.000E+00

     total cpu time spent up to now is       12.1 secs

     total energy              =    -417.93263063 Ry
     estimated scf accuracy    <       0.00011483 Ry

     iteration # 10     ecut=    90.00 Ry     beta= 0.70
     Davidson diagonalization with overlap
     ethr =  1.20E-07,  avg # of iterations =  5.1

     negative rho (up, down):  7.377E-08 0.000E+00

     total cpu time spent up to now is       13.8 secs

     total energy              =    -417.93272494 Ry
     estimated scf accuracy    <       0.00265514 Ry

     iteration # 11     ecut=    90.00 Ry     beta= 0.70
     Davidson diagonalization with overlap
     ethr =  1.20E-07,  avg # of iterations =  2.1

     negative rho (up, down):  5.651E-08 0.000E+00

     total cpu time spent up to now is       14.8 secs

     total energy              =    -417.93238272 Ry
     estimated scf accuracy    <       0.00160905 Ry

     iteration # 12     ecut=    90.00 Ry     beta= 0.70
     Davidson diagonalization with overlap
     ethr =  1.20E-07,  avg # of iterations =  4.0

     negative rho (up, down):  4.276E-08 0.000E+00

     total cpu time spent up to now is       16.1 secs

     total energy              =    -417.93233546 Ry
     estimated scf accuracy    <       0.00047294 Ry

     iteration # 13     ecut=    90.00 Ry     beta= 0.70
     Davidson diagonalization with overlap
     ethr =  1.20E-07,  avg # of iterations =  2.0

     negative rho (up, down):  2.982E-08 0.000E+00

     total cpu time spent up to now is       17.1 secs

     total energy              =    -417.93231482 Ry
     estimated scf accuracy    <       0.00010573 Ry

     iteration # 14     ecut=    90.00 Ry     beta= 0.70
     Davidson diagonalization with overlap
     ethr =  1.10E-07,  avg # of iterations =  3.0

     negative rho (up, down):  3.061E-08 0.000E+00

     total cpu time spent up to now is       18.2 secs

     total energy              =    -417.93234307 Ry
     estimated scf accuracy    <       0.00000030 Ry

     iteration # 15     ecut=    90.00 Ry     beta= 0.70
     Davidson diagonalization with overlap
     ethr =  3.09E-10,  avg # of iterations =  6.9

     negative rho (up, down):  3.178E-08 0.000E+00

     total cpu time spent up to now is       20.1 secs

     total energy              =    -417.93234440 Ry
     estimated scf accuracy    <       0.00000464 Ry

     iteration # 16     ecut=    90.00 Ry     beta= 0.70
     Davidson diagonalization with overlap
     ethr =  3.09E-10,  avg # of iterations =  3.1

     negative rho (up, down):  3.287E-08 0.000E+00

     total cpu time spent up to now is       21.3 secs

     total energy              =    -417.93234398 Ry
     estimated scf accuracy    <       0.00000124 Ry

     iteration # 17     ecut=    90.00 Ry     beta= 0.70
     Davidson diagonalization with overlap
     ethr =  3.09E-10,  avg # of iterations =  3.1

     negative rho (up, down):  3.256E-08 0.000E+00

     total cpu time spent up to now is       22.5 secs

     End of self-consistent calculation

          k = 0.0000 0.0000 0.0000 ( 30469 PWs)   bands (ev):

   -21.2249 -20.7855 -20.7855 -20.5727 -20.5727 -20.5465 -20.5465 -20.5317
   -20.5307 -20.2423 -20.2423 -19.9435  -8.6089  -8.4138  -8.3497  -8.3497
    -8.2755  -8.2755  -7.8473  -7.7136  -7.7136  -7.4991  -7.4991  -7.3635
    -7.3085  -6.4335  -6.4335  -5.8549  -5.8549  -5.7675  -5.7675  -5.4902
    -5.2981  -4.6655  -4.6655  -4.0075  -3.3025  -3.3025  -3.2095  -3.1235
    -3.0780  -3.0780  -2.9395  -2.9395  -2.9226  -2.9054  -2.8543  -2.8543

          k =-0.1498-0.0865 0.3111 ( 30442 PWs)   bands (ev):

   -21.1539 -20.8247 -20.7741 -20.7106 -20.6870 -20.6168 -20.4805 -20.4393
   -20.3873 -20.2483 -20.2083 -20.0007  -8.5551  -8.4727  -8.3970  -8.3547
    -8.2564  -8.1946  -7.8498  -7.6827  -7.6649  -7.5329  -7.4084  -7.3713
    -7.1739  -6.5756  -6.4475  -6.1795  -5.8576  -5.7347  -5.5945  -5.3740
    -5.3167  -4.6570  -4.5955  -4.1413  -3.4183  -3.3465  -3.2333  -3.1698
    -3.1157  -3.0833  -3.0397  -2.9758  -2.9135  -2.8736  -2.8412  -2.7953

          k = 0.2996 0.1730-0.6221 ( 30432 PWs)   bands (ev):

   -20.9698 -20.9692 -20.8063 -20.7930 -20.6867 -20.6828 -20.4273 -20.4185
   -20.2544 -20.2519 -20.1481 -20.1300  -8.5269  -8.4736  -8.3904  -8.3671
    -8.2607  -8.1974  -7.8002  -7.6825  -7.6391  -7.5425  -7.3265  -7.3259
    -6.9370  -6.7983  -6.4981  -6.3422  -5.8640  -5.7811  -5.5920  -5.4375
    -4.9111  -4.7917  -4.5343  -4.3120  -3.5229  -3.3681  -3.2546  -3.2286
    -3.1557  -3.1354  -3.0463  -2.9874  -2.9656  -2.8379  -2.8250  -2.7507

          k =-0.1498 0.0865 0.6221 ( 30396 PWs)   bands (ev):

   -21.0101 -20.8794 -20.8698 -20.7561 -20.7344 -20.6717 -20.4330 -20.3556
   -20.3215 -20.2093 -20.1920 -20.1052  -8.5350  -8.4490  -8.4338  -8.3272
    -8.2762  -8.1852  -7.8016  -7.7199  -7.6677  -7.4408  -7.3744  -7.3212
    -6.9425  -6.7316  -6.6365  -6.1770  -6.0040  -5.8247  -5.5161  -5.3155
    -5.1110  -4.6225  -4.5990  -4.3249  -3.5008  -3.4100  -3.2440  -3.2004
    -3.1657  -3.1146  -3.0716  -2.9872  -2.9572  -2.8468  -2.8288  -2.7449

          k = 0.2996 0.3460-0.3111 ( 30407 PWs)   bands (ev):

   -21.0608 -20.9107 -20.8088 -20.7847 -20.7069 -20.6410 -20.4360 -20.3385
   -20.3299 -20.2455 -20.1868 -20.0811  -8.5419  -8.5202  -8.3703  -8.3445
    -8.2883  -8.1939  -7.8380  -7.7816  -7.6555  -7.4087  -7.3804  -7.3108
    -7.0623  -6.7662  -6.5320  -6.1915  -6.1592  -5.6660  -5.4872  -5.2241
    -5.0007  -4.7787  -4.5763  -4.2980  -3.4126  -3.3440  -3.2603  -3.1920
    -3.1348  -3.0846  -3.0253  -3.0162  -2.9324  -2.8913  -2.8315  -2.7317

          k = 0.1498 0.2595 0.0000 ( 30375 PWs)   bands (ev):

   -21.1735 -20.8569 -20.8036 -20.6792 -20.6531 -20.5749 -20.4994 -20.4303
   -20.3926 -20.2527 -20.2189 -19.9890  -8.5921  -8.4860  -8.3877  -8.3481
    -8.2315  -8.2255  -7.9069  -7.7746  -7.5888  -7.5030  -7.4380  -7.3209
    -7.3064  -6.5571  -6.4271  -6.1716  -6.0618  -5.6134  -5.4791  -5.3564
    -5.1730  -4.7339  -4.6428  -4.0998  -3.3037  -3.2843  -3.2432  -3.1572
    -3.1160  -3.0887  -2.9749  -2.9593  -2.9283  -2.9158  -2.8145  -2.8004

          k = 0.2996-0.1730-1.2442 ( 30362 PWs)   bands (ev):

   -21.0505 -21.0140 -20.8176 -20.7271 -20.6527 -20.5976 -20.4463 -20.4136
   -20.3050 -20.2858 -20.1140 -20.0995  -8.5693  -8.5324  -8.3989  -8.3683
    -8.2051  -8.2007  -7.9091  -7.8390  -7.5722  -7.5271  -7.3510  -7.3094
    -6.9924  -6.9504  -6.4932  -6.2819  -5.9733  -5.7340  -5.3588  -5.1048
    -5.0041  -4.9304  -4.4936  -4.3108  -3.3201  -3.2705  -3.2552  -3.1954
    -3.1164  -3.0606  -3.0404  -2.9684  -2.9588  -2.9110  -2.7806  -2.7664

          k = 0.0000 0.0000 0.9332 ( 30441 PWs)   bands (ev):

   -20.9578 -20.9578 -20.8806 -20.8395 -20.6690 -20.6690 -20.3641 -20.3641
   -20.2476 -20.2121 -20.1847 -20.1847  -8.5199  -8.5199  -8.3873  -8.2850
    -8.2850  -8.2763  -7.8480  -7.7480  -7.7480  -7.3202  -7.3202  -7.2826
    -6.8661  -6.8608  -6.8608  -6.2139  -5.9225  -5.9225  -5.2818  -5.0910
    -5.0910  -4.6410  -4.6410  -4.4780  -3.3559  -3.3559  -3.2409  -3.1754
    -3.1071  -3.1071  -3.0555  -2.9897  -2.9897  -2.8755  -2.8755  -2.7087

          k = 0.4494 0.2595 0.0000 ( 30403 PWs)   bands (ev):

   -21.0786 -20.9193 -20.9128 -20.7288 -20.5997 -20.5903 -20.4611 -20.4544
   -20.3056 -20.2170 -20.1851 -20.0710  -8.5646  -8.5208  -8.4549  -8.3048
    -8.2466  -8.1834  -7.9256  -7.7902  -7.6638  -7.4250  -7.3759  -7.3289
    -7.0947  -6.7280  -6.6506  -6.2331  -5.9892  -5.7286  -5.2815  -5.2448
    -5.0453  -4.7424  -4.6051  -4.2837  -3.3021  -3.2952  -3.2432  -3.1994
    -3.1323  -3.0744  -3.0085  -2.9853  -2.9345  -2.8892  -2.8299  -2.7490

          k = 0.2996 0.1730 0.3111 ( 30428 PWs)   bands (ev):

   -21.1059 -20.8678 -20.7833 -20.7707 -20.6870 -20.6316 -20.4501 -20.4208
   -20.3537 -20.2369 -20.1861 -20.0369  -8.5635  -8.5044  -8.4230  -8.2979
    -8.2945  -8.1461  -7.8728  -7.7475  -7.5719  -7.5022  -7.4546  -7.3598
    -7.0904  -6.5770  -6.4105  -6.3235  -6.0963  -5.7580  -5.4703  -5.2721
    -5.1144  -4.7242  -4.5858  -4.1845  -3.4311  -3.3554  -3.2826  -3.2264
    -3.1316  -3.0923  -3.0173  -2.9825  -2.9013  -2.8618  -2.8032  -2.7868

          k = 0.4494-0.2595-0.9332 ( 30380 PWs)   bands (ev):

   -20.9817 -20.9789 -20.8478 -20.7960 -20.6755 -20.6025 -20.4873 -20.4066
   -20.2710 -20.2193 -20.1707 -20.0929  -8.5898  -8.4934  -8.4524  -8.3056
    -8.2600  -8.1266  -7.9181  -7.7073  -7.5908  -7.5363  -7.3945  -7.3659
    -6.8343  -6.7926  -6.4789  -6.3380  -6.1526  -5.8458  -5.4273  -5.1516
    -4.8486  -4.8183  -4.6277  -4.2533  -3.4316  -3.3752  -3.3381  -3.2256
    -3.1915  -3.1107  -2.9666  -2.9454  -2.9131  -2.8744  -2.8050  -2.7520

          k = 0.2996-0.3460-0.6221 ( 30416 PWs)   bands (ev):

   -20.9380 -20.9338 -20.8365 -20.8274 -20.7050 -20.7035 -20.4109 -20.4042
   -20.2592 -20.2520 -20.1427 -20.1243  -8.6029  -8.4105  -8.3809  -8.3604
    -8.3255  -8.1302  -7.8282  -7.7203  -7.5676  -7.5239  -7.3732  -7.3679
    -6.8011  -6.6753  -6.5156  -6.3939  -6.0743  -6.0386  -5.3480  -5.2773
    -4.8574  -4.8157  -4.6410  -4.2383  -3.5544  -3.3895  -3.3362  -3.2667
    -3.2121  -3.0794  -3.0122  -2.9715  -2.9498  -2.8289  -2.8118  -2.7339

          k = 0.0000 0.0000-1.8663 ( 30414 PWs)   bands (ev):

   -20.9071 -20.8922 -20.8023 -20.8023 -20.7992 -20.7992 -20.3390 -20.3390
   -20.3076 -20.3076 -20.1282 -20.1132  -8.6495  -8.3722  -8.3722  -8.3542
    -8.3542  -8.0998  -7.8748  -7.7199  -7.4765  -7.4765  -7.4446  -7.4446
    -6.6299  -6.4560  -6.3988  -6.3988  -6.3858  -6.3858  -5.1334  -5.1334
    -4.8932  -4.8932  -4.6632  -4.1886  -3.5860  -3.3918  -3.3918  -3.3016
    -3.3016  -3.0270  -3.0081  -2.9090  -2.9090  -2.8421  -2.8421  -2.7090

          k = 0.2996-0.3460 0.3111 ( 30407 PWs)   bands (ev):

   -21.0608 -20.9101 -20.8142 -20.7811 -20.7042 -20.6417 -20.4370 -20.3520
   -20.3111 -20.2556 -20.1801 -20.0829  -8.5589  -8.4856  -8.4030  -8.3443
    -8.2612  -8.2002  -7.8841  -7.7494  -7.6335  -7.4467  -7.3441  -7.3310
    -7.0551  -6.6983  -6.6261  -6.2449  -6.0115  -5.7289  -5.5646  -5.1387
    -4.9794  -4.7632  -4.6473  -4.2762  -3.4207  -3.3163  -3.2758  -3.1856
    -3.1432  -3.0912  -3.0246  -3.0163  -2.9500  -2.8609  -2.8323  -2.7401

     highest occupied level (ev):    -2.7087

!    total energy              =    -417.93234428 Ry
     estimated scf accuracy    <       0.00000003 Ry

     The total energy is the sum of the following terms:
     one-electron contribution =    -294.72588322 Ry
     hartree contribution      =     181.91196473 Ry
     xc contribution           =    -105.37155547 Ry
     ewald contribution        =    -199.74687033 Ry

     convergence has been achieved in  17 iterations

     Forces acting on atoms (cartesian axes, Ry/au):

     atom    1 type  2   force =    -0.03896768    0.08448436    0.04447502
     atom    2 type  2   force =     0.03896768   -0.08448436   -0.04447502
     atom    3 type  2   force =    -0.05368176   -0.07598918    0.04447502
     atom    4 type  2   force =     0.05368176    0.07598918   -0.04447502
     atom    5 type  2   force =     0.09264944   -0.00849517    0.04447502
     atom    6 type  2   force =    -0.09264944    0.00849517   -0.04447502
     atom    7 type  2   force =    -0.04659187    0.03653320   -0.03322732
     atom    8 type  2   force =     0.04659187   -0.03653320    0.03322732
     atom    9 type  2   force =    -0.00834275   -0.05861634   -0.03322732
     atom   10 type  2   force =     0.00834275    0.05861634    0.03322732
     atom   11 type  2   force =     0.05493462    0.02208314   -0.03322732
     atom   12 type  2   force =    -0.05493462   -0.02208314    0.03322732
     atom   13 type  1   force =     0.01019228   -0.04071612   -0.04809874
     atom   14 type  1   force =    -0.01019228    0.04071612    0.04809874
     atom   15 type  1   force =     0.03016506    0.02918483   -0.04809874
     atom   16 type  1   force =    -0.03016506   -0.02918483    0.04809874
     atom   17 type  1   force =    -0.04035733    0.01153129   -0.04809874
     atom   18 type  1   force =     0.04035733   -0.01153129    0.04809874
     atom   19 type  1   force =     0.02994164   -0.05029312   -0.00667287
     atom   20 type  1   force =    -0.02994164    0.05029312    0.00667287
     atom   21 type  1   force =     0.02858430    0.05107678   -0.00667287
     atom   22 type  1   force =    -0.02858430   -0.05107678    0.00667287
     atom   23 type  1   force =    -0.05852594   -0.00078367   -0.00667287
     atom   24 type  1   force =     0.05852594    0.00078367    0.00667287
     atom   25 type  1   force =    -0.01973025   -0.01998965    0.01416388
     atom   26 type  1   force =     0.01973025    0.01998965   -0.01416388
     atom   27 type  1   force =     0.02717667   -0.00709207    0.01416388
     atom   28 type  1   force =    -0.02717667    0.00709207   -0.01416388
     atom   29 type  1   force =    -0.00744642    0.02708172    0.01416388
     atom   30 type  1   force =     0.00744642   -0.02708172   -0.01416388
     atom   31 type  1   force =    -0.03954924   -0.00117618    0.02424294
     atom   32 type  1   force =     0.03954924    0.00117618   -0.02424294
     atom   33 type  1   force =     0.02079322   -0.03366256    0.02424294
     atom   34 type  1   force =    -0.02079322    0.03366256   -0.02424294
     atom   35 type  1   force =     0.01875602    0.03483873    0.02424294
     atom   36 type  1   force =    -0.01875602   -0.03483873   -0.02424294

     Total force =     0.394451     Total SCF correction =     0.000192


     Computing stress (Cartesian axis) and pressure

          total   stress  (Ry/bohr**3)                   (kbar)     P=      -36.19
  -0.00032256   0.00000000  -0.00000000          -47.45        0.00       -0.00
  -0.00000000  -0.00032256  -0.00000000           -0.00      -47.45       -0.00
  -0.00000000  -0.00000000  -0.00009290           -0.00       -0.00      -13.67


     BFGS Geometry Optimization
     Energy error            =      0.0E+00 Ry
     Gradient error          =      9.3E-02 Ry/Bohr

     number of scf cycles    =   1
     number of bfgs steps    =   0

     energy             new  =    -417.9323442836 Ry

     new trust radius        =       0.1031218413 bohr
     new conv_thr            =       0.0000001000 Ry


ATOMIC_POSITIONS (crystal)
O                0.2731856754        0.0316710904        0.8573339577
O                0.7268143246        0.9683289206        0.1426660123
O                0.8573339577        0.2731856754        0.0316710904
O                0.1426660123        0.7268143246        0.9683289206
O                0.0316710904        0.8573339577        0.2731856754
O                0.9683289206        0.1426660123        0.7268143246
O                0.4724789063        0.7489172483        0.3302432003
O                0.5275210937        0.2510827517        0.6697567697
O                0.3302432003        0.4724789063        0.7489172483
O                0.6697567697        0.5275210937        0.2510827517
O                0.7489172483        0.3302432003        0.4724789063
O                0.2510827517        0.6697567697        0.5275210937
H                0.1623271748        0.0630665797        0.8065037063
H                0.8376728112        0.9369334123        0.1934962937
H                0.8065037063        0.1623271748        0.0630665797
H                0.1934962937        0.8376728112        0.9369334123
H                0.0630665797        0.8065037063        0.1623271748
H                0.9369334123        0.1934962937        0.8376728112
H                0.4148228322        0.2020943618        0.9964037510
H                0.5851771678        0.7979056532        0.0035962280
H                0.9964037510        0.4148228322        0.2020943618
H                0.0035962280        0.5851771678        0.7979056532
H                0.2020943618        0.9964037510        0.4148228322
H                0.7979056532        0.0035962280        0.5851771678
H                0.7198571327        0.4012555256        0.3974512256
H                0.2801428673        0.5987444444        0.6025488044
H                0.3974512256        0.7198571327        0.4012555256
H                0.6025488044        0.2801428673        0.5987444444
H                0.4012555256        0.3974512256        0.7198571327
H                0.5987444444        0.6025488044        0.2801428673
H                0.7414631059        0.2049784562        0.3636584206
H                0.2585368941        0.7950215288        0.6363415794
H                0.3636584206        0.7414631059        0.2049784562
H                0.6363415794        0.2585368941        0.7950215288
H                0.2049784562        0.3636584206        0.7414631059
H                0.7950215288        0.6363415794        0.2585368941



     Writing config-only to output data dir ./iceII/iceII.save/ :
     XML data file
     NEW-OLD atomic charge density approx. for the potential

     negative rho (up, down):  1.620E-08 0.000E+00

     total cpu time spent up to now is       24.2 secs

     per-process dynamical memory:    19.2 Mb

     Self-consistent Calculation

     iteration #  1     ecut=    90.00 Ry     beta= 0.70
     Davidson diagonalization with overlap
     ethr =  1.00E-06,  avg # of iterations = 10.0

     negative rho (up, down):  1.414E-07 0.000E+00

     total cpu time spent up to now is       26.7 secs

     total energy              =    -417.99867358 Ry
     estimated scf accuracy    <       0.04459030 Ry

     iteration #  2     ecut=    90.00 Ry     beta= 0.70
     Davidson diagonalization with overlap
     ethr =  4.64E-05,  avg # of iterations =  3.0

     negative rho (up, down):  9.561E-08 0.000E+00

     total cpu time spent up to now is       27.9 secs

     total energy              =    -418.01119632 Ry
     estimated scf accuracy    <       0.01673640 Ry

     iteration #  3     ecut=    90.00 Ry     beta= 0.70
     Davidson diagonalization with overlap
     ethr =  1.74E-05,  avg # of iterations =  2.0

     negative rho (up, down):  8.840E-08 0.000E+00

     total cpu time spent up to now is       28.8 secs

     total energy              =    -418.01380870 Ry
     estimated scf accuracy    <       0.00048037 Ry

     iteration #  4     ecut=    90.00 Ry     beta= 0.70
     Davidson diagonalization with overlap
     ethr =  5.00E-07,  avg # of iterations =  5.0

     negative rho (up, down):  1.268E-07 0.000E+00

     total cpu time spent up to now is       30.1 secs

     total energy              =    -418.01412017 Ry
     estimated scf accuracy    <       0.00058692 Ry

     iteration #  5     ecut=    90.00 Ry     beta= 0.70
     Davidson diagonalization with overlap
     ethr =  5.00E-07,  avg # of iterations =  2.0

     negative rho (up, down):  1.562E-07 0.000E+00

     total cpu time spent up to now is       31.1 secs

     total energy              =    -418.01417907 Ry
     estimated scf accuracy    <       0.00004817 Ry

     iteration #  6     ecut=    90.00 Ry     beta= 0.70
     Davidson diagonalization with overlap
     ethr =  5.02E-08,  avg # of iterations =  4.1

     negative rho (up, down):  1.453E-07 0.000E+00

     total cpu time spent up to now is       32.5 secs

     total energy              =    -418.01419977 Ry
     estimated scf accuracy    <       0.00007573 Ry

     iteration #  7     ecut=    90.00 Ry     beta= 0.70
     Davidson diagonalization with overlap
     ethr =  5.02E-08,  avg # of iterations =  2.1

     negative rho (up, down):  1.413E-07 0.000E+00

     total cpu time spent up to now is       33.5 secs

     total energy              =    -418.01421104 Ry
     estimated scf accuracy    <       0.00000220 Ry

     iteration #  8     ecut=    90.00 Ry     beta= 0.70
     Davidson diagonalization with overlap
     ethr =  2.29E-09,  avg # of iterations =  4.2

     negative rho (up, down):  1.418E-07 0.000E+00

     total cpu time spent up to now is       34.9 secs

     total energy              =    -418.01421252 Ry
     estimated scf accuracy    <       0.00000032 Ry

     iteration #  9     ecut=    90.00 Ry     beta= 0.70
     Davidson diagonalization with overlap
     ethr =  3.33E-10,  avg # of iterations =  2.0

     negative rho (up, down):  1.425E-07 0.000E+00

     total cpu time spent up to now is       35.9 secs

     End of self-consistent calculation

          k = 0.0000 0.0000 0.0000 ( 30469 PWs)   bands (ev):

   -21.5826 -21.1813 -21.1813 -20.9677 -20.9677 -20.9569 -20.9569 -20.9395
   -20.9345 -20.6693 -20.6693 -20.4071  -9.0739  -8.8800  -8.8185  -8.8185
    -8.8099  -8.8099  -8.3279  -8.3279  -8.2399  -8.2123  -8.2123  -8.0671
    -7.3930  -6.3280  -6.3280  -5.7320  -5.7320  -5.6889  -5.6889  -5.4012
    -5.3201  -4.6717  -4.6717  -4.0371  -3.4074  -3.4074  -3.3665  -3.1898
    -3.1898  -3.1853  -3.0304  -3.0172  -3.0172  -2.9957  -2.9276  -2.9276

          k =-0.1498-0.0865 0.3111 ( 30442 PWs)   bands (ev):

   -21.5163 -21.2124 -21.1727 -21.0964 -21.0836 -21.0226 -20.8877 -20.8469
   -20.8043 -20.6783 -20.6421 -20.4572  -9.0310  -8.9157  -8.8626  -8.8457
    -8.7839  -8.7245  -8.3551  -8.3185  -8.2352  -8.1781  -8.1472  -8.1177
    -7.2009  -6.4758  -6.3610  -6.0644  -5.8277  -5.5936  -5.5223  -5.3011
    -5.2404  -4.6677  -4.5971  -4.1591  -3.5126  -3.4457  -3.3674  -3.2447
    -3.2268  -3.1891  -3.1383  -3.0554  -2.9938  -2.9515  -2.9235  -2.8781

          k = 0.2996 0.1730-0.6221 ( 30432 PWs)   bands (ev):

   -21.3564 -21.3314 -21.2064 -21.1632 -21.0964 -21.0786 -20.8427 -20.8173
   -20.6956 -20.6756 -20.5990 -20.5637  -8.9603  -8.9533  -8.8831  -8.8499
    -8.7757  -8.7088  -8.3424  -8.2996  -8.2323  -8.2184  -8.1022  -8.0902
    -6.8595  -6.7218  -6.4140  -6.2808  -5.8219  -5.7288  -5.4388  -5.2796
    -4.8729  -4.7684  -4.5380  -4.3319  -3.6041  -3.4658  -3.3662  -3.3073
    -3.2584  -3.2512  -3.1304  -3.0752  -3.0621  -2.9160  -2.9002  -2.8347

          k =-0.1498 0.0865 0.6221 ( 30396 PWs)   bands (ev):

   -21.3828 -21.2606 -21.2518 -21.1482 -21.1259 -21.0737 -20.8406 -20.7738
   -20.7422 -20.6472 -20.6316 -20.5480  -8.9700  -8.9299  -8.9150  -8.8198
    -8.7881  -8.7059  -8.3319  -8.3138  -8.2710  -8.1544  -8.1215  -8.0949
    -6.8891  -6.6132  -6.5647  -6.1246  -5.9311  -5.7706  -5.3749  -5.1925
    -5.0325  -4.6280  -4.6003  -4.3396  -3.5833  -3.5029  -3.3520  -3.2984
    -3.2775  -3.2004  -3.1697  -3.0768  -3.0467  -2.9251  -2.9047  -2.8286

          k = 0.2996 0.3460-0.3111 ( 30407 PWs)   bands (ev):

   -21.4302 -21.2970 -21.1928 -21.1748 -21.0923 -21.0418 -20.8472 -20.7741
   -20.7465 -20.6733 -20.6246 -20.5253  -8.9942  -8.9659  -8.8637  -8.8310
    -8.7880  -8.7003  -8.4133  -8.3843  -8.2869  -8.1324  -8.1046  -8.0736
    -6.9397  -6.6343  -6.3994  -6.1521  -6.1177  -5.6284  -5.3105  -5.1832
    -4.9808  -4.7506  -4.5728  -4.3016  -3.5103  -3.4481  -3.3752  -3.3090
    -3.2220  -3.1684  -3.1261  -3.1055  -3.0241  -2.9690  -2.9068  -2.8115

          k = 0.1498 0.2595 0.0000 ( 30375 PWs)   bands (ev):

   -21.5351 -21.2477 -21.1983 -21.0686 -21.0414 -20.9706 -20.9155 -20.8504
   -20.8154 -20.6791 -20.6455 -20.4462  -9.0520  -8.9251  -8.8621  -8.8443
    -8.7541  -8.7414  -8.4379  -8.3781  -8.2382  -8.1958  -8.1421  -8.0653
    -7.2209  -6.4225  -6.3144  -6.0985  -5.9854  -5.5570  -5.4017  -5.2606
    -5.1750  -4.7227  -4.6468  -4.1154  -3.4112  -3.3938  -3.3837  -3.2659
    -3.2015  -3.1787  -3.0606  -3.0405  -3.0364  -2.9936  -2.8900  -2.8767

          k = 0.2996-0.1730-1.2442 ( 30362 PWs)   bands (ev):

   -21.4195 -21.3919 -21.2125 -21.1099 -21.0475 -20.9849 -20.8756 -20.8302
   -20.7443 -20.7014 -20.5596 -20.5362  -9.0113  -8.9775  -8.8718  -8.8542
    -8.7236  -8.7049  -8.5020  -8.4244  -8.2531  -8.1893  -8.0915  -8.0677
    -6.8234  -6.7987  -6.3453  -6.2680  -5.9187  -5.6815  -5.2853  -5.1041
    -4.9513  -4.8984  -4.4884  -4.3038  -3.4314  -3.3874  -3.3754  -3.3149
    -3.2116  -3.1429  -3.1195  -3.0694  -3.0389  -2.9920  -2.8578  -2.8457

          k = 0.0000 0.0000 0.9332 ( 30441 PWs)   bands (ev):

   -21.3341 -21.3341 -21.2835 -21.2040 -21.0625 -21.0625 -20.7867 -20.7867
   -20.6987 -20.6226 -20.6223 -20.6223  -8.9696  -8.9696  -8.9024  -8.7765
    -8.7765  -8.7579  -8.4423  -8.3516  -8.3516  -8.0844  -8.0844  -8.0561
    -6.7044  -6.7044  -6.6744  -6.2010  -5.8916  -5.8916  -5.1098  -5.0470
    -5.0470  -4.6281  -4.6281  -4.4850  -3.4609  -3.4609  -3.3621  -3.3046
    -3.1944  -3.1944  -3.1504  -3.0782  -3.0782  -2.9456  -2.9456  -2.7871

          k = 0.4494 0.2595 0.0000 ( 30403 PWs)   bands (ev):

   -21.4474 -21.3009 -21.3002 -21.1063 -21.0082 -20.9810 -20.8821 -20.8642
   -20.7459 -20.6472 -20.6142 -20.5158  -9.0144  -8.9578  -8.9175  -8.8065
    -8.7604  -8.6869  -8.5146  -8.3854  -8.3096  -8.1345  -8.1081  -8.0743
    -6.9368  -6.5691  -6.5052  -6.2301  -5.9199  -5.6603  -5.2526  -5.2158
    -4.9872  -4.7131  -4.5982  -4.2802  -3.4163  -3.4037  -3.3685  -3.3213
    -3.2218  -3.1556  -3.1044  -3.0725  -3.0194  -2.9693  -2.9063  -2.8271

          k = 0.2996 0.1730 0.3111 ( 30428 PWs)   bands (ev):

   -21.4721 -21.2563 -21.1771 -21.1535 -21.0771 -21.0340 -20.8581 -20.8460
   -20.7621 -20.6769 -20.6191 -20.4875  -9.0149  -8.9419  -8.8848  -8.8222
    -8.7930  -8.6765  -8.4332  -8.3065  -8.2361  -8.2123  -8.1187  -8.1134
    -7.0495  -6.4838  -6.3568  -6.2014  -6.0098  -5.6355  -5.4143  -5.2260
    -5.0681  -4.7104  -4.5842  -4.1937  -3.5273  -3.4535  -3.3980  -3.3063
    -3.2366  -3.1855  -3.1182  -3.0697  -2.9878  -2.9542  -2.8812  -2.8670

          k = 0.4494-0.2595-0.9332 ( 30380 PWs)   bands (ev):

   -21.3595 -21.3559 -21.2366 -21.1713 -21.0697 -21.0113 -20.8899 -20.8286
   -20.6919 -20.6642 -20.6090 -20.5317  -8.9917  -8.9607  -8.9122  -8.8182
    -8.7744  -8.6424  -8.4840  -8.3297  -8.2414  -8.2189  -8.1148  -8.0997
    -6.7615  -6.6521  -6.3698  -6.3318  -6.0504  -5.6933  -5.4080  -5.1449
    -4.8182  -4.7713  -4.6130  -4.2515  -3.5307  -3.4721  -3.4337  -3.3139
    -3.2719  -3.2236  -3.0662  -3.0381  -3.0071  -2.9600  -2.8871  -2.8309

          k = 0.2996-0.3460-0.6221 ( 30416 PWs)   bands (ev):

   -21.3306 -21.2963 -21.2279 -21.2027 -21.1059 -21.0980 -20.8288 -20.8134
   -20.6902 -20.6773 -20.6000 -20.5547  -8.9973  -8.9067  -8.8793  -8.8462
    -8.8213  -8.6497  -8.3655  -8.3340  -8.2124  -8.2040  -8.1244  -8.1190
    -6.7339  -6.6180  -6.4215  -6.3654  -5.9453  -5.9056  -5.2741  -5.2022
    -4.8301  -4.7863  -4.6219  -4.2571  -3.6300  -3.4832  -3.4348  -3.3445
    -3.3039  -3.1654  -3.1241  -3.0687  -3.0468  -2.9147  -2.8977  -2.8124

          k = 0.0000 0.0000-1.8663 ( 30414 PWs)   bands (ev):

   -21.3075 -21.2456 -21.2043 -21.2043 -21.1737 -21.1737 -20.7764 -20.7764
   -20.7156 -20.7156 -20.5884 -20.5438  -9.0146  -8.8771  -8.8771  -8.8440
    -8.8440  -8.6109  -8.3886  -8.3599  -8.1779  -8.1779  -8.1641  -8.1641
    -6.6197  -6.5394  -6.2620  -6.2620  -6.2189  -6.2189  -5.0921  -5.0921
    -4.8685  -4.8685  -4.6181  -4.2057  -3.6553  -3.4818  -3.4818  -3.3752
    -3.3752  -3.1375  -3.1117  -3.0060  -3.0060  -2.9334  -2.9334  -2.7867

          k = 0.2996-0.3460 0.3111 ( 30407 PWs)   bands (ev):

   -21.4307 -21.2913 -21.2125 -21.1624 -21.0882 -21.0415 -20.8508 -20.7849
   -20.7165 -20.6996 -20.6137 -20.5276  -9.0045  -8.9414  -8.8771  -8.8505
    -8.7556  -8.7130  -8.4373  -8.3631  -8.2810  -8.1344  -8.1036  -8.0769
    -6.9462  -6.5616  -6.5042  -6.1901  -5.9791  -5.6853  -5.4200  -5.0690
    -4.9376  -4.7667  -4.6284  -4.2829  -3.5159  -3.4314  -3.3863  -3.2989
    -3.2185  -3.1854  -3.1168  -3.1161  -3.0396  -2.9380  -2.9101  -2.8189

     highest occupied level (ev):    -2.7867

!    total energy              =    -418.01421254 Ry
     estimated scf accuracy    <       0.00000005 Ry

     The total energy is the sum of the following terms:
     one-electron contribution =    -301.82681868 Ry
     hartree contribution      =     185.10056887 Ry
     xc contribution           =    -106.17499180 Ry
     ewald contribution        =    -195.11297094 Ry

     convergence has been achieved in   9 iterations

     Forces acting on atoms (cartesian axes, Ry/au):

     atom    1 type  2   force =    -0.00041786   -0.00730480   -0.00082942
     atom    2 type  2   force =     0.00041786    0.00730480    0.00082942
     atom    3 type  2   force =     0.00653507    0.00329052   -0.00082942
     atom    4 type  2   force =    -0.00653507   -0.00329052    0.00082942
     atom    5 type  2   force =    -0.00611721    0.00401428   -0.00082942
     atom    6 type  2   force =     0.00611721   -0.00401428    0.00082942
     atom    7 type  2   force =     0.00468639   -0.01128302    0.00450186
     atom    8 type  2   force =    -0.00468639    0.01128302   -0.00450186
     atom    9 type  2   force =     0.00742819    0.00970005    0.00450186
     atom   10 type  2   force =    -0.00742819   -0.00970005   -0.00450186
     atom   11 type  2   force =    -0.01211458    0.00158298    0.00450186
     atom   12 type  2   force =     0.01211458   -0.00158298   -0.00450186
     atom   13 type  1   force =    -0.01724876    0.02207750   -0.04568829
     atom   14 type  1   force =     0.01724876   -0.02207750    0.04568829
     atom   15 type  1   force =    -0.01049530   -0.02597662   -0.04568829
     atom   16 type  1   force =     0.01049530    0.02597662    0.04568829
     atom   17 type  1   force =     0.02774406    0.00389911   -0.04568829
     atom   18 type  1   force =    -0.02774406   -0.00389911    0.04568829
     atom   19 type  1   force =     0.02163438   -0.01945891    0.03929972
     atom   20 type  1   force =    -0.02163438    0.01945891   -0.03929972
     atom   21 type  1   force =     0.00603472    0.02846538    0.03929972
     atom   22 type  1   force =    -0.00603472   -0.02846538   -0.03929972
     atom   23 type  1   force =    -0.02766910   -0.00900647    0.03929972
     atom   24 type  1   force =     0.02766910    0.00900647   -0.03929972
     atom   25 type  1   force =     0.00394765    0.01971029    0.00502977
     atom   26 type  1   force =    -0.00394765   -0.01971029   -0.00502977
     atom   27 type  1   force =    -0.01904343   -0.00643638    0.00502977
     atom   28 type  1   force =     0.01904343    0.00643638   -0.00502977
     atom   29 type  1   force =     0.01509578   -0.01327391    0.00502977
     atom   30 type  1   force =    -0.01509578    0.01327391   -0.00502977
     atom   31 type  1   force =     0.00654502   -0.02063524   -0.00831114
     atom   32 type  1   force =    -0.00654502    0.02063524    0.00831114
     atom   33 type  1   force =     0.01459813    0.01598578   -0.00831114
     atom   34 type  1   force =    -0.01459813   -0.01598578    0.00831114
     atom   35 type  1   force =    -0.02114315    0.00464946   -0.00831114
     atom   36 type  1   force =     0.02114315   -0.00464946    0.00831114

     Total force =     0.196790     Total SCF correction =     0.000119


     Computing stress (Cartesian axis) and pressure

          total   stress  (Ry/bohr**3)                   (kbar)     P=       29.68
   0.00015131  -0.00000000  -0.00000000           22.26       -0.00       -0.00
   0.00000000   0.00015131   0.00000000            0.00       22.26        0.00
  -0.00000000   0.00000000   0.00030268           -0.00        0.00       44.53

     Energy error            =      8.2E-02 Ry
     Gradient error          =      4.6E-02 Ry/Bohr

     number of scf cycles    =   2
     number of bfgs steps    =   1

     energy             old  =    -417.9323442836 Ry
     energy             new  =    -418.0142125428 Ry

     CASE: energy            _new < energy            _old

     new trust radius        =       0.0613199900 bohr
     new conv_thr            =       0.0000000457 Ry


ATOMIC_POSITIONS (crystal)
O                0.2733173958        0.0332004463        0.8582973272
O                0.7266826042        0.9667995647        0.1417026428
O                0.8582973272        0.2733173958        0.0332004463
O                0.1417026428        0.7266826042        0.9667995647
O                0.0332004463        0.8582973272        0.2733173958
O                0.9667995647        0.1417026428        0.7266826042
O                0.4719177703        0.7484928809        0.3302536471
O                0.5280822297        0.2515071191        0.6697463229
O                0.3302536471        0.4719177703        0.7484928809
O                0.6697463229        0.5280822297        0.2515071191
O                0.7484928809        0.3302536471        0.4719177703
O                0.2515071191        0.6697463229        0.5280822297
H                0.1565607250        0.0587358972        0.8019348229
H                0.8434392610        0.9412640948        0.1980651771
H                0.8019348229        0.1565607250        0.0587358972
H                0.1980651771        0.8434392610        0.9412640948
H                0.0587358972        0.8019348229        0.1565607250
H                0.9412640948        0.1980651771        0.8434392610
H                0.4199504150        0.2037683628        0.9991547819
H                0.5800495850        0.7962316522        0.0008451971
H                0.9991547819        0.4199504150        0.2037683628
H                0.0008451971        0.5800495850        0.7962316522
H                0.2037683628        0.9991547819        0.4199504150
H                0.7962316522        0.0008451971        0.5800495850
H                0.7201970123        0.4026736548        0.3978731139
H                0.2798029877        0.5973263152        0.6021269161
H                0.3978731139        0.7201970123        0.4026736548
H                0.6021269161        0.2798029877        0.5973263152
H                0.4026736548        0.3978731139        0.7201970123
H                0.5973263152        0.6021269161        0.2798029877
H                0.7416294579        0.2038050383        0.3641006859
H                0.2583705421        0.7961949467        0.6358993141
H                0.3641006859        0.7416294579        0.2038050383
H                0.6358993141        0.2583705421        0.7961949467
H                0.2038050383        0.3641006859        0.7416294579
H                0.7961949467        0.6358993141        0.2583705421



     Writing config-only to output data dir ./iceII/iceII.save/ :
     XML data file
     NEW-OLD atomic charge density approx. for the potential

     negative rho (up, down):  1.814E-07 0.000E+00

     total cpu time spent up to now is       37.5 secs

     per-process dynamical memory:    19.2 Mb

     Self-consistent Calculation

     iteration #  1     ecut=    90.00 Ry     beta= 0.70
     Davidson diagonalization with overlap
     ethr =  1.00E-06,  avg # of iterations =  7.0

     total cpu time spent up to now is       39.2 secs

     total energy              =    -418.04414370 Ry
     estimated scf accuracy    <       0.00132314 Ry

     iteration #  2     ecut=    90.00 Ry     beta= 0.70
     Davidson diagonalization with overlap
     ethr =  1.38E-06,  avg # of iterations =  2.3

     total cpu time spent up to now is       40.3 secs

     total energy              =    -418.04441519 Ry
     estimated scf accuracy    <       0.00024403 Ry

     iteration #  3     ecut=    90.00 Ry     beta= 0.70
     Davidson diagonalization with overlap
     ethr =  2.54E-07,  avg # of iterations =  2.1

     total cpu time spent up to now is       41.2 secs

     total energy              =    -418.04446031 Ry
     estimated scf accuracy    <       0.00001336 Ry

     iteration #  4     ecut=    90.00 Ry     beta= 0.70
     Davidson diagonalization with overlap
     ethr =  1.39E-08,  avg # of iterations =  2.5

     total cpu time spent up to now is       42.2 secs

     total energy              =    -418.04446216 Ry
     estimated scf accuracy    <       0.00000348 Ry

     iteration #  5     ecut=    90.00 Ry     beta= 0.70
     Davidson diagonalization with overlap
     ethr =  3.63E-09,  avg # of iterations =  2.1

     total cpu time spent up to now is       43.2 secs

     total energy              =    -418.04446278 Ry
     estimated scf accuracy    <       0.00000009 Ry

     iteration #  6     ecut=    90.00 Ry     beta= 0.70
     Davidson diagonalization with overlap
     ethr =  9.12E-11,  avg # of iterations =  4.4

     total cpu time spent up to now is       44.6 secs

     total energy              =    -418.04446282 Ry
     estimated scf accuracy    <       0.00000014 Ry

     iteration #  7     ecut=    90.00 Ry     beta= 0.70
     Davidson diagonalization with overlap
     ethr =  9.12E-11,  avg # of iterations =  2.5

     total cpu time spent up to now is       45.6 secs

     End of self-consistent calculation

          k = 0.0000 0.0000 0.0000 ( 30469 PWs)   bands (ev):

   -21.4690 -21.0555 -21.0555 -20.8479 -20.8479 -20.8316 -20.8316 -20.8158
   -20.8022 -20.5359 -20.5359 -20.2746  -9.0734  -8.8930  -8.8464  -8.8464
    -8.8193  -8.8193  -8.3958  -8.3958  -8.3350  -8.3036  -8.3036  -8.1645
    -7.2804  -6.1804  -6.1804  -5.6691  -5.6691  -5.5394  -5.5394  -5.2505
    -5.2225  -4.5691  -4.5691  -3.9280  -3.3863  -3.3863  -3.3383  -3.1612
    -3.1612  -3.1437  -3.0179  -2.9793  -2.9793  -2.9618  -2.9035  -2.9035

          k =-0.1498-0.0865 0.3111 ( 30442 PWs)   bands (ev):

   -21.4020 -21.0888 -21.0466 -20.9793 -20.9556 -20.8928 -20.7651 -20.7246
   -20.6778 -20.5439 -20.5086 -20.3247  -9.0331  -8.9263  -8.8792  -8.8608
    -8.8021  -8.7446  -8.4300  -8.3959  -8.3250  -8.2637  -8.2344  -8.2087
    -7.0891  -6.3478  -6.2225  -5.9535  -5.7705  -5.4757  -5.3688  -5.1936
    -5.0863  -4.5645  -4.4936  -4.0610  -3.4850  -3.4230  -3.3396  -3.2189
    -3.1998  -3.1520  -3.1155  -3.0168  -2.9706  -2.9152  -2.9007  -2.8535

          k = 0.2996 0.1730-0.6221 ( 30432 PWs)   bands (ev):

   -21.2452 -21.2093 -21.0761 -21.0467 -20.9697 -20.9464 -20.7223 -20.6923
   -20.5780 -20.5340 -20.4637 -20.4322  -8.9667  -8.9573  -8.8974  -8.8668
    -8.7973  -8.7250  -8.4189  -8.3845  -8.3167  -8.3018  -8.1902  -8.1775
    -6.7233  -6.6165  -6.2786  -6.2023  -5.7321  -5.6618  -5.2479  -5.1215
    -4.7263  -4.6687  -4.4416  -4.2619  -3.5703  -3.4444  -3.3444  -3.2699
    -3.2271  -3.2205  -3.1024  -3.0639  -3.0240  -2.8967  -2.8589  -2.8113

          k =-0.1498 0.0865 0.6221 ( 30396 PWs)   bands (ev):

   -21.2687 -21.1411 -21.1283 -21.0242 -20.9991 -20.9438 -20.7191 -20.6492
   -20.6158 -20.5161 -20.4964 -20.4142  -8.9734  -8.9369  -8.9268  -8.8458
    -8.8020  -8.7231  -8.4120  -8.3944  -8.3535  -8.2394  -8.2093  -8.1834
    -6.7606  -6.4951  -6.4537  -6.0244  -5.8443  -5.6837  -5.2136  -5.0157
    -4.9006  -4.5351  -4.4909  -4.2702  -3.5514  -3.4764  -3.3329  -3.2565
    -3.2460  -3.1751  -3.1459  -3.0452  -3.0252  -2.9026  -2.8671  -2.8032

          k = 0.2996 0.3460-0.3111 ( 30407 PWs)   bands (ev):

   -21.3146 -21.1696 -21.0972 -21.0331 -20.9673 -20.9112 -20.7280 -20.6540
   -20.5857 -20.5714 -20.4821 -20.3951  -8.9972  -8.9685  -8.8743  -8.8450
    -8.8103  -8.7215  -8.4947  -8.4656  -8.3745  -8.2207  -8.1927  -8.1621
    -6.8228  -6.4996  -6.2687  -6.0573  -6.0330  -5.5223  -5.1246  -5.0448
    -4.8896  -4.6342  -4.4710  -4.2178  -3.4812  -3.4256  -3.3506  -3.2780
    -3.1898  -3.1348  -3.1014  -3.0777  -3.0070  -2.9461  -2.8657  -2.7836

          k = 0.1498 0.2595 0.0000 ( 30375 PWs)   bands (ev):

   -21.4205 -21.1247 -21.0744 -20.9469 -20.9188 -20.8472 -20.7876 -20.7236
   -20.6839 -20.5472 -20.5137 -20.3145  -9.0514  -8.9332  -8.8759  -8.8548
    -8.7757  -8.7668  -8.5165  -8.4545  -8.3317  -8.2806  -8.2296  -8.1603
    -7.1076  -6.2693  -6.1832  -5.9942  -5.8998  -5.4319  -5.2664  -5.1250
    -5.0723  -4.6172  -4.5503  -4.0076  -3.3889  -3.3722  -3.3597  -3.2373
    -3.1689  -3.1413  -3.0357  -3.0198  -3.0068  -2.9631  -2.8586  -2.8467

          k = 0.2996-0.1730-1.2442 ( 30362 PWs)   bands (ev):

   -21.3023 -21.2734 -21.0899 -20.9893 -20.9213 -20.8643 -20.7415 -20.7044
   -20.6056 -20.5752 -20.4295 -20.4057  -9.0114  -8.9783  -8.8816  -8.8630
    -8.7447  -8.7307  -8.5872  -8.5080  -8.3468  -8.2713  -8.1828  -8.1574
    -6.6926  -6.6867  -6.2114  -6.1710  -5.8130  -5.5478  -5.1305  -4.9974
    -4.8290  -4.8017  -4.3791  -4.2124  -3.4067  -3.3646  -3.3543  -3.2869
    -3.1779  -3.1056  -3.0902  -3.0504  -3.0148  -2.9673  -2.8248  -2.8122

          k = 0.0000 0.0000 0.9332 ( 30441 PWs)   bands (ev):

   -21.2147 -21.2147 -21.1686 -21.0789 -20.9358 -20.9358 -20.6600 -20.6600
   -20.5649 -20.4923 -20.4918 -20.4918  -8.9733  -8.9733  -8.9080  -8.7925
    -8.7904  -8.7904  -8.5230  -8.4361  -8.4361  -8.1730  -8.1730  -8.1444
    -6.5902  -6.5902  -6.4976  -6.1616  -5.7831  -5.7831  -4.9068  -4.9068
    -4.9026  -4.5358  -4.5358  -4.4324  -3.4355  -3.4355  -3.3317  -3.2876
    -3.1580  -3.1580  -3.1166  -3.0608  -3.0608  -2.9123  -2.9123  -2.7585

          k = 0.4494 0.2595 0.0000 ( 30403 PWs)   bands (ev):

   -21.3308 -21.1804 -21.1794 -20.9887 -20.8785 -20.8578 -20.7542 -20.7350
   -20.6097 -20.5192 -20.4837 -20.3852  -9.0140  -8.9606  -8.9213  -8.8210
    -8.7810  -8.7126  -8.5989  -8.4691  -8.4000  -8.2230  -8.1948  -8.1660
    -6.8187  -6.4261  -6.3849  -6.1561  -5.7884  -5.5193  -5.1366  -5.1115
    -4.8342  -4.6128  -4.5024  -4.1833  -3.3906  -3.3792  -3.3505  -3.2933
    -3.1888  -3.1213  -3.0783  -3.0485  -2.9910  -2.9440  -2.8795  -2.7903

          k = 0.2996 0.1730 0.3111 ( 30428 PWs)   bands (ev):

   -21.3569 -21.1318 -21.0577 -21.0347 -20.9479 -20.9059 -20.7358 -20.7152
   -20.6381 -20.5450 -20.4852 -20.3551  -9.0158  -8.9457  -8.8975  -8.8335
    -8.8156  -8.6987  -8.5126  -8.3851  -8.3235  -8.3044  -8.2085  -8.1996
    -6.9371  -6.3563  -6.2595  -6.0339  -5.9417  -5.5144  -5.2594  -5.0991
    -4.9821  -4.5847  -4.4831  -4.0982  -3.4985  -3.4280  -3.3722  -3.2741
    -3.2048  -3.1569  -3.0899  -3.0453  -2.9717  -2.9286  -2.8561  -2.8248

          k = 0.4494-0.2595-0.9332 ( 30380 PWs)   bands (ev):

   -21.2400 -21.2379 -21.1162 -21.0531 -20.9422 -20.8803 -20.7673 -20.6953
   -20.5675 -20.5321 -20.4800 -20.3967  -8.9879  -8.9643  -8.9183  -8.8330
    -8.7946  -8.6633  -8.5670  -8.4173  -8.3325  -8.3049  -8.2043  -8.1870
    -6.6463  -6.5367  -6.2787  -6.2053  -5.9185  -5.5327  -5.3040  -5.0428
    -4.7279  -4.6179  -4.5106  -4.1612  -3.5011  -3.4435  -3.4055  -3.2805
    -3.2385  -3.1985  -3.0458  -3.0122  -2.9927  -2.9389  -2.8590  -2.7857

          k = 0.2996-0.3460-0.6221 ( 30416 PWs)   bands (ev):

   -21.2152 -21.1758 -21.1014 -21.0901 -20.9767 -20.9656 -20.7036 -20.6881
   -20.5627 -20.5489 -20.4731 -20.4143  -8.9933  -8.9151  -8.8904  -8.8632
    -8.8386  -8.6694  -8.4456  -8.4167  -8.2996  -8.2901  -8.2131  -8.2075
    -6.5964  -6.5319  -6.2968  -6.2634  -5.8289  -5.7947  -5.1208  -5.0594
    -4.7368  -4.6957  -4.4779  -4.1888  -3.5906  -3.4562  -3.4078  -3.3098
    -3.2670  -3.1502  -3.0916  -3.0467  -3.0289  -2.8946  -2.8716  -2.7707

          k = 0.0000 0.0000-1.8663 ( 30414 PWs)   bands (ev):

   -21.1801 -21.1322 -21.0999 -21.0999 -21.0325 -21.0325 -20.6386 -20.6386
   -20.5976 -20.5976 -20.4686 -20.3970  -9.0049  -8.8832  -8.8832  -8.8622
    -8.8622  -8.6309  -8.4708  -8.4438  -8.2669  -8.2669  -8.2535  -8.2535
    -6.4947  -6.4819  -6.1301  -6.1301  -6.0888  -6.0888  -4.9330  -4.9330
    -4.8163  -4.8163  -4.4494  -4.1378  -3.6060  -3.4532  -3.4532  -3.3420
    -3.3420  -3.1054  -3.0998  -2.9911  -2.9911  -2.9089  -2.9089  -2.7389

          k = 0.2996-0.3460 0.3111 ( 30407 PWs)   bands (ev):

   -21.3138 -21.1773 -21.0760 -21.0483 -20.9659 -20.9134 -20.7219 -20.6489
   -20.6201 -20.5377 -20.4911 -20.3949  -9.0053  -8.9485  -8.8854  -8.8620
    -8.7834  -8.7314  -8.5173  -8.4458  -8.3691  -8.2203  -8.1941  -8.1646
    -6.8275  -6.4572  -6.3483  -6.0733  -5.9259  -5.5750  -5.2418  -4.9246
    -4.8114  -4.6727  -4.5336  -4.1946  -3.4876  -3.4055  -3.3629  -3.2710
    -3.1868  -3.1497  -3.0942  -3.0820  -3.0269  -2.9159  -2.8683  -2.7903

     highest occupied level (ev):    -2.7389

!    total energy              =    -418.04446283 Ry
     estimated scf accuracy    <          6.4E-09 Ry

     The total energy is the sum of the following terms:
     one-electron contribution =    -299.99703867 Ry
     hartree contribution      =     184.28678749 Ry
     xc contribution           =    -106.03636301 Ry
     ewald contribution        =    -196.29784864 Ry

     convergence has been achieved in   7 iterations

     Forces acting on atoms (cartesian axes, Ry/au):

     atom    1 type  2   force =    -0.00200542   -0.00040763    0.00249471
     atom    2 type  2   force =     0.00200542    0.00040763   -0.00249471
     atom    3 type  2   force =     0.00135573   -0.00153293    0.00249471
     atom    4 type  2   force =    -0.00135573    0.00153293   -0.00249471
     atom    5 type  2   force =     0.00064969    0.00194056    0.00249471
     atom    6 type  2   force =    -0.00064969   -0.00194056   -0.00249471
     atom    7 type  2   force =     0.00577475   -0.00635682    0.00070731
     atom    8 type  2   force =    -0.00577475    0.00635682   -0.00070731
     atom    9 type  2   force =     0.00261779    0.00817949    0.00070731
     atom   10 type  2   force =    -0.00261779   -0.00817949   -0.00070731
     atom   11 type  2   force =    -0.00839254   -0.00182267    0.00070731
     atom   12 type  2   force =     0.00839254    0.00182267   -0.00070731
     atom   13 type  1   force =    -0.00912127    0.00688802   -0.02454924
     atom   14 type  1   force =     0.00912127   -0.00688802    0.02454924
     atom   15 type  1   force =    -0.00140457   -0.01134326   -0.02454924
     atom   16 type  1   force =     0.00140457    0.01134326    0.02454924
     atom   17 type  1   force =     0.01052584    0.00445524   -0.02454924
     atom   18 type  1   force =    -0.01052584   -0.00445524    0.02454924
     atom   19 type  1   force =     0.01497947   -0.01025935    0.01569219
     atom   20 type  1   force =    -0.01497947    0.01025935   -0.01569219
     atom   21 type  1   force =     0.00139512    0.01810227    0.01569219
     atom   22 type  1   force =    -0.00139512   -0.01810227   -0.01569219
     atom   23 type  1   force =    -0.01637459   -0.00784293    0.01569219
     atom   24 type  1   force =     0.01637459    0.00784293   -0.01569219
     atom   25 type  1   force =     0.00506005    0.01357591    0.00404536
     atom   26 type  1   force =    -0.00506005   -0.01357591   -0.00404536
     atom   27 type  1   force =    -0.01428711   -0.00240583    0.00404536
     atom   28 type  1   force =     0.01428711    0.00240583   -0.00404536
     atom   29 type  1   force =     0.00922706   -0.01117009    0.00404536
     atom   30 type  1   force =    -0.00922706    0.01117009   -0.00404536
     atom   31 type  1   force =     0.00234658   -0.01204813   -0.00418409
     atom   32 type  1   force =    -0.00234658    0.01204813    0.00418409
     atom   33 type  1   force =     0.00926070    0.00805627   -0.00418409
     atom   34 type  1   force =    -0.00926070   -0.00805627    0.00418409
     atom   35 type  1   force =    -0.01160728    0.00399187   -0.00418409
     atom   36 type  1   force =     0.01160728   -0.00399187    0.00418409

     Total force =     0.103585     Total SCF correction =     0.000106


     Computing stress (Cartesian axis) and pressure

          total   stress  (Ry/bohr**3)                   (kbar)     P=       14.02
   0.00006784  -0.00000000  -0.00000000            9.98       -0.00       -0.00
   0.00000000   0.00006784   0.00000000            0.00        9.98        0.00
   0.00000000   0.00000000   0.00015031            0.00        0.00       22.11

     Energy error            =      3.0E-02 Ry
     Gradient error          =      2.5E-02 Ry/Bohr

     number of scf cycles    =   3
     number of bfgs steps    =   2

     energy             old  =    -418.0142125428 Ry
     energy             new  =    -418.0444628316 Ry

     CASE: energy            _new < energy            _old

     new trust radius        =       0.0674519890 bohr
     new conv_thr            =       0.0000000245 Ry


ATOMIC_POSITIONS (crystal)
O                0.2736374143        0.0355914921        0.8597829283
O                0.7263625857        0.9644085189        0.1402170417
O                0.8597829283        0.2736374143        0.0355914921
O                0.1402170417        0.7263625857        0.9644085189
O                0.0355914921        0.8597829283        0.2736374143
O                0.9644085189        0.1402170417        0.7263625857
O                0.4713514556        0.7477334672        0.3297869715
O                0.5286485444        0.2522665328        0.6702129985
O                0.3297869715        0.4713514556        0.7477334672
O                0.6702129985        0.5286485444        0.2522665328
O                0.7477334672        0.3297869715        0.4713514556
O                0.2522665328        0.6702129985        0.5286485444
H                0.1503098970        0.0534895338        0.7970267615
H                0.8496900890        0.9465104582        0.2029732385
H                0.7970267615        0.1503098970        0.0534895338
H                0.2029732385        0.8496900890        0.9465104582
H                0.0534895338        0.7970267615        0.1503098970
H                0.9465104582        0.2029732385        0.8496900890
H                0.4251121677        0.2048649172        1.0011561892
H                0.5748878323        0.7951350978       -0.0011562102
H                1.0011561892        0.4251121677        0.2048649172
H               -0.0011562102        0.5748878323        0.7951350978
H                0.2048649172        1.0011561892        0.4251121677
H                0.7951350978       -0.0011562102        0.5748878323
H                0.7208724275        0.4047452093        0.3981734836
H                0.2791275725        0.5952547607        0.6018265464
H                0.3981734836        0.7208724275        0.4047452093
H                0.6018265464        0.2791275725        0.5952547607
H                0.4047452093        0.3981734836        0.7208724275
H                0.5952547607        0.6018265464        0.2791275725
H                0.7418086202        0.2024113797        0.3647241486
H                0.2581913798        0.7975886053        0.6352758514
H                0.3647241486        0.7418086202        0.2024113797
H                0.6352758514        0.2581913798        0.7975886053
H                0.2024113797        0.3647241486        0.7418086202
H                0.7975886053        0.6352758514        0.2581913798



     Writing config-only to output data dir ./iceII/iceII.save/ :
     XML data file
     NEW-OLD atomic charge density approx. for the potential

     total cpu time spent up to now is       47.1 secs

     per-process dynamical memory:    19.2 Mb

     Self-consistent Calculation

     iteration #  1     ecut=    90.00 Ry     beta= 0.70
     Davidson diagonalization with overlap
     ethr =  1.00E-06,  avg # of iterations =  7.0

     total cpu time spent up to now is       48.9 secs

     total energy              =    -418.05768131 Ry
     estimated scf accuracy    <       0.00154335 Ry

     iteration #  2     ecut=    90.00 Ry     beta= 0.70
     Davidson diagonalization with overlap
     ethr =  1.61E-06,  avg # of iterations =  2.8

     total cpu time spent up to now is       49.9 secs

     total energy              =    -418.05797442 Ry
     estimated scf accuracy    <       0.00027278 Ry

     iteration #  3     ecut=    90.00 Ry     beta= 0.70
     Davidson diagonalization with overlap
     ethr =  2.84E-07,  avg # of iterations =  2.8

     total cpu time spent up to now is       50.9 secs

     total energy              =    -418.05803292 Ry
     estimated scf accuracy    <       0.00001838 Ry

     iteration #  4     ecut=    90.00 Ry     beta= 0.70
     Davidson diagonalization with overlap
     ethr =  1.91E-08,  avg # of iterations =  2.0

     total cpu time spent up to now is       51.8 secs

     total energy              =    -418.05803429 Ry
     estimated scf accuracy    <       0.00000230 Ry

     iteration #  5     ecut=    90.00 Ry     beta= 0.70
     Davidson diagonalization with overlap
     ethr =  2.40E-09,  avg # of iterations =  2.8

     total cpu time spent up to now is       52.9 secs

     total energy              =    -418.05803487 Ry
     estimated scf accuracy    <       0.00000007 Ry

     iteration #  6     ecut=    90.00 Ry     beta= 0.70
     Davidson diagonalization with overlap
     ethr =  6.88E-11,  avg # of iterations =  3.3

     total cpu time spent up to now is       54.2 secs

     total energy              =    -418.05803488 Ry
     estimated scf accuracy    <       0.00000005 Ry

     iteration #  7     ecut=    90.00 Ry     beta= 0.70
     Davidson diagonalization with overlap
     ethr =  4.93E-11,  avg # of iterations =  2.1

     total cpu time spent up to now is       55.1 secs

     End of self-consistent calculation

          k = 0.0000 0.0000 0.0000 ( 30469 PWs)   bands (ev):

   -21.3625 -20.9495 -20.9495 -20.7176 -20.7176 -20.7159 -20.7159 -20.6925
   -20.6825 -20.3996 -20.3996 -20.1398  -9.0466  -8.8891  -8.8891  -8.8690
    -8.8065  -8.8065  -8.4830  -8.4653  -8.4653  -8.4483  -8.4483  -8.3269
    -7.1481  -6.0376  -6.0376  -5.5794  -5.5794  -5.3769  -5.3769  -5.1267
    -5.0793  -4.4429  -4.4429  -3.8023  -3.3552  -3.3552  -3.3149  -3.1386
    -3.1386  -3.1025  -3.0029  -2.9486  -2.9486  -2.9110  -2.8713  -2.8713

          k =-0.1498-0.0865 0.3111 ( 30442 PWs)   bands (ev):

   -21.2955 -20.9815 -20.9475 -20.8531 -20.8262 -20.7728 -20.6452 -20.6009
   -20.5573 -20.4074 -20.3728 -20.1891  -9.0086  -8.9310  -8.8911  -8.8493
    -8.8012  -8.7509  -8.5360  -8.5033  -8.4686  -8.3878  -8.3686  -8.3482
    -6.9619  -6.2188  -6.0817  -5.8321  -5.6811  -5.3664  -5.1815  -5.0813
    -4.9111  -4.4425  -4.3703  -3.9420  -3.4452  -3.3888  -3.3144  -3.1927
    -3.1787  -3.1213  -3.0804  -2.9800  -2.9447  -2.8868  -2.8677  -2.8270

          k = 0.2996 0.1730-0.6221 ( 30432 PWs)   bands (ev):

   -21.1489 -21.0903 -20.9756 -20.9164 -20.8543 -20.8184 -20.6092 -20.5619
   -20.4619 -20.3952 -20.3380 -20.2857  -8.9518  -8.9499  -8.8825  -8.8674
    -8.7967  -8.7239  -8.5425  -8.5209  -8.4507  -8.4266  -8.3220  -8.3029
    -6.5705  -6.5171  -6.1231  -6.1148  -5.6159  -5.5815  -5.0383  -4.9679
    -4.5679  -4.5445  -4.3280  -4.1699  -3.5198  -3.4106  -3.3157  -3.2401
    -3.2046  -3.1798  -3.0740  -3.0446  -2.9902  -2.8762  -2.8217  -2.7887

          k =-0.1498 0.0865 0.6221 ( 30396 PWs)   bands (ev):

   -21.1660 -21.0329 -21.0158 -20.9077 -20.8717 -20.8221 -20.5983 -20.5327
   -20.4883 -20.3844 -20.3631 -20.2728  -8.9598  -8.9224  -8.9208  -8.8482
    -8.7968  -8.7194  -8.5389  -8.5263  -8.4886  -8.3625  -8.3406  -8.3131
    -6.6287  -6.3702  -6.3299  -5.9077  -5.7433  -5.5771  -5.0434  -4.8242
    -4.7526  -4.4291  -4.3608  -4.1786  -3.5020  -3.4382  -3.3077  -3.2331
    -3.2016  -3.1510  -3.1187  -3.0152  -2.9999  -2.8793  -2.8342  -2.7778

          k = 0.2996 0.3460-0.3111 ( 30407 PWs)   bands (ev):

   -21.2079 -21.0625 -20.9965 -20.9051 -20.8396 -20.7917 -20.6080 -20.5394
   -20.4586 -20.4380 -20.3443 -20.2571  -8.9759  -8.9547  -8.8680  -8.8452
    -8.8097  -8.7215  -8.6152  -8.5880  -8.5174  -8.3508  -8.3281  -8.2940
    -6.6922  -6.3475  -6.1596  -5.9657  -5.8939  -5.4011  -4.9558  -4.8671
    -4.7898  -4.4999  -4.3492  -4.1061  -3.4401  -3.3947  -3.3209  -3.2536
    -3.1594  -3.0983  -3.0789  -3.0484  -2.9840  -2.9211  -2.8268  -2.7551

          k = 0.1498 0.2595 0.0000 ( 30375 PWs)   bands (ev):

   -21.3135 -21.0188 -20.9680 -20.8258 -20.7942 -20.7193 -20.6712 -20.6009
   -20.5641 -20.4113 -20.3754 -20.1794  -9.0248  -8.9255  -8.8940  -8.8411
    -8.7851  -8.7807  -8.6207  -8.5535  -8.4803  -8.4007  -8.3564  -8.3134
    -6.9751  -6.1023  -6.0744  -5.8683  -5.7944  -5.2891  -5.1250  -4.9771
    -4.9548  -4.4868  -4.4285  -3.8788  -3.3593  -3.3409  -3.3363  -3.2147
    -3.1430  -3.1033  -3.0196  -2.9884  -2.9747  -2.9263  -2.8243  -2.8121

          k = 0.2996-0.1730-1.2442 ( 30362 PWs)   bands (ev):

   -21.1930 -21.1681 -20.9836 -20.8683 -20.8008 -20.7341 -20.6297 -20.5792
   -20.4863 -20.4355 -20.2974 -20.2655  -8.9877  -8.9561  -8.8864  -8.8424
    -8.7591  -8.7299  -8.7160  -8.6226  -8.4992  -8.3884  -8.3250  -8.2928
    -6.5558  -6.5488  -6.0764  -6.0705  -5.6863  -5.4006  -4.9712  -4.8881
    -4.7211  -4.6403  -4.2581  -4.0869  -3.3776  -3.3366  -3.3245  -3.2651
    -3.1498  -3.0674  -3.0581  -3.0327  -2.9873  -2.9360  -2.7880  -2.7789

          k = 0.0000 0.0000 0.9332 ( 30441 PWs)   bands (ev):

   -21.1047 -21.1047 -21.0786 -20.9380 -20.8173 -20.8173 -20.5362 -20.5362
   -20.4624 -20.3574 -20.3574 -20.3383  -8.9554  -8.9554  -8.8907  -8.8107
    -8.7888  -8.7888  -8.6438  -8.5696  -8.5696  -8.3027  -8.3027  -8.2790
    -6.4591  -6.4591  -6.3042  -6.1220  -5.6632  -5.6632  -4.7565  -4.7565
    -4.6808  -4.4265  -4.4265  -4.3494  -3.3990  -3.3990  -3.2983  -3.2708
    -3.1241  -3.1241  -3.0837  -3.0413  -3.0413  -2.8779  -2.8779  -2.7293

          k = 0.4494 0.2595 0.0000 ( 30403 PWs)   bands (ev):

   -21.2231 -21.0748 -21.0710 -20.8604 -20.7688 -20.7328 -20.6335 -20.6039
   -20.4947 -20.3849 -20.3453 -20.2482  -8.9881  -8.9408  -8.9126  -8.8145
    -8.7925  -8.7247  -8.7102  -8.5903  -8.5436  -8.3570  -8.3209  -8.3094
    -6.6837  -6.2711  -6.2539  -6.0728  -5.6508  -5.3700  -5.0164  -4.9807
    -4.6744  -4.4896  -4.3841  -4.0575  -3.3612  -3.3480  -3.3239  -3.2709
    -3.1608  -3.0891  -3.0532  -3.0203  -2.9594  -2.9138  -2.8477  -2.7534

          k = 0.2996 0.1730 0.3111 ( 30428 PWs)   bands (ev):

   -21.2502 -21.0261 -20.9580 -20.9086 -20.8198 -20.7814 -20.6191 -20.5983
   -20.5021 -20.4203 -20.3470 -20.2178  -8.9917  -8.9393  -8.8942  -8.8215
    -8.8182  -8.7083  -8.6221  -8.4989  -8.4576  -8.4479  -8.3564  -8.3240
    -6.8101  -6.2349  -6.1424  -5.8785  -5.8305  -5.3913  -5.0756  -4.9730
    -4.8729  -4.4457  -4.3609  -3.9778  -3.4556  -3.3959  -3.3432  -3.2443
    -3.1813  -3.1261  -3.0595  -3.0173  -2.9502  -2.9010  -2.8295  -2.7866

          k = 0.4494-0.2595-0.9332 ( 30380 PWs)   bands (ev):

   -21.1356 -21.1294 -21.0105 -20.9271 -20.8206 -20.7591 -20.6452 -20.5733
   -20.4312 -20.4154 -20.3476 -20.2531  -8.9660  -8.9456  -8.9043  -8.8227
    -8.7886  -8.6954  -8.6513  -8.5564  -8.4829  -8.4351  -8.3448  -8.3197
    -6.5272  -6.4060  -6.1714  -6.0796  -5.7613  -5.3716  -5.1747  -4.9314
    -4.6095  -4.4653  -4.3902  -4.0405  -3.4552  -3.4100  -3.3715  -3.2525
    -3.2085  -3.1749  -3.0219  -2.9853  -2.9710  -2.9142  -2.8302  -2.7466

          k = 0.2996-0.3460-0.6221 ( 30416 PWs)   bands (ev):

   -21.1205 -21.0569 -20.9985 -20.9668 -20.8545 -20.8377 -20.5892 -20.5643
   -20.4330 -20.4113 -20.3581 -20.2644  -8.9741  -8.9019  -8.8745  -8.8594
    -8.8326  -8.6624  -8.5702  -8.5536  -8.4398  -8.4214  -8.3488  -8.3397
    -6.4701  -6.4274  -6.1753  -6.1337  -5.6977  -5.6570  -4.9611  -4.9060
    -4.6161  -4.5899  -4.3210  -4.1007  -3.5280  -3.4216  -3.3750  -3.2789
    -3.2326  -3.1317  -3.0606  -3.0234  -3.0054  -2.8736  -2.8471  -2.7344

          k = 0.0000 0.0000-1.8663 ( 30414 PWs)   bands (ev):

   -21.0873 -21.0042 -21.0042 -20.9940 -20.8989 -20.8989 -20.5295 -20.5295
   -20.4514 -20.4514 -20.3595 -20.2460  -8.9793  -8.8680  -8.8680  -8.8496
    -8.8496  -8.6109  -8.5967  -8.5883  -8.4116  -8.4116  -8.3917  -8.3917
    -6.4590  -6.3070  -6.0445  -6.0445  -5.8883  -5.8883  -4.7522  -4.7522
    -4.7495  -4.7495  -4.2866  -4.0506  -3.5250  -3.4190  -3.4190  -3.3127
    -3.3127  -3.0932  -3.0687  -2.9689  -2.9689  -2.8866  -2.8866  -2.6996

          k = 0.2996-0.3460 0.3111 ( 30407 PWs)   bands (ev):

   -21.2067 -21.0735 -20.9756 -20.9153 -20.8407 -20.7945 -20.5968 -20.5403
   -20.4902 -20.4026 -20.3560 -20.2563  -8.9816  -8.9410  -8.8810  -8.8474
    -8.7873  -8.7381  -8.6393  -8.5666  -8.5113  -8.3437  -8.3330  -8.2983
    -6.6926  -6.3519  -6.1800  -5.9347  -5.8633  -5.4509  -5.0532  -4.7705
    -4.6948  -4.5358  -4.4204  -4.0803  -3.4463  -3.3746  -3.3308  -3.2496
    -3.1567  -3.1145  -3.0683  -3.0520  -3.0066  -2.8906  -2.8298  -2.7610

     highest occupied level (ev):    -2.6996

!    total energy              =    -418.05803489 Ry
     estimated scf accuracy    <          1.4E-09 Ry

     The total energy is the sum of the following terms:
     one-electron contribution =    -298.14547157 Ry
     hartree contribution      =     183.46497248 Ry
     xc contribution           =    -105.90116297 Ry
     ewald contribution        =    -197.47637284 Ry

     convergence has been achieved in   7 iterations

     Forces acting on atoms (cartesian axes, Ry/au):

     atom    1 type  2   force =    -0.00005862   -0.00419156   -0.00357265
     atom    2 type  2   force =     0.00005862    0.00419156    0.00357265
     atom    3 type  2   force =     0.00365931    0.00204501   -0.00357265
     atom    4 type  2   force =    -0.00365931   -0.00204501    0.00357265
     atom    5 type  2   force =    -0.00360068    0.00214655   -0.00357265
     atom    6 type  2   force =     0.00360068   -0.00214655    0.00357265
     atom    7 type  2   force =    -0.00344215   -0.00394519   -0.00350156
     atom    8 type  2   force =     0.00344215    0.00394519    0.00350156
     atom    9 type  2   force =     0.00513771   -0.00100839   -0.00350156
     atom   10 type  2   force =    -0.00513771    0.00100839    0.00350156
     atom   11 type  2   force =    -0.00169557    0.00495358   -0.00350156
     atom   12 type  2   force =     0.00169557   -0.00495358    0.00350156
     atom   13 type  1   force =    -0.00380167   -0.00110063   -0.00353027
     atom   14 type  1   force =     0.00380167    0.00110063    0.00353027
     atom   15 type  1   force =     0.00285401   -0.00274203   -0.00353027
     atom   16 type  1   force =    -0.00285401    0.00274203    0.00353027
     atom   17 type  1   force =     0.00094766    0.00384266   -0.00353027
     atom   18 type  1   force =    -0.00094766   -0.00384266    0.00353027
     atom   19 type  1   force =     0.00748071    0.00254298    0.00182005
     atom   20 type  1   force =    -0.00748071   -0.00254298   -0.00182005
     atom   21 type  1   force =    -0.00594264    0.00520699    0.00182005
     atom   22 type  1   force =     0.00594264   -0.00520699   -0.00182005
     atom   23 type  1   force =    -0.00153807   -0.00774997    0.00182005
     atom   24 type  1   force =     0.00153807    0.00774997   -0.00182005
     atom   25 type  1   force =     0.00269249   -0.00289703    0.00349084
     atom   26 type  1   force =    -0.00269249    0.00289703   -0.00349084
     atom   27 type  1   force =     0.00116266    0.00378028    0.00349084
     atom   28 type  1   force =    -0.00116266   -0.00378028   -0.00349084
     atom   29 type  1   force =    -0.00385515   -0.00088325    0.00349084
     atom   30 type  1   force =     0.00385515    0.00088325   -0.00349084
     atom   31 type  1   force =    -0.00143526   -0.00314583   -0.00049148
     atom   32 type  1   force =     0.00143526    0.00314583    0.00049148
     atom   33 type  1   force =     0.00344200    0.00032994   -0.00049148
     atom   34 type  1   force =    -0.00344200   -0.00032994    0.00049148
     atom   35 type  1   force =    -0.00200674    0.00281589   -0.00049148
     atom   36 type  1   force =     0.00200674   -0.00281589    0.00049148

     Total force =     0.034977     Total SCF correction =     0.000078


     Computing stress (Cartesian axis) and pressure

          total   stress  (Ry/bohr**3)                   (kbar)     P=       -0.68
  -0.00002862   0.00000000   0.00000000           -4.21        0.00        0.00
  -0.00000000  -0.00002862  -0.00000000           -0.00       -4.21       -0.00
   0.00000000  -0.00000000   0.00004327            0.00       -0.00        6.37

     Energy error            =      1.4E-02 Ry
     Gradient error          =      7.7E-03 Ry/Bohr

     number of scf cycles    =   4
     number of bfgs steps    =   3

     energy             old  =    -418.0444628316 Ry
     energy             new  =    -418.0580348923 Ry

     CASE: energy            _new < energy            _old

     new trust radius        =       0.0158801786 bohr
     new conv_thr            =       0.0000000077 Ry


ATOMIC_POSITIONS (crystal)
O                0.2734474624        0.0354910504        0.8598152656
O                0.7265525376        0.9645089606        0.1401847044
O                0.8598152656        0.2734474624        0.0354910504
O                0.1401847044        0.7265525376        0.9645089606
O                0.0354910504        0.8598152656        0.2734474624
O                0.9645089606        0.1401847044        0.7265525376
O                0.4707706213        0.7470632124        0.3296192995
O                0.5292293787        0.2529367876        0.6703806705
O                0.3296192995        0.4707706213        0.7470632124
O                0.6703806705        0.5292293787        0.2529367876
O                0.7470632124        0.3296192995        0.4707706213
O                0.2529367876        0.6703806705        0.5292293787
H                0.1489484414        0.0522821930        0.7961771608
H                0.8510515446        0.9477177990        0.2038228392
H                0.7961771608        0.1489484414        0.0522821930
H                0.2038228392        0.8510515446        0.9477177990
H                0.0522821930        0.7961771608        0.1489484414
[...]
H                0.2000422736        0.9853762660        0.4240814874
H                0.7999577414        0.0146237130        0.5759185126
H                0.7279216378        0.4065698489        0.4027072148
H                0.2720783622        0.5934301211        0.5972928152
H                0.4027072148        0.7279216378        0.4065698489
H                0.5972928152        0.2720783622        0.5934301211
H                0.4065698489        0.4027072148        0.7279216378
H                0.5934301211        0.5972928152        0.2720783622
H                0.7389288750        0.1975857217        0.3641788968
H                0.2610711250        0.8024142633        0.6358211032
H                0.3641788968        0.7389288750        0.1975857217
H                0.6358211032        0.2610711250        0.8024142633
H                0.1975857217        0.3641788968        0.7389288750
H                0.8024142633        0.6358211032        0.2610711250



     Writing config-only to output data dir ./iceII/iceII.save/ :
     XML data file
     NEW-OLD atomic charge density approx. for the potential

     negative rho (up, down):  1.436E-07 0.000E+00

     total cpu time spent up to now is      174.3 secs

     per-process dynamical memory:    20.1 Mb

     Self-consistent Calculation

     iteration #  1     ecut=    90.00 Ry     beta= 0.70
     Davidson diagonalization with overlap
     ethr =  1.00E-06,  avg # of iterations =  3.0

     Threshold (ethr) on eigenvalues was too large:
     Diagonalizing with lowered threshold

     Davidson diagonalization with overlap
     ethr =  3.51E-08,  avg # of iterations =  4.0

     negative rho (up, down):  1.301E-07 0.000E+00

     total cpu time spent up to now is      176.5 secs

     total energy              =    -418.06668245 Ry
     estimated scf accuracy    <       0.00003962 Ry

     iteration #  2     ecut=    90.00 Ry     beta= 0.70
     Davidson diagonalization with overlap
     ethr =  4.13E-08,  avg # of iterations =  2.0

     negative rho (up, down):  1.277E-07 0.000E+00

     total cpu time spent up to now is      177.3 secs

     total energy              =    -418.06668752 Ry
     estimated scf accuracy    <       0.00000236 Ry

     iteration #  3     ecut=    90.00 Ry     beta= 0.70
     Davidson diagonalization with overlap
     ethr =  2.46E-09,  avg # of iterations =  2.0

     negative rho (up, down):  1.279E-07 0.000E+00

     total cpu time spent up to now is      178.3 secs

     total energy              =    -418.06668796 Ry
     estimated scf accuracy    <       0.00000017 Ry

     iteration #  4     ecut=    90.00 Ry     beta= 0.70
     Davidson diagonalization with overlap
     ethr =  1.75E-10,  avg # of iterations =  3.1

     negative rho (up, down):  1.283E-07 0.000E+00

     total cpu time spent up to now is      179.5 secs

     total energy              =    -418.06668800 Ry
     estimated scf accuracy    <       0.00000004 Ry

     iteration #  5     ecut=    90.00 Ry     beta= 0.70
     Davidson diagonalization with overlap
     ethr =  4.17E-11,  avg # of iterations =  3.0

     negative rho (up, down):  1.284E-07 0.000E+00

     total cpu time spent up to now is      180.5 secs

     total energy              =    -418.06668801 Ry
     estimated scf accuracy    <          1.3E-09 Ry

     iteration #  6     ecut=    90.00 Ry     beta= 0.70
     Davidson diagonalization with overlap
     ethr =  1.33E-12,  avg # of iterations =  3.3

     negative rho (up, down):  1.285E-07 0.000E+00

     total cpu time spent up to now is      181.6 secs

     End of self-consistent calculation

          k = 0.0000 0.0000 0.0000 ( 30469 PWs)   bands (ev):

   -21.3367 -20.9050 -20.9050 -20.7203 -20.7203 -20.6806 -20.6795 -20.6795
   -20.6790 -20.4093 -20.4093 -20.1263  -8.9311  -8.8594  -8.8594  -8.8390
    -8.7592  -8.7592  -8.4921  -8.4921  -8.4856  -8.4425  -8.4356  -8.4356
    -7.0854  -6.0725  -6.0725  -5.5055  -5.5055  -5.3284  -5.3284  -5.1867
    -5.0627  -4.4238  -4.4238  -3.7235  -3.3336  -3.3336  -3.3009  -3.1664
    -3.1664  -3.1237  -3.0232  -3.0232  -2.9921  -2.9266  -2.8732  -2.8732

          k =-0.1498-0.0865 0.3111 ( 30442 PWs)   bands (ev):

   -21.2689 -20.9434 -20.8958 -20.8461 -20.8127 -20.7498 -20.6368 -20.5956
   -20.5400 -20.4138 -20.3761 -20.1787  -8.8986  -8.8723  -8.8533  -8.8210
    -8.7530  -8.7250  -8.5448  -8.5199  -8.5109  -8.4313  -8.3767  -8.3746
    -6.9278  -6.2331  -6.1054  -5.8016  -5.5814  -5.3516  -5.1743  -5.0565
    -4.8935  -4.4184  -4.3605  -3.8648  -3.4099  -3.3458  -3.3122  -3.2276
    -3.2128  -3.1599  -3.0727  -3.0154  -2.9533  -2.9457  -2.8890  -2.8639

          k = 0.2996 0.1730-0.6221 ( 30432 PWs)   bands (ev):

   -21.0949 -21.0909 -20.9251 -20.9131 -20.8092 -20.8092 -20.5879 -20.5855
   -20.4265 -20.4095 -20.3079 -20.3047  -8.8796  -8.8647  -8.8236  -8.8219
    -8.7531  -8.7009  -8.5649  -8.5501  -8.5219  -8.4190  -8.3394  -8.3288
    -6.6059  -6.4976  -6.0990  -6.0924  -5.5658  -5.5039  -5.0534  -4.9723
    -4.5470  -4.4830  -4.3265  -4.0982  -3.4811  -3.3648  -3.2970  -3.2859
    -3.2308  -3.2016  -3.1192  -3.0203  -3.0068  -2.9178  -2.8698  -2.8526

          k =-0.1498 0.0865 0.6221 ( 30396 PWs)   bands (ev):

   -21.1332 -21.0034 -20.9893 -20.8788 -20.8566 -20.7967 -20.5954 -20.5217
   -20.4818 -20.3749 -20.3592 -20.2733  -8.8787  -8.8605  -8.8340  -8.8241
    -8.7471  -8.6918  -8.5626  -8.5549  -8.5392  -8.3874  -8.3565  -8.3314
    -6.6474  -6.3618  -6.3167  -5.8824  -5.6883  -5.5135  -5.0523  -4.8256
    -4.7150  -4.4017  -4.3310  -4.1156  -3.4654  -3.3917  -3.2894  -3.2691
    -3.2250  -3.2053  -3.1298  -3.0219  -2.9929  -2.9216  -2.8891  -2.8387

          k = 0.2996 0.3460-0.3111 ( 30407 PWs)   bands (ev):

   -21.1780 -21.0283 -20.9428 -20.9035 -20.8360 -20.7742 -20.5950 -20.5003
   -20.4791 -20.4122 -20.3511 -20.2567  -8.8828  -8.8772  -8.8408  -8.8045
    -8.7476  -8.7204  -8.6082  -8.5706  -8.5423  -8.4070  -8.3721  -8.3400
    -6.6567  -6.3493  -6.1562  -5.9256  -5.8619  -5.3573  -4.9766  -4.8781
    -4.7239  -4.4518  -4.3296  -4.0621  -3.4096  -3.3589  -3.3066  -3.2606
    -3.2067  -3.1493  -3.0902  -3.0580  -2.9695  -2.9625  -2.8784  -2.8015

          k = 0.1498 0.2595 0.0000 ( 30375 PWs)   bands (ev):

   -21.2867 -20.9742 -20.9217 -20.8207 -20.7925 -20.7222 -20.6397 -20.5781
   -20.5386 -20.4172 -20.3890 -20.1698  -8.9143  -8.8672  -8.8588  -8.8202
    -8.7577  -8.7495  -8.5704  -8.5426  -8.5042  -8.4468  -8.4193  -8.3761
    -6.9161  -6.1318  -6.0335  -5.8344  -5.7977  -5.2545  -5.0869  -4.9673
    -4.9345  -4.4571  -4.4149  -3.8218  -3.3364  -3.3210  -3.3147  -3.2175
    -3.1721  -3.1418  -3.0596  -3.0433  -2.9747  -2.9487  -2.8493  -2.8311

          k = 0.2996-0.1730-1.2442 ( 30362 PWs)   bands (ev):

   -21.1698 -21.1260 -20.9335 -20.8685 -20.7882 -20.7467 -20.5806 -20.5697
   -20.4540 -20.4484 -20.2861 -20.2783  -8.8925  -8.8731  -8.8475  -8.8070
    -8.7508  -8.7487  -8.6347  -8.5832  -8.5258  -8.4197  -8.4151  -8.3636
    -6.5067  -6.4845  -6.1228  -5.9882  -5.7412  -5.3817  -4.9089  -4.8857
    -4.7159  -4.5705  -4.2298  -4.0701  -3.3456  -3.3200  -3.3004  -3.2541
    -3.1798  -3.1437  -3.0950  -3.0272  -3.0268  -2.9388  -2.8167  -2.8109

          k = 0.0000 0.0000 0.9332 ( 30441 PWs)   bands (ev):

   -21.0776 -21.0776 -20.9958 -20.9745 -20.7980 -20.7980 -20.5233 -20.5233
   -20.4006 -20.3834 -20.3525 -20.3525  -8.8765  -8.8765  -8.8486  -8.7642
    -8.7642  -8.7495  -8.6431  -8.5705  -8.5705  -8.3543  -8.3543  -8.3324
    -6.4154  -6.4154  -6.3809  -6.0043  -5.6586  -5.6586  -4.7520  -4.7520
    -4.6560  -4.3932  -4.3932  -4.2902  -3.3652  -3.3652  -3.2762  -3.2587
    -3.1791  -3.1791  -3.1383  -3.0215  -3.0215  -2.9253  -2.9253  -2.7778

          k = 0.4494 0.2595 0.0000 ( 30403 PWs)   bands (ev):

   -21.1944 -21.0397 -21.0258 -20.8704 -20.7408 -20.7292 -20.6129 -20.5963
   -20.4488 -20.3850 -20.3581 -20.2484  -8.8900  -8.8666  -8.8597  -8.7987
    -8.7743  -8.7225  -8.6431  -8.5764  -8.5419  -8.4161  -8.4039  -8.3681
    -6.6260  -6.2327  -6.1846  -6.0928  -5.7004  -5.3756  -4.9922  -4.9059
    -4.6223  -4.4717  -4.3716  -4.0299  -3.3327  -3.3237  -3.3089  -3.2476
    -3.1976  -3.1502  -3.0781  -3.0526  -3.0046  -2.9139  -2.8549  -2.7950

          k = 0.2996 0.1730 0.3111 ( 30428 PWs)   bands (ev):

   -21.2219 -20.9828 -20.9100 -20.8962 -20.8279 -20.7620 -20.6094 -20.5618
   -20.5175 -20.3973 -20.3561 -20.2141  -8.8890  -8.8743  -8.8432  -8.7996
    -8.7595  -8.7024  -8.5821  -8.5354  -8.5033  -8.4652  -8.4132  -8.3553
    -6.7727  -6.2005  -6.1774  -5.8818  -5.7741  -5.3493  -5.0803  -4.9120
    -4.8621  -4.4024  -4.3485  -3.9298  -3.4328  -3.3532  -3.3255  -3.2703
    -3.2350  -3.1283  -3.1003  -3.0311  -2.9435  -2.9425  -2.8626  -2.8420

          k = 0.4494-0.2595-0.9332 ( 30380 PWs)   bands (ev):

   -21.1039 -21.0909 -20.9691 -20.9247 -20.8151 -20.7342 -20.6437 -20.5502
   -20.4377 -20.3775 -20.3388 -20.2706  -8.8800  -8.8593  -8.8479  -8.7802
    -8.7457  -8.6942  -8.6052  -8.5676  -8.5309  -8.4707  -8.4088  -8.3707
    -6.4734  -6.3625  -6.2220  -6.0057  -5.7979  -5.3782  -5.1315  -4.8478
    -4.6119  -4.3968  -4.3593  -4.0385  -3.4403  -3.3729  -3.3445  -3.2868
    -3.2574  -3.1528  -3.0605  -3.0400  -2.9642  -2.9259  -2.8490  -2.8192

          k = 0.2996-0.3460-0.6221 ( 30416 PWs)   bands (ev):

   -21.0616 -21.0545 -20.9593 -20.9488 -20.8312 -20.8305 -20.5689 -20.5673
   -20.4207 -20.4138 -20.3113 -20.2960  -8.8816  -8.8344  -8.8188  -8.7998
    -8.7792  -8.6523  -8.5942  -8.5552  -8.5175  -8.4489  -8.3717  -8.3602
    -6.4715  -6.4376  -6.1580  -6.1120  -5.6411  -5.6041  -4.9690  -4.9025
    -4.5685  -4.5335  -4.2728  -4.0800  -3.5036  -3.3779  -3.3417  -3.3347
    -3.2812  -3.1573  -3.0562  -3.0447  -2.9935  -2.9017  -2.8876  -2.8206

          k = 0.0000 0.0000-1.8663 ( 30414 PWs)   bands (ev):

   -21.0245 -21.0045 -20.9330 -20.9330 -20.9285 -20.9285 -20.4864 -20.4864
   -20.4765 -20.4765 -20.3047 -20.2809  -8.8802  -8.7969  -8.7969  -8.7952
    -8.7952  -8.6427  -8.5813  -8.5660  -8.4994  -8.4994  -8.4020  -8.4020
    -6.4515  -6.3268  -5.9816  -5.9816  -5.8967  -5.8967  -4.7125  -4.7125
    -4.7097  -4.7097  -4.2180  -4.0589  -3.5081  -3.3793  -3.3793  -3.3691
    -3.3691  -3.1039  -3.0661  -2.9731  -2.9731  -2.9229  -2.9229  -2.7889

          k = 0.2996-0.3460 0.3111 ( 30407 PWs)   bands (ev):

   -21.1781 -21.0266 -20.9472 -20.9016 -20.8347 -20.7739 -20.5933 -20.5023
   -20.4854 -20.4040 -20.3523 -20.2577  -8.8881  -8.8651  -8.8488  -8.7906
    -8.7597  -8.7220  -8.6175  -8.5660  -8.5381  -8.4021  -8.3660  -8.3495
    -6.6599  -6.3153  -6.2223  -5.9043  -5.8039  -5.4188  -5.0685  -4.7522
    -4.6494  -4.5067  -4.3938  -4.0336  -3.4193  -3.3454  -3.3006  -3.2539
    -3.2152  -3.1504  -3.0980  -3.0714  -2.9795  -2.9315  -2.8808  -2.8062

     highest occupied level (ev):    -2.7778

!    total energy              =    -418.06668801 Ry
     estimated scf accuracy    <          4.7E-10 Ry

     The total energy is the sum of the following terms:
     one-electron contribution =    -298.86348306 Ry
     hartree contribution      =     183.83504100 Ry
     xc contribution           =    -105.86570405 Ry
     ewald contribution        =    -197.17254190 Ry

     convergence has been achieved in   6 iterations

     Forces acting on atoms (cartesian axes, Ry/au):

     atom    1 type  2   force =     0.00083737    0.00025786   -0.00017769
     atom    2 type  2   force =    -0.00083737   -0.00025786    0.00017769
     atom    3 type  2   force =    -0.00064199    0.00059625   -0.00017769
     atom    4 type  2   force =     0.00064199   -0.00059625    0.00017769
     atom    5 type  2   force =    -0.00019537   -0.00085411   -0.00017769
     atom    6 type  2   force =     0.00019537    0.00085411    0.00017769
     atom    7 type  2   force =     0.00057803   -0.00057023    0.00025633
     atom    8 type  2   force =    -0.00057803    0.00057023   -0.00025633
     atom    9 type  2   force =     0.00020482    0.00078570    0.00025633
     atom   10 type  2   force =    -0.00020482   -0.00078570   -0.00025633
     atom   11 type  2   force =    -0.00078285   -0.00021547    0.00025633
     atom   12 type  2   force =     0.00078285    0.00021547   -0.00025633
     atom   13 type  1   force =     0.00008032   -0.00057962   -0.00036713
     atom   14 type  1   force =    -0.00008032    0.00057962    0.00036713
     atom   15 type  1   force =     0.00046180    0.00035937   -0.00036713
     atom   16 type  1   force =    -0.00046180   -0.00035937    0.00036713
     atom   17 type  1   force =    -0.00054212    0.00022025   -0.00036713
     atom   18 type  1   force =     0.00054212   -0.00022025    0.00036713
     atom   19 type  1   force =    -0.00027844   -0.00059220    0.00021204
     atom   20 type  1   force =     0.00027844    0.00059220   -0.00021204
     atom   21 type  1   force =     0.00065208    0.00005497    0.00021204
     atom   22 type  1   force =    -0.00065208   -0.00005497   -0.00021204
     atom   23 type  1   force =    -0.00037364    0.00053724    0.00021204
     atom   24 type  1   force =     0.00037364   -0.00053724   -0.00021204
     atom   25 type  1   force =     0.00040072   -0.00086539   -0.00007829
     atom   26 type  1   force =    -0.00040072    0.00086539    0.00007829
     atom   27 type  1   force =     0.00054909    0.00077973   -0.00007829
     atom   28 type  1   force =    -0.00054909   -0.00077973    0.00007829
     atom   29 type  1   force =    -0.00094981    0.00008566   -0.00007829
     atom   30 type  1   force =     0.00094981   -0.00008566    0.00007829
     atom   31 type  1   force =    -0.00008661    0.00059134    0.00081907
     atom   32 type  1   force =     0.00008661   -0.00059134   -0.00081907
     atom   33 type  1   force =    -0.00046881   -0.00037068    0.00081907
     atom   34 type  1   force =     0.00046881    0.00037068   -0.00081907
     atom   35 type  1   force =     0.00055542   -0.00022066    0.00081907
     atom   36 type  1   force =    -0.00055542    0.00022066   -0.00081907

     Total force =     0.005149     Total SCF correction =     0.000030


     Computing stress (Cartesian axis) and pressure

          total   stress  (Ry/bohr**3)                   (kbar)     P=       -3.86
  -0.00002909  -0.00000000  -0.00000000           -4.28       -0.00       -0.00
   0.00000000  -0.00002909  -0.00000000            0.00       -4.28       -0.00
  -0.00000000  -0.00000000  -0.00002048           -0.00       -0.00       -3.01

     Energy error            =      5.8E-05 Ry
     Gradient error          =      9.5E-04 Ry/Bohr

     bfgs converged in  19 scf cycles and  18 bfgs steps
     (criteria: energy <  1.0E-04 Ry, force <  1.0E-03 Ry/Bohr)

     End of BFGS Geometry Optimization

     Final energy             =    -418.0666880121 Ry

     File ./iceII/iceII.bfgs deleted, as requested
Begin final coordinates

ATOMIC_POSITIONS (crystal)
O                0.2714008802        0.0288224035        0.8570482013
O                0.7285991198        0.9711776075        0.1429517687
O                0.8570482013        0.2714008802        0.0288224035
O                0.1429517687        0.7285991198        0.9711776075
O                0.0288224035        0.8570482013        0.2714008802
O                0.9711776075        0.1429517687        0.7285991198
O                0.4721446523        0.7473789522        0.3270476975
O                0.5278553477        0.2526210478        0.6729522725
O                0.3270476975        0.4721446523        0.7473789522
O                0.6729522725        0.5278553477        0.2526210478
O                0.7473789522        0.3270476975        0.4721446523
O                0.2526210478        0.6729522725        0.5278553477
H                0.1436427162        0.0414843517        0.7934979667
H                0.8563572698        0.9585156403        0.2065020333
H                0.7934979667        0.1436427162        0.0414843517
H                0.2065020333        0.8563572698        0.9585156403
H                0.0414843517        0.7934979667        0.1436427162
H                0.9585156403        0.2065020333        0.8563572698
H                0.4240814874        0.2000422736        0.9853762660
H                0.5759185126        0.7999577414        0.0146237130
H                0.9853762660        0.4240814874        0.2000422736
H                0.0146237130        0.5759185126        0.7999577414
H                0.2000422736        0.9853762660        0.4240814874
H                0.7999577414        0.0146237130        0.5759185126
H                0.7279216378        0.4065698489        0.4027072148
H                0.2720783622        0.5934301211        0.5972928152
H                0.4027072148        0.7279216378        0.4065698489
H                0.5972928152        0.2720783622        0.5934301211
H                0.4065698489        0.4027072148        0.7279216378
H                0.5934301211        0.5972928152        0.2720783622
H                0.7389288750        0.1975857217        0.3641788968
H                0.2610711250        0.8024142633        0.6358211032
H                0.3641788968        0.7389288750        0.1975857217
H                0.6358211032        0.2610711250        0.8024142633
H                0.1975857217        0.3641788968        0.7389288750
H                0.8024142633        0.6358211032        0.2610711250
End final coordinates



     Writing all to output data dir ./iceII/iceII.save/ :
     XML data file, charge density, pseudopotentials, collected wavefunctions

     init_run     :      2.62s CPU      2.70s WALL (       1 calls)
     electrons    :    145.46s CPU    152.17s WALL (      19 calls)
     update_pot   :      2.56s CPU      3.14s WALL (      18 calls)
     forces       :      2.56s CPU      2.58s WALL (      19 calls)
     stress       :     20.32s CPU     20.82s WALL (      19 calls)

     Called by init_run:
     wfcinit      :      0.36s CPU      0.37s WALL (       1 calls)
     potinit      :      1.70s CPU      1.74s WALL (       1 calls)
     hinit0       :      0.39s CPU      0.40s WALL (       1 calls)

     Called by electrons:
     c_bands      :    111.40s CPU    112.74s WALL (     138 calls)
     sum_band     :     14.96s CPU     15.15s WALL (     138 calls)
     v_of_rho     :     21.69s CPU     26.49s WALL (     150 calls)
     newd         :      0.74s CPU      0.75s WALL (     150 calls)
     mix_rho      :      0.38s CPU      0.39s WALL (     138 calls)
     vdW_kernel   :      1.52s CPU      1.52s WALL (       1 calls)

     Called by c_bands:
     init_us_2    :      1.90s CPU      1.99s WALL (    1260 calls)
     cegterg      :    108.81s CPU    109.85s WALL (     552 calls)

     Called by *egterg:
     cdiaghg      :      8.12s CPU      8.14s WALL (    2083 calls)
     h_psi        :     82.92s CPU     83.73s WALL (    2187 calls)
     s_psi        :      3.40s CPU      3.48s WALL (    2187 calls)
     g_psi        :      0.23s CPU      0.23s WALL (    1631 calls)

     Called by h_psi:
     h_psi:calbec :      5.99s CPU      6.02s WALL (    2187 calls)
     vloc_psi     :     72.92s CPU     73.66s WALL (    2187 calls)
     add_vuspsi   :      3.43s CPU      3.44s WALL (    2187 calls)

     General routines
     calbec       :      8.53s CPU      8.58s WALL (    3119 calls)
     fft          :     13.01s CPU     15.48s WALL (   10163 calls)
     ffts         :      0.19s CPU      0.19s WALL (     138 calls)
     fftw         :     75.86s CPU     76.59s WALL (  194732 calls)

     Parallel routines

     PWSCF        :   2m54.88s CPU   3m 3.60s WALL


   This run was terminated on:  14:51:56   1Apr2026            

=------------------------------------------------------------------------------=
   JOB DONE.
=------------------------------------------------------------------------------=
