
     Program PWSCF v.7.3.1 starts on 26Mar2026 at 14:56:26 

     This program is part of the open-source Quantum ESPRESSO suite
     for quantum simulation of materials; please cite
         "P. Giannozzi et al., J. Phys.:Condens. Matter 21 395502 (2009);
         "P. Giannozzi et al., J. Phys.:Condens. Matter 29 465901 (2017);
         "P. Giannozzi et al., J. Chem. Phys. 152 154105 (2020);
          URL http://www.quantum-espresso.org", 
     in publications or presentations arising from this work. More details at
     http://www.quantum-espresso.org/quote

     Parallel version (MPI), running on   128 processors

     MPI processes distributed on     1 nodes
     242791 MiB available memory on the printing compute node when the environment starts

     Waiting for input...
     Reading input from standard input

     Current dimensions of program PWSCF are:
     Max number of different atomic species (ntypx) = 10
     Max number of k-points (npk) =  40000
     Max angular momentum in pseudopotentials (lmaxx) =  4

     IMPORTANT: XC functional enforced from input :
     Exchange-correlation= VDW-DF2
                           (   1   4  13   0   2   0   0)
     Any further DFT definition will be discarded
     Please, verify this is what you really want


     K-points division:     npool     =       4
     R & G space division:  proc/nbgrp/npool/nimage =      32
     Subspace diagonalization in iterative solution of the eigenvalue problem:
     a serial algorithm will be used


     Parallelization info
     --------------------
     sticks:   dense  smooth     PW     G-vecs:    dense   smooth      PW
     Min         181     181     53                 7619     7619    1208
     Max         182     182     54                 7622     7622    1210
     Sum        5795    5795   1703               243877   243877   38689

     Using Slab Decomposition



     bravais-lattice index     =            5
     lattice parameter (alat)  =      14.8491  a.u.
     unit-cell volume          =    2115.3967 (a.u.)^3
     number of atoms/cell      =           36
     number of atomic types    =            2
     number of electrons       =        96.00
     number of Kohn-Sham states=           48
     kinetic-energy cutoff     =      90.0000  Ry
     charge density cutoff     =     360.0000  Ry
     scf convergence threshold =      1.0E-07
     mixing beta               =       0.7000
     number of iterations used =            8  plain     mixing
     Exchange-correlation= VDW-DF2
                           (   1   4  13   0   2   0   0)

     celldm(1)=  14.849089  celldm(2)=   0.000000  celldm(3)=   0.000000
     celldm(4)=  -0.392337  celldm(5)=   0.000000  celldm(6)=   0.000000

     crystal axes: (cart. coord. in units of alat)
               a(1) = (   0.834367  -0.481722   0.267909 )  
               a(2) = (   0.000000   0.963444   0.267909 )  
               a(3) = (  -0.834367  -0.481722   0.267909 )  

     reciprocal axes: (cart. coord. in units 2 pi/alat)
               b(1) = (  0.599257 -0.345981  1.244203 )  
               b(2) = (  0.000000  0.691962  1.244203 )  
               b(3) = ( -0.599257 -0.345981  1.244203 )  


     PseudoPot. # 1 for H  read from file:
     ./H.pbe-van_ak.UPF
     MD5 check sum: 077eb6d537518a38cb46c6de387227b7
     Pseudo is Ultrasoft, Zval =  1.0
     Generated by new atomic code, or converted to UPF format
     Using radial grid of  615 points,  1 beta functions with: 
                l(1) =   0
     Q(r) pseudized with  8 coefficients,  rinner =    0.800

     PseudoPot. # 2 for O  read from file:
     ./O.pbe-van_ak.UPF
     MD5 check sum: 78c19812648e8988a0fe644b0f25305e
     Pseudo is Ultrasoft, Zval =  6.0
     Generated by new atomic code, or converted to UPF format
     Using radial grid of  737 points,  4 beta functions with: 
                l(1) =   0
                l(2) =   0
                l(3) =   1
                l(4) =   1
     Q(r) pseudized with  8 coefficients,  rinner =    0.800   0.800   0.800


     atomic species   valence    mass     pseudopotential
     H                 1.00     1.00800     H ( 1.00)
     O                 6.00    16.00000     O ( 1.00)

      6 Sym. Ops., with inversion, found



   Cartesian axes

     site n.     atom                  positions (alat units)
         1        O      tau(   1) = (  -0.4881587  -0.5153728   0.3102004  )
         2        O      tau(   2) = (   0.4881587   0.5153729   0.4935268  )
         3        O      tau(   3) = (   0.6904053  -0.1650714   0.3102004  )
         4        O      tau(   4) = (  -0.6904053   0.1650714   0.4935268  )
         5        O      tau(   5) = (  -0.2022466   0.6804442   0.3102004  )
         6        O      tau(   6) = (   0.2022466  -0.6804442   0.4935268  )
         7        O      tau(   7) = (   0.1208629   0.3351200   0.4137471  )
         8        O      tau(   8) = (  -0.1208629  -0.3351200   0.3899800  )
         9        O      tau(   9) = (  -0.3506539  -0.0628897   0.4137471  )
        10        O      tau(  10) = (   0.3506539   0.0628897   0.3899800  )
        11        O      tau(  11) = (   0.2297910  -0.2722304   0.4137471  )
        12        O      tau(  12) = (  -0.2297910   0.2722304   0.3899800  )
        13        H      tau(  13) = (  -0.5430428  -0.4102686   0.2622098  )
        14        H      tau(  14) = (   0.5430428   0.4102686   0.5415173  )
        15        H      tau(  15) = (   0.6268245  -0.2651546   0.2622098  )
        16        H      tau(  16) = (  -0.6268245   0.2651546   0.5415173  )
        17        H      tau(  17) = (  -0.0837816   0.6754232   0.2622098  )
        18        H      tau(  18) = (   0.0837817  -0.6754232   0.5415173  )
        19        H      tau(  19) = (  -0.4681736  -0.4859583   0.4327384  )
        20        H      tau(  20) = (   0.4681736   0.4859583   0.3709887  )
        21        H      tau(  21) = (   0.6549390  -0.1624711   0.4327384  )
        22        H      tau(  22) = (  -0.6549390   0.1624711   0.3709887  )
        23        H      tau(  23) = (  -0.1867654   0.6484294   0.4327384  )
        24        H      tau(  24) = (   0.1867654  -0.6484294   0.3709887  )
        25        H      tau(  25) = (   0.2718867  -0.1516220   0.4118766  )
        26        H      tau(  26) = (  -0.2718867   0.1516219   0.3918506  )
        27        H      tau(  27) = (  -0.0046349   0.3112717   0.4118766  )
        28        H      tau(  28) = (   0.0046349  -0.3112717   0.3918506  )
        29        H      tau(  29) = (  -0.2672518  -0.1596498   0.4118766  )
        30        H      tau(  30) = (   0.2672518   0.1596498   0.3918506  )
        31        H      tau(  31) = (   0.3136186  -0.3416266   0.3473301  )
        32        H      tau(  32) = (  -0.3136186   0.3416266   0.4563970  )
        33        H      tau(  33) = (   0.1390481   0.4424150   0.3473301  )
        34        H      tau(  34) = (  -0.1390480  -0.4424150   0.4563970  )
        35        H      tau(  35) = (  -0.4526667  -0.1007884   0.3473301  )
        36        H      tau(  36) = (   0.4526666   0.1007884   0.4563970  )

     number of k points=    14
                       cart. coord. in units 2pi/alat
        k(    1) = (   0.0000000   0.0000000   0.0000000), wk =   0.0312500
        k(    2) = (  -0.1498141  -0.0864952   0.3110508), wk =   0.1875000
        k(    3) = (   0.2996283   0.1729905  -0.6221017), wk =   0.0937500
        k(    4) = (  -0.1498141   0.0864952   0.6221017), wk =   0.1875000
        k(    5) = (   0.2996283   0.3459809  -0.3110508), wk =   0.1875000
        k(    6) = (   0.1498141   0.2594857   0.0000000), wk =   0.1875000
        k(    7) = (   0.2996283  -0.1729905  -1.2442034), wk =   0.0937500
        k(    8) = (   0.0000000   0.0000000   0.9331525), wk =   0.0625000
        k(    9) = (   0.4494424   0.2594857   0.0000000), wk =   0.1875000
        k(   10) = (   0.2996283   0.1729905   0.3110508), wk =   0.1875000
        k(   11) = (   0.4494424  -0.2594857  -0.9331525), wk =   0.1875000
        k(   12) = (   0.2996283  -0.3459809  -0.6221017), wk =   0.1875000
        k(   13) = (   0.0000000   0.0000000  -1.8663050), wk =   0.0312500
        k(   14) = (   0.2996283  -0.3459809   0.3110508), wk =   0.1875000

     Dense  grid:   243877 G-vectors     FFT dimensions: (  90,  90,  90)

     Estimated max dynamical RAM per process >      15.87 MB

     Estimated total dynamical RAM >       1.81 GB

     Initial potential from superposition of free atoms

     starting charge      95.9998, renormalised to      96.0000


     %%%%%%%%%%%%%%%%%%%%%%%%%%%%%%%%%%%%%%%%%%%%%%%%%%%%%%%%%%%%%%%%%%%%%%%%
     %                                                                      %
     % You are using vdW-DF, which was implemented by the Thonhauser group. %
     % Please cite the following two papers that made this development      %
     % possible and the two reviews that describe the various versions:     %
     %                                                                      %
     %   T. Thonhauser et al., PRL 115, 136402 (2015).                      %
     %   T. Thonhauser et al., PRB 76, 125112 (2007).                       %
     %   K. Berland et al., Rep. Prog. Phys. 78, 066501 (2015).             %
     %   D.C. Langreth et al., J. Phys.: Condens. Matter 21, 084203 (2009). %
     %                                                                      %
     % If you are calculating stress with vdW-DF, please also cite:         %
     %                                                                      %
     %   R. Sabatini et al., J. Phys.: Condens. Matter 24, 424209 (2012).   %
     %                                                                      %
     %%%%%%%%%%%%%%%%%%%%%%%%%%%%%%%%%%%%%%%%%%%%%%%%%%%%%%%%%%%%%%%%%%%%%%%%

     %%%%%%%%%%%%%%%%%%%%%%%%%%%%%%%%%%%%%%%%%%%%%%%%%%%%%%%%%%%%%%%%%%%%%%%%
     %                                                                      %
     %  vdW-DF NEWS:                                                        %
     %                                                                      %
     %  * vdW-DF3 is now available. DOI: 10.1021/acs.jctc.0c00471           %
     %    use with input_dft = 'vdW-DF3-opt1' or 'vdW-DF3-opt2'             %
     %                                                                      %
     %  * Unscreened and range-separated hybrid vdW-DF-cx functionals       %
     %    DOI: 10.1063/1.4986522 and 10.1088/1361-648X/ac2ad2               %
     %    use with input_dft = 'vdW-DF-cx0'    and 'vdW-DF-ahcx'            %
     %  * Unscreened and range-separated hybrid vdW-DF2-b86r functionals    %
     %    DOI: 10.1063/1.4986522 and DOI: 10.1103/PhysRevX.12.041003        %
     %    use with input_dft = 'vdW-DF2-br0' and 'vdW-DF2-ahbr'             %
     %                                                                      %
     %%%%%%%%%%%%%%%%%%%%%%%%%%%%%%%%%%%%%%%%%%%%%%%%%%%%%%%%%%%%%%%%%%%%%%%%


     Starting wfcs are   72 randomized atomic wfcs

     total cpu time spent up to now is        2.9 secs

     per-process dynamical memory:    20.2 Mb

     Self-consistent Calculation

     iteration #  1     ecut=    90.00 Ry     beta= 0.70
     Davidson diagonalization with overlap
     ethr =  1.00E-02,  avg # of iterations =  2.0

     total cpu time spent up to now is        3.9 secs

     total energy              =    -415.94269764 Ry
     estimated scf accuracy    <       4.71072049 Ry

     iteration #  2     ecut=    90.00 Ry     beta= 0.70
     Davidson diagonalization with overlap
     ethr =  4.91E-03,  avg # of iterations =  3.0

     total cpu time spent up to now is        5.1 secs

     total energy              =    -417.48415798 Ry
     estimated scf accuracy    <       3.46886938 Ry

     iteration #  3     ecut=    90.00 Ry     beta= 0.70
     Davidson diagonalization with overlap
     ethr =  3.61E-03,  avg # of iterations =  2.0

     total cpu time spent up to now is        6.1 secs

     total energy              =    -417.93629564 Ry
     estimated scf accuracy    <       0.15206741 Ry

     iteration #  4     ecut=    90.00 Ry     beta= 0.70
     Davidson diagonalization with overlap
     ethr =  1.58E-04,  avg # of iterations =  4.0

     total cpu time spent up to now is        7.4 secs

     total energy              =    -418.05316666 Ry
     estimated scf accuracy    <       0.18838873 Ry

     iteration #  5     ecut=    90.00 Ry     beta= 0.70
     Davidson diagonalization with overlap
     ethr =  1.58E-04,  avg # of iterations =  2.0

     total cpu time spent up to now is        8.3 secs

     total energy              =    -418.05813078 Ry
     estimated scf accuracy    <       0.02791426 Ry

     iteration #  6     ecut=    90.00 Ry     beta= 0.70
     Davidson diagonalization with overlap
     ethr =  2.91E-05,  avg # of iterations =  2.0

     negative rho (up, down):  3.888E-08 0.000E+00

     total cpu time spent up to now is        9.2 secs

     total energy              =    -418.06061518 Ry
     estimated scf accuracy    <       0.00393556 Ry

     iteration #  7     ecut=    90.00 Ry     beta= 0.70
     Davidson diagonalization with overlap
     ethr =  4.10E-06,  avg # of iterations =  3.0

     negative rho (up, down):  8.366E-08 0.000E+00

     total cpu time spent up to now is       10.3 secs

     total energy              =    -418.06367442 Ry
     estimated scf accuracy    <       0.00089802 Ry

     iteration #  8     ecut=    90.00 Ry     beta= 0.70
     Davidson diagonalization with overlap
     ethr =  9.35E-07,  avg # of iterations =  3.0

     total cpu time spent up to now is       11.5 secs

     total energy              =    -418.06225392 Ry
     estimated scf accuracy    <       0.00473147 Ry

     iteration #  9     ecut=    90.00 Ry     beta= 0.70
     Davidson diagonalization with overlap
     ethr =  9.35E-07,  avg # of iterations =  3.0

     total cpu time spent up to now is       12.6 secs

     total energy              =    -418.06266167 Ry
     estimated scf accuracy    <       0.00048849 Ry

     iteration # 10     ecut=    90.00 Ry     beta= 0.70
     Davidson diagonalization with overlap
     ethr =  5.09E-07,  avg # of iterations =  1.0

     total cpu time spent up to now is       13.4 secs

     total energy              =    -418.06261377 Ry
     estimated scf accuracy    <       0.00034757 Ry

     iteration # 11     ecut=    90.00 Ry     beta= 0.70
     Davidson diagonalization with overlap
     ethr =  3.62E-07,  avg # of iterations =  1.0

     total cpu time spent up to now is       14.2 secs

     total energy              =    -418.06260499 Ry
     estimated scf accuracy    <       0.00014203 Ry

     iteration # 12     ecut=    90.00 Ry     beta= 0.70
     Davidson diagonalization with overlap
     ethr =  1.48E-07,  avg # of iterations =  2.0

     total cpu time spent up to now is       15.1 secs

     total energy              =    -418.06261229 Ry
     estimated scf accuracy    <       0.00003366 Ry

     iteration # 13     ecut=    90.00 Ry     beta= 0.70
     Davidson diagonalization with overlap
     ethr =  3.51E-08,  avg # of iterations =  2.0

     total cpu time spent up to now is       16.1 secs

     total energy              =    -418.06261804 Ry
     estimated scf accuracy    <       0.00000213 Ry

     iteration # 14     ecut=    90.00 Ry     beta= 0.70
     Davidson diagonalization with overlap
     ethr =  2.22E-09,  avg # of iterations =  2.7

     total cpu time spent up to now is       17.1 secs

     total energy              =    -418.06261836 Ry
     estimated scf accuracy    <       0.00000065 Ry

     iteration # 15     ecut=    90.00 Ry     beta= 0.70
     Davidson diagonalization with overlap
     ethr =  6.78E-10,  avg # of iterations =  1.9

     total cpu time spent up to now is       17.9 secs

     total energy              =    -418.06261835 Ry
     estimated scf accuracy    <       0.00000044 Ry

     iteration # 16     ecut=    90.00 Ry     beta= 0.70
     Davidson diagonalization with overlap
     ethr =  4.54E-10,  avg # of iterations =  2.0

     total cpu time spent up to now is       18.7 secs

     total energy              =    -418.06261835 Ry
     estimated scf accuracy    <       0.00000016 Ry

     iteration # 17     ecut=    90.00 Ry     beta= 0.70
     Davidson diagonalization with overlap
     ethr =  1.68E-10,  avg # of iterations =  2.0

     total cpu time spent up to now is       19.6 secs

     total energy              =    -418.06261836 Ry
     estimated scf accuracy    <       0.00000010 Ry

     iteration # 18     ecut=    90.00 Ry     beta= 0.70
     Davidson diagonalization with overlap
     ethr =  1.08E-10,  avg # of iterations =  1.0

     total cpu time spent up to now is       20.3 secs

     End of self-consistent calculation

          k = 0.0000 0.0000 0.0000 ( 30523 PWs)   bands (ev):

   -21.2427 -20.8066 -20.8066 -20.6196 -20.6196 -20.5793 -20.5785 -20.5785
   -20.5785 -20.3051 -20.3051 -20.0181  -8.8586  -8.7887  -8.7887  -8.7649
    -8.6823  -8.6823  -8.4115  -8.4115  -8.4059  -8.3599  -8.3532  -8.3532
    -7.0908  -6.0663  -6.0663  -5.4832  -5.4832  -5.3219  -5.3219  -5.1607
    -5.0484  -4.3959  -4.3959  -3.6897  -3.3153  -3.3153  -3.2838  -3.1544
    -3.1544  -3.1203  -3.0213  -3.0213  -2.9791  -2.9073  -2.8594  -2.8594

          k =-0.1498-0.0865 0.3111 ( 30524 PWs)   bands (ev):

   -21.1743 -20.8458 -20.7980 -20.7462 -20.7124 -20.6492 -20.5356 -20.4943
   -20.4375 -20.3094 -20.2713 -20.0713  -8.8249  -8.8007  -8.7817  -8.7472
    -8.6759  -8.6484  -8.4671  -8.4424  -8.4307  -8.3484  -8.2917  -8.2888
    -6.9303  -6.2283  -6.0973  -5.7901  -5.5614  -5.3302  -5.1690  -5.0381
    -4.8816  -4.3887  -4.3316  -3.8333  -3.3929  -3.3283  -3.2982  -3.2188
    -3.2017  -3.1502  -3.0561  -3.0099  -2.9483  -2.9342  -2.8771  -2.8527

          k = 0.2996 0.1730-0.6221 ( 30498 PWs)   bands (ev):

   -20.9995 -20.9938 -20.8282 -20.8140 -20.7097 -20.7077 -20.4860 -20.4850
   -20.3196 -20.3074 -20.2018 -20.1993  -8.8070  -8.7918  -8.7504  -8.7462
    -8.6765  -8.6270  -8.4863  -8.4715  -8.4438  -8.3356  -8.2526  -8.2415
    -6.6020  -6.4969  -6.0905  -6.0826  -5.5470  -5.4845  -5.0477  -4.9611
    -4.5254  -4.4638  -4.2989  -4.0619  -3.4645  -3.3515  -3.2862  -3.2748
    -3.2197  -3.1832  -3.1043  -3.0136  -2.9942  -2.9136  -2.8613  -2.8443

          k =-0.1498 0.0865 0.6221 ( 30504 PWs)   bands (ev):

   -21.0374 -20.9065 -20.8920 -20.7801 -20.7566 -20.6965 -20.4940 -20.4196
   -20.3781 -20.2696 -20.2543 -20.1672  -8.8060  -8.7879  -8.7615  -8.7479
    -8.6710  -8.6157  -8.4850  -8.4770  -8.4610  -8.3035  -8.2703  -8.2439
    -6.6443  -6.3597  -6.3112  -5.8692  -5.6709  -5.4958  -5.0417  -4.8174
    -4.7003  -4.3726  -4.3040  -4.0821  -3.4488  -3.3784  -3.2801  -3.2566
    -3.2084  -3.1925  -3.1143  -3.0146  -2.9809  -2.9143  -2.8837  -2.8303

          k = 0.2996 0.3460-0.3111 ( 30496 PWs)   bands (ev):

   -21.0825 -20.9315 -20.8440 -20.8052 -20.7371 -20.6745 -20.4924 -20.3950
   -20.3798 -20.3048 -20.2474 -20.1504  -8.8105  -8.8033  -8.7687  -8.7306
    -8.6714  -8.6455  -8.5320  -8.4923  -8.4634  -8.3239  -8.2871  -8.2541
    -6.6552  -6.3421  -6.1505  -5.9141  -5.8478  -5.3393  -4.9603  -4.8690
    -4.6983  -4.4308  -4.3009  -4.0294  -3.3925  -3.3462  -3.2933  -3.2454
    -3.1983  -3.1355  -3.0783  -3.0484  -2.9568  -2.9541  -2.8725  -2.7913

          k = 0.1498 0.2595 0.0000 ( 30481 PWs)   bands (ev):

   -21.1922 -20.8763 -20.8232 -20.7217 -20.6934 -20.6221 -20.5377 -20.4751
   -20.4361 -20.3129 -20.2848 -20.0622  -8.8418  -8.7958  -8.7876  -8.7461
    -8.6812  -8.6734  -8.4936  -8.4633  -8.4250  -8.3652  -8.3370  -8.2909
    -6.9176  -6.1237  -6.0232  -5.8240  -5.7880  -5.2365  -5.0645  -4.9468
    -4.9207  -4.4312  -4.3873  -3.7881  -3.3189  -3.3057  -3.2986  -3.2053
    -3.1614  -3.1358  -3.0532  -3.0366  -2.9589  -2.9361  -2.8387  -2.8191

          k = 0.2996-0.1730-1.2442 ( 30466 PWs)   bands (ev):

   -21.0743 -21.0295 -20.8349 -20.7703 -20.6888 -20.6472 -20.4777 -20.4667
   -20.3508 -20.3440 -20.1799 -20.1729  -8.8210  -8.7999  -8.7752  -8.7326
    -8.6745  -8.6744  -8.5609  -8.5046  -8.4473  -8.3376  -8.3323  -8.2786
    -6.5040  -6.4752  -6.1148  -5.9792  -5.7304  -5.3661  -4.8822  -4.8669
    -4.6894  -4.5550  -4.2041  -4.0376  -3.3309  -3.3066  -3.2838  -3.2401
    -3.1710  -3.1358  -3.0834  -3.0161  -3.0146  -2.9273  -2.8051  -2.8028

          k = 0.0000 0.0000 0.9332 ( 30546 PWs)   bands (ev):

   -20.9812 -20.9812 -20.8988 -20.8755 -20.6989 -20.6989 -20.4197 -20.4197
   -20.2976 -20.2784 -20.2474 -20.2474  -8.8032  -8.8032  -8.7761  -8.6909
    -8.6909  -8.6736  -8.5662  -8.4923  -8.4923  -8.2687  -8.2687  -8.2468
    -6.4134  -6.4134  -6.3733  -5.9891  -5.6447  -5.6447  -4.7298  -4.7298
    -4.6606  -4.3640  -4.3640  -4.2537  -3.3510  -3.3510  -3.2616  -3.2409
    -3.1664  -3.1664  -3.1251  -3.0140  -3.0140  -2.9176  -2.9176  -2.7678

          k = 0.4494 0.2595 0.0000 ( 30485 PWs)   bands (ev):

   -21.0991 -20.9427 -20.9282 -20.7720 -20.6420 -20.6286 -20.5107 -20.4934
   -20.3443 -20.2803 -20.2537 -20.1421  -8.8176  -8.7945  -8.7872  -8.7245
    -8.6995  -8.6454  -8.5694  -8.4990  -8.4635  -8.3338  -8.3214  -8.2824
    -6.6224  -6.2225  -6.1768  -6.0844  -5.6906  -5.3619  -4.9656  -4.8831
    -4.6069  -4.4480  -4.3444  -3.9982  -3.3187  -3.3094  -3.2927  -3.2337
    -3.1869  -3.1424  -3.0679  -3.0419  -2.9917  -2.9029  -2.8446  -2.7853

          k = 0.2996 0.1730 0.3111 ( 30501 PWs)   bands (ev):

   -21.1268 -20.8853 -20.8119 -20.7974 -20.7288 -20.6613 -20.5080 -20.4598
   -20.4145 -20.2918 -20.2516 -20.1073  -8.8159  -8.8022  -8.7705  -8.7256
    -8.6832  -8.6251  -8.5064  -8.4561  -8.4250  -8.3849  -8.3289  -8.2692
    -6.7713  -6.1965  -6.1638  -5.8727  -5.7619  -5.3291  -5.0679  -4.8982
    -4.8389  -4.3776  -4.3222  -3.8969  -3.4139  -3.3399  -3.3144  -3.2593
    -3.2259  -3.1164  -3.0913  -3.0167  -2.9310  -2.9299  -2.8584  -2.8315

          k = 0.4494-0.2595-0.9332 ( 30472 PWs)   bands (ev):

   -21.0078 -20.9942 -20.8712 -20.8268 -20.7160 -20.6331 -20.5430 -20.4479
   -20.3336 -20.2718 -20.2333 -20.1653  -8.8074  -8.7860  -8.7750  -8.7055
    -8.6693  -8.6176  -8.5314  -8.4895  -8.4522  -8.3914  -8.3248  -8.2852
    -6.4650  -6.3575  -6.2112  -5.9959  -5.7869  -5.3647  -5.1126  -4.8271
    -4.5892  -4.3777  -4.3362  -4.0041  -3.4207  -3.3618  -3.3335  -3.2762
    -3.2505  -3.1412  -3.0461  -3.0270  -2.9510  -2.9127  -2.8389  -2.8161

          k = 0.2996-0.3460-0.6221 ( 30538 PWs)   bands (ev):

   -20.9660 -20.9568 -20.8619 -20.8507 -20.7316 -20.7305 -20.4679 -20.4650
   -20.3160 -20.3094 -20.2013 -20.1945  -8.8088  -8.7612  -8.7448  -8.7242
    -8.7039  -8.5755  -8.5189  -8.4774  -8.4387  -8.3676  -8.2857  -8.2738
    -6.4657  -6.4320  -6.1519  -6.0989  -5.6270  -5.5901  -4.9545  -4.8873
    -4.5471  -4.5130  -4.2558  -4.0401  -3.4846  -3.3666  -3.3307  -3.3261
    -3.2689  -3.1450  -3.0451  -3.0310  -2.9800  -2.8915  -2.8766  -2.8187

          k = 0.0000 0.0000-1.8663 ( 30462 PWs)   bands (ev):

   -20.9287 -20.9059 -20.8326 -20.8326 -20.8325 -20.8325 -20.3869 -20.3869
   -20.3694 -20.3694 -20.1940 -20.1796  -8.8078  -8.7221  -8.7221  -8.7197
    -8.7197  -8.5666  -8.5080  -8.4887  -8.4196  -8.4196  -8.3169  -8.3169
    -6.4526  -6.3032  -5.9721  -5.9721  -5.8871  -5.8871  -4.7010  -4.7010
    -4.6827  -4.6827  -4.2048  -4.0176  -3.4864  -3.3703  -3.3703  -3.3598
    -3.3598  -3.0918  -3.0519  -2.9624  -2.9624  -2.9084  -2.9084  -2.7883

          k = 0.2996-0.3460 0.3111 ( 30496 PWs)   bands (ev):

   -21.0826 -20.9293 -20.8506 -20.8015 -20.7360 -20.6741 -20.4913 -20.4015
   -20.3783 -20.3017 -20.2461 -20.1516  -8.8151  -8.7920  -8.7767  -8.7163
    -8.6837  -8.6471  -8.5425  -8.4871  -8.4587  -8.3191  -8.2807  -8.2640
    -6.6576  -6.3123  -6.2121  -5.8928  -5.7905  -5.4016  -5.0558  -4.7376
    -4.6249  -4.4842  -4.3680  -3.9996  -3.4026  -3.3333  -3.2840  -3.2387
    -3.2091  -3.1389  -3.0855  -3.0606  -2.9666  -2.9241  -2.8735  -2.7964

     highest occupied level (ev):    -2.7678

!    total energy              =    -418.06261835 Ry
     estimated scf accuracy    <       0.00000008 Ry

     The total energy is the sum of the following terms:
     one-electron contribution =    -297.55602290 Ry
     hartree contribution      =     183.22998916 Ry
     xc contribution           =    -105.66483003 Ry
     ewald contribution        =    -198.07175459 Ry

     convergence has been achieved in  18 iterations

     Forces acting on atoms (cartesian axes, Ry/au):

     atom    1 type  2   force =    -0.00378592    0.01430244    0.00820318
     atom    2 type  2   force =     0.00378592   -0.01430244   -0.00820318
     atom    3 type  2   force =    -0.01049332   -0.01042993    0.00820318
     atom    4 type  2   force =     0.01049332    0.01042993   -0.00820318
     atom    5 type  2   force =     0.01427924   -0.00387252    0.00820318
     atom    6 type  2   force =    -0.01427924    0.00387252   -0.00820318
     atom    7 type  2   force =    -0.01040992    0.00797579   -0.00645914
     atom    8 type  2   force =     0.01040992   -0.00797579    0.00645914
     atom    9 type  2   force =    -0.00170228   -0.01300315   -0.00645914
     atom   10 type  2   force =     0.00170228    0.01300315    0.00645914
     atom   11 type  2   force =     0.01211220    0.00502736   -0.00645914
     atom   12 type  2   force =    -0.01211220   -0.00502736    0.00645914
     atom   13 type  1   force =     0.00690016   -0.01188672    0.00591233
     atom   14 type  1   force =    -0.00690016    0.01188672   -0.00591233
     atom   15 type  1   force =     0.00684412    0.01191907    0.00591233
     atom   16 type  1   force =    -0.00684412   -0.01191907   -0.00591233
     atom   17 type  1   force =    -0.01374428   -0.00003235    0.00591233
     atom   18 type  1   force =     0.01374428    0.00003235   -0.00591233
     atom   19 type  1   force =    -0.00290582   -0.00291450   -0.01449865
     atom   20 type  1   force =     0.00290582    0.00291450    0.01449865
     atom   21 type  1   force =     0.00397694   -0.00105927   -0.01449865
     atom   22 type  1   force =    -0.00397694    0.00105927    0.01449865
     atom   23 type  1   force =    -0.00107112    0.00397376   -0.01449865
     atom   24 type  1   force =     0.00107112   -0.00397376    0.01449865
     atom   25 type  1   force =    -0.00363874   -0.01506059   -0.00052964
     atom   26 type  1   force =     0.00363874    0.01506059    0.00052964
     atom   27 type  1   force =     0.01486222    0.00437906   -0.00052964
     atom   28 type  1   force =    -0.01486222   -0.00437906    0.00052964
     atom   29 type  1   force =    -0.01122349    0.01068153   -0.00052964
     atom   30 type  1   force =     0.01122349   -0.01068153    0.00052964
     atom   31 type  1   force =    -0.00949080    0.00962437    0.00854878
     atom   32 type  1   force =     0.00949080   -0.00962437   -0.00854878
     atom   33 type  1   force =    -0.00358955   -0.01303146    0.00854878
     atom   34 type  1   force =     0.00358955    0.01303146   -0.00854878
     atom   35 type  1   force =     0.01308035    0.00340709    0.00854878
     atom   36 type  1   force =    -0.01308035   -0.00340709   -0.00854878

     Total force =     0.093178     Total SCF correction =     0.000133


     Computing stress (Cartesian axis) and pressure

          total   stress  (Ry/bohr**3)                   (kbar)     P=      -21.68
  -0.00014906   0.00000000   0.00000000          -21.93        0.00        0.00
  -0.00000000  -0.00014906  -0.00000000           -0.00      -21.93       -0.00
  -0.00000000  -0.00000000  -0.00014411           -0.00       -0.00      -21.20


     Writing all to output data dir ./iceII/iceII.save/ :
     XML data file, charge density, pseudopotentials, collected wavefunctions

     init_run     :      2.55s CPU      2.67s WALL (       1 calls)
     electrons    :     16.62s CPU     17.47s WALL (       1 calls)
     forces       :      0.13s CPU      0.14s WALL (       1 calls)
     stress       :      1.09s CPU      1.12s WALL (       1 calls)

     Called by init_run:
     wfcinit      :      0.34s CPU      0.35s WALL (       1 calls)
     potinit      :      1.67s CPU      1.73s WALL (       1 calls)
     hinit0       :      0.39s CPU      0.40s WALL (       1 calls)

     Called by electrons:
     c_bands      :     11.92s CPU     12.08s WALL (      18 calls)
     sum_band     :      1.94s CPU      1.97s WALL (      18 calls)
     v_of_rho     :      4.20s CPU      4.86s WALL (      19 calls)
     newd         :      0.08s CPU      0.09s WALL (      19 calls)
     mix_rho      :      0.08s CPU      0.08s WALL (      18 calls)
     vdW_kernel   :      1.51s CPU      1.52s WALL (       1 calls)

     Called by c_bands:
     init_us_2    :      0.23s CPU      0.24s WALL (     156 calls)
     cegterg      :     11.51s CPU     11.64s WALL (      72 calls)

     Called by *egterg:
     cdiaghg      :      0.83s CPU      0.83s WALL (     228 calls)
     h_psi        :      9.05s CPU      9.15s WALL (     232 calls)
     s_psi        :      0.38s CPU      0.40s WALL (     232 calls)
     g_psi        :      0.02s CPU      0.02s WALL (     156 calls)

     Called by h_psi:
     h_psi:calbec :      0.66s CPU      0.66s WALL (     232 calls)
     vloc_psi     :      7.91s CPU      8.01s WALL (     232 calls)
     add_vuspsi   :      0.40s CPU      0.40s WALL (     232 calls)

     General routines
     calbec       :      0.91s CPU      0.92s WALL (     324 calls)
     fft          :      1.99s CPU      2.38s WALL (    1211 calls)
     ffts         :      0.03s CPU      0.03s WALL (      18 calls)
     fftw         :      8.41s CPU      8.50s WALL (   22886 calls)

     Parallel routines

     PWSCF        :     20.69s CPU     22.14s WALL


   This run was terminated on:  14:56:48  26Mar2026            

=------------------------------------------------------------------------------=
   JOB DONE.
=------------------------------------------------------------------------------=
