
     Program PWSCF v.7.3.1 starts on 26Mar2026 at 14:56:56 

     This program is part of the open-source Quantum ESPRESSO suite
     for quantum simulation of materials; please cite
         "P. Giannozzi et al., J. Phys.:Condens. Matter 21 395502 (2009);
         "P. Giannozzi et al., J. Phys.:Condens. Matter 29 465901 (2017);
         "P. Giannozzi et al., J. Chem. Phys. 152 154105 (2020);
          URL http://www.quantum-espresso.org", 
     in publications or presentations arising from this work. More details at
     http://www.quantum-espresso.org/quote

     Parallel version (MPI), running on   128 processors

     MPI processes distributed on     1 nodes
     242859 MiB available memory on the printing compute node when the environment starts

     Waiting for input...
     Reading input from standard input

     Current dimensions of program PWSCF are:
     Max number of different atomic species (ntypx) = 10
     Max number of k-points (npk) =  40000
     Max angular momentum in pseudopotentials (lmaxx) =  4

     IMPORTANT: XC functional enforced from input :
     Exchange-correlation= VDW-DF2
                           (   1   4  13   0   2   0   0)
     Any further DFT definition will be discarded
     Please, verify this is what you really want


     K-points division:     npool     =       4
     R & G space division:  proc/nbgrp/npool/nimage =      32
     Subspace diagonalization in iterative solution of the eigenvalue problem:
     a serial algorithm will be used


     Parallelization info
     --------------------
     sticks:   dense  smooth     PW     G-vecs:    dense   smooth      PW
     Min         181     181     53                 7664     7664    1217
     Max         182     182     54                 7667     7667    1220
     Sum        5823    5823   1715               245317   245317   38983

     Using Slab Decomposition



     bravais-lattice index     =            5
     lattice parameter (alat)  =      14.8785  a.u.
     unit-cell volume          =    2127.9883 (a.u.)^3
     number of atoms/cell      =           36
     number of atomic types    =            2
     number of electrons       =        96.00
     number of Kohn-Sham states=           48
     kinetic-energy cutoff     =      90.0000  Ry
     charge density cutoff     =     360.0000  Ry
     scf convergence threshold =      1.0E-07
     mixing beta               =       0.7000
     number of iterations used =            8  plain     mixing
     Exchange-correlation= VDW-DF2
                           (   1   4  13   0   2   0   0)

     celldm(1)=  14.878493  celldm(2)=   0.000000  celldm(3)=   0.000000
     celldm(4)=  -0.392337  celldm(5)=   0.000000  celldm(6)=   0.000000

     crystal axes: (cart. coord. in units of alat)
               a(1) = (   0.834367  -0.481722   0.267909 )  
               a(2) = (   0.000000   0.963444   0.267909 )  
               a(3) = (  -0.834367  -0.481722   0.267909 )  

     reciprocal axes: (cart. coord. in units 2 pi/alat)
               b(1) = (  0.599257 -0.345981  1.244203 )  
               b(2) = (  0.000000  0.691962  1.244203 )  
               b(3) = ( -0.599257 -0.345981  1.244203 )  


     PseudoPot. # 1 for H  read from file:
     ./H.pbe-van_ak.UPF
     MD5 check sum: 077eb6d537518a38cb46c6de387227b7
     Pseudo is Ultrasoft, Zval =  1.0
     Generated by new atomic code, or converted to UPF format
     Using radial grid of  615 points,  1 beta functions with: 
                l(1) =   0
     Q(r) pseudized with  8 coefficients,  rinner =    0.800

     PseudoPot. # 2 for O  read from file:
     ./O.pbe-van_ak.UPF
     MD5 check sum: 78c19812648e8988a0fe644b0f25305e
     Pseudo is Ultrasoft, Zval =  6.0
     Generated by new atomic code, or converted to UPF format
     Using radial grid of  737 points,  4 beta functions with: 
                l(1) =   0
                l(2) =   0
                l(3) =   1
                l(4) =   1
     Q(r) pseudized with  8 coefficients,  rinner =    0.800   0.800   0.800


     atomic species   valence    mass     pseudopotential
     H                 1.00     1.00800     H ( 1.00)
     O                 6.00    16.00000     O ( 1.00)

      6 Sym. Ops., with inversion, found



   Cartesian axes

     site n.     atom                  positions (alat units)
         1        O      tau(   1) = (  -0.4881587  -0.5153728   0.3102004  )
         2        O      tau(   2) = (   0.4881587   0.5153729   0.4935268  )
         3        O      tau(   3) = (   0.6904053  -0.1650714   0.3102004  )
         4        O      tau(   4) = (  -0.6904053   0.1650714   0.4935268  )
         5        O      tau(   5) = (  -0.2022466   0.6804442   0.3102004  )
         6        O      tau(   6) = (   0.2022466  -0.6804442   0.4935268  )
         7        O      tau(   7) = (   0.1208629   0.3351200   0.4137471  )
         8        O      tau(   8) = (  -0.1208629  -0.3351200   0.3899800  )
         9        O      tau(   9) = (  -0.3506539  -0.0628897   0.4137471  )
        10        O      tau(  10) = (   0.3506539   0.0628897   0.3899800  )
        11        O      tau(  11) = (   0.2297910  -0.2722304   0.4137471  )
        12        O      tau(  12) = (  -0.2297910   0.2722304   0.3899800  )
        13        H      tau(  13) = (  -0.5430428  -0.4102686   0.2622098  )
        14        H      tau(  14) = (   0.5430428   0.4102686   0.5415173  )
        15        H      tau(  15) = (   0.6268245  -0.2651546   0.2622098  )
        16        H      tau(  16) = (  -0.6268245   0.2651546   0.5415173  )
        17        H      tau(  17) = (  -0.0837816   0.6754232   0.2622098  )
        18        H      tau(  18) = (   0.0837817  -0.6754232   0.5415173  )
        19        H      tau(  19) = (  -0.4681736  -0.4859583   0.4327384  )
        20        H      tau(  20) = (   0.4681736   0.4859583   0.3709887  )
        21        H      tau(  21) = (   0.6549390  -0.1624711   0.4327384  )
        22        H      tau(  22) = (  -0.6549390   0.1624711   0.3709887  )
        23        H      tau(  23) = (  -0.1867654   0.6484294   0.4327384  )
        24        H      tau(  24) = (   0.1867654  -0.6484294   0.3709887  )
        25        H      tau(  25) = (   0.2718867  -0.1516220   0.4118766  )
        26        H      tau(  26) = (  -0.2718867   0.1516219   0.3918506  )
        27        H      tau(  27) = (  -0.0046349   0.3112717   0.4118766  )
        28        H      tau(  28) = (   0.0046349  -0.3112717   0.3918506  )
        29        H      tau(  29) = (  -0.2672518  -0.1596498   0.4118766  )
        30        H      tau(  30) = (   0.2672518   0.1596498   0.3918506  )
        31        H      tau(  31) = (   0.3136186  -0.3416266   0.3473301  )
        32        H      tau(  32) = (  -0.3136186   0.3416266   0.4563970  )
        33        H      tau(  33) = (   0.1390481   0.4424150   0.3473301  )
        34        H      tau(  34) = (  -0.1390480  -0.4424150   0.4563970  )
        35        H      tau(  35) = (  -0.4526667  -0.1007884   0.3473301  )
        36        H      tau(  36) = (   0.4526666   0.1007884   0.4563970  )

     number of k points=    14
                       cart. coord. in units 2pi/alat
        k(    1) = (   0.0000000   0.0000000   0.0000000), wk =   0.0312500
        k(    2) = (  -0.1498141  -0.0864952   0.3110508), wk =   0.1875000
        k(    3) = (   0.2996283   0.1729905  -0.6221017), wk =   0.0937500
        k(    4) = (  -0.1498141   0.0864952   0.6221017), wk =   0.1875000
        k(    5) = (   0.2996283   0.3459809  -0.3110508), wk =   0.1875000
        k(    6) = (   0.1498141   0.2594857   0.0000000), wk =   0.1875000
        k(    7) = (   0.2996283  -0.1729905  -1.2442034), wk =   0.0937500
        k(    8) = (   0.0000000   0.0000000   0.9331525), wk =   0.0625000
        k(    9) = (   0.4494424   0.2594857   0.0000000), wk =   0.1875000
        k(   10) = (   0.2996283   0.1729905   0.3110508), wk =   0.1875000
        k(   11) = (   0.4494424  -0.2594857  -0.9331525), wk =   0.1875000
        k(   12) = (   0.2996283  -0.3459809  -0.6221017), wk =   0.1875000
        k(   13) = (   0.0000000   0.0000000  -1.8663050), wk =   0.0312500
        k(   14) = (   0.2996283  -0.3459809   0.3110508), wk =   0.1875000

     Dense  grid:   245317 G-vectors     FFT dimensions: (  90,  90,  90)

     Estimated max dynamical RAM per process >      15.94 MB

     Estimated total dynamical RAM >       1.82 GB

     Initial potential from superposition of free atoms

     starting charge      95.9998, renormalised to      96.0000


     %%%%%%%%%%%%%%%%%%%%%%%%%%%%%%%%%%%%%%%%%%%%%%%%%%%%%%%%%%%%%%%%%%%%%%%%
     %                                                                      %
     % You are using vdW-DF, which was implemented by the Thonhauser group. %
     % Please cite the following two papers that made this development      %
     % possible and the two reviews that describe the various versions:     %
     %                                                                      %
     %   T. Thonhauser et al., PRL 115, 136402 (2015).                      %
     %   T. Thonhauser et al., PRB 76, 125112 (2007).                       %
     %   K. Berland et al., Rep. Prog. Phys. 78, 066501 (2015).             %
     %   D.C. Langreth et al., J. Phys.: Condens. Matter 21, 084203 (2009). %
     %                                                                      %
     % If you are calculating stress with vdW-DF, please also cite:         %
     %                                                                      %
     %   R. Sabatini et al., J. Phys.: Condens. Matter 24, 424209 (2012).   %
     %                                                                      %
     %%%%%%%%%%%%%%%%%%%%%%%%%%%%%%%%%%%%%%%%%%%%%%%%%%%%%%%%%%%%%%%%%%%%%%%%

     %%%%%%%%%%%%%%%%%%%%%%%%%%%%%%%%%%%%%%%%%%%%%%%%%%%%%%%%%%%%%%%%%%%%%%%%
     %                                                                      %
     %  vdW-DF NEWS:                                                        %
     %                                                                      %
     %  * vdW-DF3 is now available. DOI: 10.1021/acs.jctc.0c00471           %
     %    use with input_dft = 'vdW-DF3-opt1' or 'vdW-DF3-opt2'             %
     %                                                                      %
     %  * Unscreened and range-separated hybrid vdW-DF-cx functionals       %
     %    DOI: 10.1063/1.4986522 and 10.1088/1361-648X/ac2ad2               %
     %    use with input_dft = 'vdW-DF-cx0'    and 'vdW-DF-ahcx'            %
     %  * Unscreened and range-separated hybrid vdW-DF2-b86r functionals    %
     %    DOI: 10.1063/1.4986522 and DOI: 10.1103/PhysRevX.12.041003        %
     %    use with input_dft = 'vdW-DF2-br0' and 'vdW-DF2-ahbr'             %
     %                                                                      %
     %%%%%%%%%%%%%%%%%%%%%%%%%%%%%%%%%%%%%%%%%%%%%%%%%%%%%%%%%%%%%%%%%%%%%%%%


     Starting wfcs are   72 randomized atomic wfcs

     total cpu time spent up to now is        2.9 secs

     per-process dynamical memory:    19.9 Mb

     Self-consistent Calculation

     iteration #  1     ecut=    90.00 Ry     beta= 0.70
     Davidson diagonalization with overlap
     ethr =  1.00E-02,  avg # of iterations =  2.0

     total cpu time spent up to now is        3.9 secs

     total energy              =    -415.94295609 Ry
     estimated scf accuracy    <       4.69924354 Ry

     iteration #  2     ecut=    90.00 Ry     beta= 0.70
     Davidson diagonalization with overlap
     ethr =  4.90E-03,  avg # of iterations =  3.0

     total cpu time spent up to now is        5.2 secs

     total energy              =    -417.47956446 Ry
     estimated scf accuracy    <       3.48772947 Ry

     iteration #  3     ecut=    90.00 Ry     beta= 0.70
     Davidson diagonalization with overlap
     ethr =  3.63E-03,  avg # of iterations =  2.0

     total cpu time spent up to now is        6.1 secs

     total energy              =    -417.93323284 Ry
     estimated scf accuracy    <       0.15371580 Ry

     iteration #  4     ecut=    90.00 Ry     beta= 0.70
     Davidson diagonalization with overlap
     ethr =  1.60E-04,  avg # of iterations =  4.0

     total cpu time spent up to now is        7.5 secs

     total energy              =    -418.05139409 Ry
     estimated scf accuracy    <       0.18967452 Ry

     iteration #  5     ecut=    90.00 Ry     beta= 0.70
     Davidson diagonalization with overlap
     ethr =  1.60E-04,  avg # of iterations =  2.0

     total cpu time spent up to now is        8.3 secs

     total energy              =    -418.05624738 Ry
     estimated scf accuracy    <       0.02817816 Ry

     iteration #  6     ecut=    90.00 Ry     beta= 0.70
     Davidson diagonalization with overlap
     ethr =  2.94E-05,  avg # of iterations =  2.0

     total cpu time spent up to now is        9.3 secs

     total energy              =    -418.05892576 Ry
     estimated scf accuracy    <       0.00380115 Ry

     iteration #  7     ecut=    90.00 Ry     beta= 0.70
     Davidson diagonalization with overlap
     ethr =  3.96E-06,  avg # of iterations =  3.0

     total cpu time spent up to now is       10.4 secs

     total energy              =    -418.06195717 Ry
     estimated scf accuracy    <       0.00087374 Ry

     iteration #  8     ecut=    90.00 Ry     beta= 0.70
     Davidson diagonalization with overlap
     ethr =  9.10E-07,  avg # of iterations =  3.0

     total cpu time spent up to now is       11.6 secs

     total energy              =    -418.06048457 Ry
     estimated scf accuracy    <       0.00492701 Ry

     iteration #  9     ecut=    90.00 Ry     beta= 0.70
     Davidson diagonalization with overlap
     ethr =  9.10E-07,  avg # of iterations =  3.0

     total cpu time spent up to now is       12.7 secs

     total energy              =    -418.06090618 Ry
     estimated scf accuracy    <       0.00048697 Ry

     iteration # 10     ecut=    90.00 Ry     beta= 0.70
     Davidson diagonalization with overlap
     ethr =  5.07E-07,  avg # of iterations =  1.0

     total cpu time spent up to now is       13.5 secs

     total energy              =    -418.06085767 Ry
     estimated scf accuracy    <       0.00032196 Ry

     iteration # 11     ecut=    90.00 Ry     beta= 0.70
     Davidson diagonalization with overlap
     ethr =  3.35E-07,  avg # of iterations =  1.3

     total cpu time spent up to now is       14.3 secs

     total energy              =    -418.06084825 Ry
     estimated scf accuracy    <       0.00011595 Ry

     iteration # 12     ecut=    90.00 Ry     beta= 0.70
     Davidson diagonalization with overlap
     ethr =  1.21E-07,  avg # of iterations =  2.0

     total cpu time spent up to now is       15.2 secs

     total energy              =    -418.06086889 Ry
     estimated scf accuracy    <       0.00000945 Ry

     iteration # 13     ecut=    90.00 Ry     beta= 0.70
     Davidson diagonalization with overlap
     ethr =  9.85E-09,  avg # of iterations =  2.9

     total cpu time spent up to now is       16.3 secs

     total energy              =    -418.06087226 Ry
     estimated scf accuracy    <       0.00000043 Ry

     iteration # 14     ecut=    90.00 Ry     beta= 0.70
     Davidson diagonalization with overlap
     ethr =  4.44E-10,  avg # of iterations =  3.1

     total cpu time spent up to now is       17.2 secs

     total energy              =    -418.06087228 Ry
     estimated scf accuracy    <       0.00000039 Ry

     iteration # 15     ecut=    90.00 Ry     beta= 0.70
     Davidson diagonalization with overlap
     ethr =  4.01E-10,  avg # of iterations =  1.0

     total cpu time spent up to now is       18.0 secs

     total energy              =    -418.06087226 Ry
     estimated scf accuracy    <       0.00000015 Ry

     iteration # 16     ecut=    90.00 Ry     beta= 0.70
     Davidson diagonalization with overlap
     ethr =  1.56E-10,  avg # of iterations =  2.0

     total cpu time spent up to now is       19.0 secs

     End of self-consistent calculation

          k = 0.0000 0.0000 0.0000 ( 30703 PWs)   bands (ev):

   -21.2434 -20.8126 -20.8126 -20.6275 -20.6275 -20.5875 -20.5871 -20.5867
   -20.5867 -20.3166 -20.3166 -20.0328  -8.8652  -8.7954  -8.7954  -8.7722
    -8.6906  -8.6906  -8.4214  -8.4214  -8.4156  -8.3696  -8.3636  -8.3636
    -7.1030  -6.0847  -6.0847  -5.5058  -5.5058  -5.3451  -5.3451  -5.1853
    -5.0726  -4.4237  -4.4237  -3.7199  -3.3389  -3.3389  -3.3079  -3.1796
    -3.1796  -3.1457  -3.0472  -3.0472  -3.0056  -2.9351  -2.8871  -2.8871

          k =-0.1498-0.0865 0.3111 ( 30706 PWs)   bands (ev):

   -21.1758 -20.8514 -20.8041 -20.7527 -20.7192 -20.6567 -20.5444 -20.5035
   -20.4473 -20.3208 -20.2831 -20.0854  -8.8318  -8.8075  -8.7886  -8.7545
    -8.6843  -8.6569  -8.4763  -8.4519  -8.4403  -8.3587  -8.3027  -8.2995
    -6.9435  -6.2459  -6.1157  -5.8106  -5.5835  -5.3535  -5.1928  -5.0630
    -4.9067  -4.4166  -4.3598  -3.8633  -3.4157  -3.3517  -3.3222  -3.2432
    -3.2264  -3.1755  -3.0820  -3.0361  -2.9750  -2.9612  -2.9045  -2.8803

          k = 0.2996 0.1730-0.6221 ( 30702 PWs)   bands (ev):

   -21.0030 -20.9974 -20.8338 -20.8200 -20.7166 -20.7147 -20.4952 -20.4944
   -20.3309 -20.3187 -20.2143 -20.2120  -8.8138  -8.7988  -8.7577  -8.7540
    -8.6850  -8.6356  -8.4954  -8.4804  -8.4535  -8.3460  -8.2639  -8.2530
    -6.6170  -6.5134  -6.1093  -6.1012  -5.5688  -5.5070  -5.0722  -4.9862
    -4.5529  -4.4905  -4.3270  -4.0913  -3.4868  -3.3745  -3.3101  -3.2987
    -3.2441  -3.2086  -3.1297  -3.0398  -3.0204  -2.9407  -2.8888  -2.8718

          k =-0.1498 0.0865 0.6221 ( 30693 PWs)   bands (ev):

   -21.0405 -20.9111 -20.8969 -20.7864 -20.7631 -20.7035 -20.5032 -20.4297
   -20.3887 -20.2814 -20.2663 -20.1802  -8.8129  -8.7949  -8.7687  -8.7556
    -8.6795  -8.6245  -8.4941  -8.4860  -8.4702  -8.3144  -8.2814  -8.2552
    -6.6595  -6.3766  -6.3285  -5.8892  -5.6925  -5.5181  -5.0664  -4.8429
    -4.7265  -4.4004  -4.3325  -4.1109  -3.4712  -3.4013  -3.3043  -3.2807
    -3.2335  -3.2172  -3.1397  -3.0408  -3.0073  -2.9412  -2.9111  -2.8580

          k = 0.2996 0.3460-0.3111 ( 30683 PWs)   bands (ev):

   -21.0850 -20.9358 -20.8496 -20.8109 -20.7439 -20.6818 -20.5018 -20.4054
   -20.3903 -20.3163 -20.2594 -20.1636  -8.8175  -8.8105  -8.7759  -8.7383
    -8.6796  -8.6538  -8.5404  -8.5012  -8.4725  -8.3345  -8.2980  -8.2654
    -6.6703  -6.3590  -6.1691  -5.9338  -5.8682  -5.3627  -4.9853  -4.8942
    -4.7247  -4.4579  -4.3296  -4.0589  -3.4156  -3.3694  -3.3172  -3.2697
    -3.2230  -3.1609  -3.1038  -3.0745  -2.9835  -2.9808  -2.9000  -2.8195

          k = 0.1498 0.2595 0.0000 ( 30681 PWs)   bands (ev):

   -21.1935 -20.8813 -20.8289 -20.7286 -20.7005 -20.6299 -20.5466 -20.4846
   -20.4460 -20.3243 -20.2965 -20.0764  -8.8486  -8.8027  -8.7945  -8.7535
    -8.6893  -8.6816  -8.5023  -8.4725  -8.4344  -8.3753  -8.3475  -8.3018
    -6.9310  -6.1419  -6.0425  -5.8443  -5.8086  -5.2603  -5.0895  -4.9719
    -4.9458  -4.4589  -4.4151  -3.8187  -3.3426  -3.3295  -3.3225  -3.2298
    -3.1864  -3.1612  -3.0790  -3.0624  -2.9859  -2.9631  -2.8665  -2.8472

          k = 0.2996-0.1730-1.2442 ( 30636 PWs)   bands (ev):

   -21.0768 -21.0327 -20.8403 -20.7768 -20.6959 -20.6550 -20.4872 -20.4765
   -20.3617 -20.3549 -20.1928 -20.1858  -8.8279  -8.8072  -8.7824  -8.7403
    -8.6823  -8.6821  -8.5688  -8.5134  -8.4565  -8.3482  -8.3427  -8.2896
    -6.5204  -6.4915  -6.1335  -5.9987  -5.7509  -5.3892  -4.9079  -4.8928
    -4.7158  -4.5817  -4.2326  -4.0676  -3.3544  -3.3303  -3.3081  -3.2641
    -3.1956  -3.1611  -3.1091  -3.0422  -3.0413  -2.9542  -2.8333  -2.8309

          k = 0.0000 0.0000 0.9332 ( 30705 PWs)   bands (ev):

   -20.9848 -20.9848 -20.9034 -20.8807 -20.7061 -20.7061 -20.4299 -20.4299
   -20.3090 -20.2902 -20.2594 -20.2594  -8.8103  -8.8103  -8.7832  -8.6989
    -8.6989  -8.6815  -8.5743  -8.5011  -8.5011  -8.2799  -8.2799  -8.2583
    -6.4301  -6.4301  -6.3897  -6.0094  -5.6660  -5.6660  -4.7559  -4.7559
    -4.6862  -4.3922  -4.3922  -4.2821  -3.3744  -3.3744  -3.2858  -3.2653
    -3.1914  -3.1914  -3.1507  -3.0401  -3.0401  -2.9446  -2.9446  -2.7962

          k = 0.4494 0.2595 0.0000 ( 30650 PWs)   bands (ev):

   -21.1014 -20.9468 -20.9326 -20.7785 -20.6498 -20.6365 -20.5199 -20.5027
   -20.3553 -20.2920 -20.2657 -20.1554  -8.8246  -8.8016  -8.7944  -8.7322
    -8.7072  -8.6534  -8.5774  -8.5077  -8.4724  -8.3443  -8.3320  -8.2935
    -6.6379  -6.2402  -6.1952  -6.1036  -5.7114  -5.3847  -4.9910  -4.9088
    -4.6335  -4.4757  -4.3722  -4.0282  -3.3423  -3.3331  -3.3167  -3.2577
    -3.2117  -3.1676  -3.0936  -3.0678  -3.0185  -2.9300  -2.8723  -2.8136

          k = 0.2996 0.1730 0.3111 ( 30685 PWs)   bands (ev):

   -21.1288 -20.8903 -20.8180 -20.8031 -20.7354 -20.6687 -20.5172 -20.4694
   -20.4247 -20.3034 -20.2637 -20.1210  -8.8229  -8.8092  -8.7777  -8.7332
    -8.6915  -8.6335  -8.5152  -8.4653  -8.4346  -8.3950  -8.3392  -8.2803
    -6.7858  -6.2146  -6.1820  -5.8924  -5.7827  -5.3527  -5.0922  -4.9239
    -4.8645  -4.4053  -4.3504  -3.9272  -3.4368  -3.3632  -3.3379  -3.2834
    -3.2503  -3.1419  -3.1168  -3.0429  -2.9579  -2.9568  -2.8861  -2.8593

          k = 0.4494-0.2595-0.9332 ( 30665 PWs)   bands (ev):

   -21.0111 -20.9980 -20.8762 -20.8327 -20.7228 -20.6408 -20.5518 -20.4577
   -20.3447 -20.2836 -20.2456 -20.1783  -8.8145  -8.7933  -8.7824  -8.7134
    -8.6775  -8.6257  -8.5400  -8.4984  -8.4614  -8.4014  -8.3351  -8.2962
    -6.4815  -6.3747  -6.2294  -6.0154  -5.8073  -5.3875  -5.1373  -4.8530
    -4.6162  -4.4053  -4.3643  -4.0340  -3.4437  -3.3849  -3.3570  -3.3001
    -3.2746  -3.1661  -3.0721  -3.0531  -2.9778  -2.9398  -2.8667  -2.8441

          k = 0.2996-0.3460-0.6221 ( 30696 PWs)   bands (ev):

   -20.9698 -20.9610 -20.8671 -20.8562 -20.7381 -20.7371 -20.4774 -20.4746
   -20.3273 -20.3208 -20.2140 -20.2071  -8.8159  -8.7684  -8.7523  -8.7321
    -8.7121  -8.5846  -8.5277  -8.4860  -8.4483  -8.3778  -8.2966  -8.2848
    -6.4821  -6.4487  -6.1701  -6.1177  -5.6485  -5.6120  -4.9797  -4.9132
    -4.5741  -4.5400  -4.2842  -4.0694  -3.5070  -3.3895  -3.3540  -3.3495
    -3.2933  -3.1698  -3.0709  -3.0571  -3.0064  -2.9186  -2.9039  -2.8468

          k = 0.0000 0.0000-1.8663 ( 30600 PWs)   bands (ev):

   -20.9332 -20.9111 -20.8380 -20.8380 -20.8378 -20.8378 -20.3973 -20.3973
   -20.3802 -20.3802 -20.2068 -20.1924  -8.8149  -8.7301  -8.7301  -8.7274
    -8.7274  -8.5752  -8.5173  -8.4970  -8.4294  -8.4294  -8.3272  -8.3272
    -6.4692  -6.3208  -5.9914  -5.9914  -5.9073  -5.9073  -4.7280  -4.7280
    -4.7091  -4.7091  -4.2331  -4.0468  -3.5094  -3.3932  -3.3932  -3.3828
    -3.3828  -3.1169  -3.0776  -2.9889  -2.9889  -2.9355  -2.9355  -2.8168

          k = 0.2996-0.3460 0.3111 ( 30683 PWs)   bands (ev):

   -21.0851 -20.9337 -20.8559 -20.8073 -20.7428 -20.6814 -20.5007 -20.4117
   -20.3890 -20.3131 -20.2582 -20.1648  -8.8221  -8.7990  -8.7839  -8.7242
    -8.6917  -8.6553  -8.5508  -8.4961  -8.4678  -8.3299  -8.2916  -8.2752
    -6.6727  -6.3298  -6.2299  -5.9127  -5.8114  -5.4244  -5.0801  -4.7642
    -4.6514  -4.5117  -4.3953  -4.0296  -3.4255  -3.3567  -3.3080  -3.2630
    -3.2337  -3.1642  -3.1111  -3.0866  -2.9931  -2.9511  -2.9009  -2.8245

     highest occupied level (ev):    -2.7962

!    total energy              =    -418.06087227 Ry
     estimated scf accuracy    <       0.00000005 Ry

     The total energy is the sum of the following terms:
     one-electron contribution =    -298.25469418 Ry
     hartree contribution      =     183.48658970 Ry
     xc contribution           =    -105.61245935 Ry
     ewald contribution        =    -197.68030843 Ry

     convergence has been achieved in  16 iterations

     Forces acting on atoms (cartesian axes, Ry/au):

     atom    1 type  2   force =    -0.00452756    0.01697559    0.00983867
     atom    2 type  2   force =     0.00452756   -0.01697559   -0.00983867
     atom    3 type  2   force =    -0.01243751   -0.01240877    0.00983867
     atom    4 type  2   force =     0.01243751    0.01240877   -0.00983867
     atom    5 type  2   force =     0.01696507   -0.00456681    0.00983867
     atom    6 type  2   force =    -0.01696507    0.00456681   -0.00983867
     atom    7 type  2   force =    -0.01252598    0.00970432   -0.00784541
     atom    8 type  2   force =     0.01252598   -0.00970432    0.00784541
     atom    9 type  2   force =    -0.00214120   -0.01569997   -0.00784541
     atom   10 type  2   force =     0.00214120    0.01569997    0.00784541
     atom   11 type  2   force =     0.01466717    0.00599565   -0.00784541
     atom   12 type  2   force =    -0.01466717   -0.00599565    0.00784541
     atom   13 type  1   force =     0.00811799   -0.01413777    0.00717817
     atom   14 type  1   force =    -0.00811799    0.01413777   -0.00717817
     atom   15 type  1   force =     0.00818467    0.01409927    0.00717817
     atom   16 type  1   force =    -0.00818467   -0.01409927   -0.00717817
     atom   17 type  1   force =    -0.01630267    0.00003850    0.00717817
     atom   18 type  1   force =     0.01630267   -0.00003850   -0.00717817
     atom   19 type  1   force =    -0.00345072   -0.00340163   -0.01728906
     atom   20 type  1   force =     0.00345072    0.00340163    0.01728906
     atom   21 type  1   force =     0.00467126   -0.00128760   -0.01728906
     atom   22 type  1   force =    -0.00467126    0.00128760    0.01728906
     atom   23 type  1   force =    -0.00122054    0.00468923   -0.01728906
     atom   24 type  1   force =     0.00122054   -0.00468923    0.01728906
     atom   25 type  1   force =    -0.00441655   -0.01781850   -0.00058764
     atom   26 type  1   force =     0.00441655    0.01781850    0.00058764
     atom   27 type  1   force =     0.01763955    0.00508441   -0.00058764
     atom   28 type  1   force =    -0.01763955   -0.00508441    0.00058764
     atom   29 type  1   force =    -0.01322300    0.01273409   -0.00058764
     atom   30 type  1   force =     0.01322300   -0.01273409    0.00058764
     atom   31 type  1   force =    -0.01131777    0.01132964    0.01005954
     atom   32 type  1   force =     0.01131777   -0.01132964   -0.01005954
     atom   33 type  1   force =    -0.00415287   -0.01546629    0.01005954
     atom   34 type  1   force =     0.00415287    0.01546629   -0.01005954
     atom   35 type  1   force =     0.01547064    0.00413666    0.01005954
     atom   36 type  1   force =    -0.01547064   -0.00413666   -0.01005954

     Total force =     0.110981     Total SCF correction =     0.000141


     Computing stress (Cartesian axis) and pressure

          total   stress  (Ry/bohr**3)                   (kbar)     P=      -25.94
  -0.00017814  -0.00000000  -0.00000000          -26.20       -0.00       -0.00
   0.00000000  -0.00017814  -0.00000000            0.00      -26.20       -0.00
  -0.00000000  -0.00000000  -0.00017265           -0.00       -0.00      -25.40


     Writing all to output data dir ./iceII/iceII.save/ :
     XML data file, charge density, pseudopotentials, collected wavefunctions

     init_run     :      2.59s CPU      2.69s WALL (       1 calls)
     electrons    :     15.39s CPU     16.09s WALL (       1 calls)
     forces       :      0.14s CPU      0.15s WALL (       1 calls)
     stress       :      1.09s CPU      1.12s WALL (       1 calls)

     Called by init_run:
     wfcinit      :      0.38s CPU      0.38s WALL (       1 calls)
     potinit      :      1.65s CPU      1.73s WALL (       1 calls)
     hinit0       :      0.39s CPU      0.40s WALL (       1 calls)

     Called by electrons:
     c_bands      :     11.17s CPU     11.28s WALL (      16 calls)
     sum_band     :      1.74s CPU      1.76s WALL (      16 calls)
     v_of_rho     :      3.94s CPU      4.53s WALL (      17 calls)
     newd         :      0.06s CPU      0.07s WALL (      17 calls)
     mix_rho      :      0.07s CPU      0.07s WALL (      16 calls)
     vdW_kernel   :      1.51s CPU      1.52s WALL (       1 calls)

     Called by c_bands:
     init_us_2    :      0.21s CPU      0.22s WALL (     140 calls)
     cegterg      :     10.80s CPU     10.88s WALL (      64 calls)

     Called by *egterg:
     cdiaghg      :      0.80s CPU      0.80s WALL (     212 calls)
     h_psi        :      8.49s CPU      8.56s WALL (     216 calls)
     s_psi        :      0.36s CPU      0.37s WALL (     216 calls)
     g_psi        :      0.02s CPU      0.02s WALL (     148 calls)

     Called by h_psi:
     h_psi:calbec :      0.62s CPU      0.62s WALL (     216 calls)
     vloc_psi     :      7.43s CPU      7.50s WALL (     216 calls)
     add_vuspsi   :      0.37s CPU      0.37s WALL (     216 calls)

     General routines
     calbec       :      0.86s CPU      0.86s WALL (     300 calls)
     fft          :      1.85s CPU      2.18s WALL (    1089 calls)
     ffts         :      0.03s CPU      0.03s WALL (      16 calls)
     fftw         :      7.84s CPU      7.90s WALL (   21132 calls)

     Parallel routines

     PWSCF        :     19.55s CPU     20.77s WALL


   This run was terminated on:  14:57:16  26Mar2026            

=------------------------------------------------------------------------------=
   JOB DONE.
=------------------------------------------------------------------------------=
