
     Program PWSCF v.7.3.1 starts on  1Apr2026 at 14:51:58 

     This program is part of the open-source Quantum ESPRESSO suite
     for quantum simulation of materials; please cite
         "P. Giannozzi et al., J. Phys.:Condens. Matter 21 395502 (2009);
         "P. Giannozzi et al., J. Phys.:Condens. Matter 29 465901 (2017);
         "P. Giannozzi et al., J. Chem. Phys. 152 154105 (2020);
          URL http://www.quantum-espresso.org", 
     in publications or presentations arising from this work. More details at
     http://www.quantum-espresso.org/quote

     Parallel version (MPI), running on   128 processors

     MPI processes distributed on     1 nodes
     242523 MiB available memory on the printing compute node when the environment starts

     Waiting for input...
     Reading input from standard input

     Current dimensions of program PWSCF are:
     Max number of different atomic species (ntypx) = 10
     Max number of k-points (npk) =  40000
     Max angular momentum in pseudopotentials (lmaxx) =  4

     IMPORTANT: XC functional enforced from input :
     Exchange-correlation= VDW-DF2
                           (   1   4  13   0   2   0   0)
     Any further DFT definition will be discarded
     Please, verify this is what you really want


     K-points division:     npool     =       4
     R & G space division:  proc/nbgrp/npool/nimage =      32
     Subspace diagonalization in iterative solution of the eigenvalue problem:
     a serial algorithm will be used


     Parallelization info
     --------------------
     sticks:   dense  smooth     PW     G-vecs:    dense   smooth      PW
     Min         181     181     53                 7664     7664    1217
     Max         182     182     54                 7667     7667    1220
     Sum        5823    5823   1715               245317   245317   38983

     Using Slab Decomposition



     bravais-lattice index     =            5
     lattice parameter (alat)  =      14.8785  a.u.
     unit-cell volume          =    2127.9883 (a.u.)^3
     number of atoms/cell      =           36
     number of atomic types    =            2
     number of electrons       =        96.00
     number of Kohn-Sham states=           48
     kinetic-energy cutoff     =      90.0000  Ry
     charge density cutoff     =     360.0000  Ry
     scf convergence threshold =      1.0E-07
     mixing beta               =       0.7000
     number of iterations used =            8  plain     mixing
     energy convergence thresh.=      1.0E-04
     force convergence thresh. =      1.0E-03
     Exchange-correlation= VDW-DF2
                           (   1   4  13   0   2   0   0)
     nstep                     =           50


     celldm(1)=  14.878493  celldm(2)=   0.000000  celldm(3)=   0.000000
     celldm(4)=  -0.392337  celldm(5)=   0.000000  celldm(6)=   0.000000

     crystal axes: (cart. coord. in units of alat)
               a(1) = (   0.834367  -0.481722   0.267909 )  
               a(2) = (   0.000000   0.963444   0.267909 )  
               a(3) = (  -0.834367  -0.481722   0.267909 )  

     reciprocal axes: (cart. coord. in units 2 pi/alat)
               b(1) = (  0.599257 -0.345981  1.244203 )  
               b(2) = (  0.000000  0.691962  1.244203 )  
               b(3) = ( -0.599257 -0.345981  1.244203 )  


     PseudoPot. # 1 for H  read from file:
     ./H.pbe-van_ak.UPF
     MD5 check sum: 077eb6d537518a38cb46c6de387227b7
     Pseudo is Ultrasoft, Zval =  1.0
     Generated by new atomic code, or converted to UPF format
     Using radial grid of  615 points,  1 beta functions with: 
                l(1) =   0
     Q(r) pseudized with  8 coefficients,  rinner =    0.800

     PseudoPot. # 2 for O  read from file:
     ./O.pbe-van_ak.UPF
     MD5 check sum: 78c19812648e8988a0fe644b0f25305e
     Pseudo is Ultrasoft, Zval =  6.0
     Generated by new atomic code, or converted to UPF format
     Using radial grid of  737 points,  4 beta functions with: 
                l(1) =   0
                l(2) =   0
                l(3) =   1
                l(4) =   1
     Q(r) pseudized with  8 coefficients,  rinner =    0.800   0.800   0.800


     atomic species   valence    mass     pseudopotential
     H                 1.00     1.00800     H ( 1.00)
     O                 6.00    16.00000     O ( 1.00)

      6 Sym. Ops., with inversion, found



   Cartesian axes

     site n.     atom                  positions (alat units)
         1        O      tau(   1) = (  -0.4847673  -0.5197781   0.3083633  )
         2        O      tau(   2) = (   0.4847673   0.5197782   0.4953638  )
         3        O      tau(   3) = (   0.6925247  -0.1599317   0.3083633  )
         4        O      tau(   4) = (  -0.6925248   0.1599317   0.4953638  )
         5        O      tau(   5) = (  -0.2077574   0.6797099   0.3083633  )
         6        O      tau(   6) = (   0.2077574  -0.6797099   0.4953638  )
         7        O      tau(   7) = (   0.1218176   0.3323883   0.4179381  )
         8        O      tau(   8) = (  -0.1218176  -0.3323883   0.3857890  )
         9        O      tau(   9) = (  -0.3487655  -0.0606970   0.4179381  )
        10        O      tau(  10) = (   0.3487655   0.0606970   0.3857890  )
        11        O      tau(  11) = (   0.2269479  -0.2716913   0.4179381  )
        12        O      tau(  12) = (  -0.2269479   0.2716912   0.3857890  )
        13        H      tau(  13) = (  -0.5381668  -0.4032014   0.2796970  )
        14        H      tau(  14) = (   0.5381668   0.4032014   0.5240301  )
        15        H      tau(  15) = (   0.6182661  -0.2644654   0.2796970  )
        16        H      tau(  16) = (  -0.6182661   0.2644654   0.5240301  )
        17        H      tau(  17) = (  -0.0800993   0.6676668   0.2796970  )
        18        H      tau(  18) = (   0.0800993  -0.6676668   0.5240301  )
        19        H      tau(  19) = (  -0.4872704  -0.4817221   0.4326731  )
        20        H      tau(  20) = (   0.4872704   0.4817221   0.3710540  )
        21        H      tau(  21) = (   0.6608188  -0.1811275   0.4326731  )
        22        H      tau(  22) = (  -0.6608188   0.1811275   0.3710540  )
        23        H      tau(  23) = (  -0.1735484   0.6628496   0.4326731  )
        24        H      tau(  24) = (   0.1735484  -0.6628496   0.3710540  )
        25        H      tau(  25) = (   0.2703349  -0.1502973   0.4058822  )
        26        H      tau(  26) = (  -0.2703350   0.1502973   0.3978449  )
        27        H      tau(  27) = (  -0.0050062   0.3092656   0.4058822  )
        28        H      tau(  28) = (   0.0050062  -0.3092656   0.3978449  )
        29        H      tau(  29) = (  -0.2653287  -0.1589683   0.4058822  )
        30        H      tau(  30) = (   0.2653287   0.1589683   0.3978449  )
        31        H      tau(  31) = (   0.3178939  -0.3347969   0.3493534  )
        32        H      tau(  32) = (  -0.3178939   0.3347969   0.4543737  )
        33        H      tau(  33) = (   0.1309957   0.4427026   0.3493534  )
        34        H      tau(  34) = (  -0.1309956  -0.4427026   0.4543737  )
        35        H      tau(  35) = (  -0.4488895  -0.1079057   0.3493534  )
        36        H      tau(  36) = (   0.4488895   0.1079057   0.4543737  )

     number of k points=    14
                       cart. coord. in units 2pi/alat
        k(    1) = (   0.0000000   0.0000000   0.0000000), wk =   0.0312500
        k(    2) = (  -0.1498141  -0.0864952   0.3110508), wk =   0.1875000
        k(    3) = (   0.2996283   0.1729905  -0.6221017), wk =   0.0937500
        k(    4) = (  -0.1498141   0.0864952   0.6221017), wk =   0.1875000
        k(    5) = (   0.2996283   0.3459809  -0.3110508), wk =   0.1875000
        k(    6) = (   0.1498141   0.2594857   0.0000000), wk =   0.1875000
        k(    7) = (   0.2996283  -0.1729905  -1.2442034), wk =   0.0937500
        k(    8) = (   0.0000000   0.0000000   0.9331525), wk =   0.0625000
        k(    9) = (   0.4494424   0.2594857   0.0000000), wk =   0.1875000
        k(   10) = (   0.2996283   0.1729905   0.3110508), wk =   0.1875000
        k(   11) = (   0.4494424  -0.2594857  -0.9331525), wk =   0.1875000
        k(   12) = (   0.2996283  -0.3459809  -0.6221017), wk =   0.1875000
        k(   13) = (   0.0000000   0.0000000  -1.8663050), wk =   0.0312500
        k(   14) = (   0.2996283  -0.3459809   0.3110508), wk =   0.1875000

     Dense  grid:   245317 G-vectors     FFT dimensions: (  90,  90,  90)

     Estimated max dynamical RAM per process >      15.94 MB

     Estimated total dynamical RAM >       1.82 GB

     Initial potential from superposition of free atoms

     starting charge      95.9998, renormalised to      96.0000


     %%%%%%%%%%%%%%%%%%%%%%%%%%%%%%%%%%%%%%%%%%%%%%%%%%%%%%%%%%%%%%%%%%%%%%%%
     %                                                                      %
     % You are using vdW-DF, which was implemented by the Thonhauser group. %
     % Please cite the following two papers that made this development      %
     % possible and the two reviews that describe the various versions:     %
     %                                                                      %
     %   T. Thonhauser et al., PRL 115, 136402 (2015).                      %
     %   T. Thonhauser et al., PRB 76, 125112 (2007).                       %
     %   K. Berland et al., Rep. Prog. Phys. 78, 066501 (2015).             %
     %   D.C. Langreth et al., J. Phys.: Condens. Matter 21, 084203 (2009). %
     %                                                                      %
     % If you are calculating stress with vdW-DF, please also cite:         %
     %                                                                      %
     %   R. Sabatini et al., J. Phys.: Condens. Matter 24, 424209 (2012).   %
     %                                                                      %
     %%%%%%%%%%%%%%%%%%%%%%%%%%%%%%%%%%%%%%%%%%%%%%%%%%%%%%%%%%%%%%%%%%%%%%%%

     %%%%%%%%%%%%%%%%%%%%%%%%%%%%%%%%%%%%%%%%%%%%%%%%%%%%%%%%%%%%%%%%%%%%%%%%
     %                                                                      %
     %  vdW-DF NEWS:                                                        %
     %                                                                      %
     %  * vdW-DF3 is now available. DOI: 10.1021/acs.jctc.0c00471           %
     %    use with input_dft = 'vdW-DF3-opt1' or 'vdW-DF3-opt2'             %
     %                                                                      %
     %  * Unscreened and range-separated hybrid vdW-DF-cx functionals       %
     %    DOI: 10.1063/1.4986522 and 10.1088/1361-648X/ac2ad2               %
     %    use with input_dft = 'vdW-DF-cx0'    and 'vdW-DF-ahcx'            %
     %  * Unscreened and range-separated hybrid vdW-DF2-b86r functionals    %
     %    DOI: 10.1063/1.4986522 and DOI: 10.1103/PhysRevX.12.041003        %
     %    use with input_dft = 'vdW-DF2-br0' and 'vdW-DF2-ahbr'             %
     %                                                                      %
     %%%%%%%%%%%%%%%%%%%%%%%%%%%%%%%%%%%%%%%%%%%%%%%%%%%%%%%%%%%%%%%%%%%%%%%%


     Starting wfcs are   72 randomized atomic wfcs

     total cpu time spent up to now is        2.9 secs

     per-process dynamical memory:    20.2 Mb

     Self-consistent Calculation

     iteration #  1     ecut=    90.00 Ry     beta= 0.70
     Davidson diagonalization with overlap
     ethr =  1.00E-02,  avg # of iterations =  2.0

     total cpu time spent up to now is        3.9 secs

     total energy              =    -415.89844438 Ry
     estimated scf accuracy    <       4.46054388 Ry

     iteration #  2     ecut=    90.00 Ry     beta= 0.70
     Davidson diagonalization with overlap
     ethr =  4.65E-03,  avg # of iterations =  3.0

     total cpu time spent up to now is        5.1 secs

     total energy              =    -417.35954403 Ry
     estimated scf accuracy    <       3.44126068 Ry

     iteration #  3     ecut=    90.00 Ry     beta= 0.70
     Davidson diagonalization with overlap
     ethr =  3.58E-03,  avg # of iterations =  2.0

     total cpu time spent up to now is        6.1 secs

     total energy              =    -417.79705057 Ry
     estimated scf accuracy    <       0.16211033 Ry

     iteration #  4     ecut=    90.00 Ry     beta= 0.70
     Davidson diagonalization with overlap
     ethr =  1.69E-04,  avg # of iterations =  4.0

     total cpu time spent up to now is        7.5 secs

     total energy              =    -417.92074847 Ry
     estimated scf accuracy    <       0.18120319 Ry

     iteration #  5     ecut=    90.00 Ry     beta= 0.70
     Davidson diagonalization with overlap
     ethr =  1.69E-04,  avg # of iterations =  1.4

     total cpu time spent up to now is        8.3 secs

     total energy              =    -417.92331406 Ry
     estimated scf accuracy    <       0.03138321 Ry

     iteration #  6     ecut=    90.00 Ry     beta= 0.70
     Davidson diagonalization with overlap
     ethr =  3.27E-05,  avg # of iterations =  2.0

     total cpu time spent up to now is        9.2 secs

     total energy              =    -417.92665146 Ry
     estimated scf accuracy    <       0.00453531 Ry

     iteration #  7     ecut=    90.00 Ry     beta= 0.70
     Davidson diagonalization with overlap
     ethr =  4.72E-06,  avg # of iterations =  2.1

     total cpu time spent up to now is       10.2 secs

     total energy              =    -417.92779320 Ry
     estimated scf accuracy    <       0.00014725 Ry

     iteration #  8     ecut=    90.00 Ry     beta= 0.70
     Davidson diagonalization with overlap
     ethr =  1.53E-07,  avg # of iterations =  2.9

     total cpu time spent up to now is       11.2 secs

     total energy              =    -417.92780678 Ry
     estimated scf accuracy    <       0.00015054 Ry

     iteration #  9     ecut=    90.00 Ry     beta= 0.70
     Davidson diagonalization with overlap
     ethr =  1.53E-07,  avg # of iterations =  2.0

     total cpu time spent up to now is       12.0 secs

     total energy              =    -417.92805358 Ry
     estimated scf accuracy    <       0.00011342 Ry

     iteration # 10     ecut=    90.00 Ry     beta= 0.70
     Davidson diagonalization with overlap
     ethr =  1.18E-07,  avg # of iterations =  5.0

     total cpu time spent up to now is       13.6 secs

     total energy              =    -417.92809161 Ry
     estimated scf accuracy    <       0.00241496 Ry

     iteration # 11     ecut=    90.00 Ry     beta= 0.70
     Davidson diagonalization with overlap
     ethr =  1.18E-07,  avg # of iterations =  2.4

     total cpu time spent up to now is       14.6 secs

     total energy              =    -417.92783309 Ry
     estimated scf accuracy    <       0.00135158 Ry

     iteration # 12     ecut=    90.00 Ry     beta= 0.70
     Davidson diagonalization with overlap
     ethr =  1.18E-07,  avg # of iterations =  3.0

     total cpu time spent up to now is       15.8 secs

     total energy              =    -417.92776398 Ry
     estimated scf accuracy    <       0.00044874 Ry

     iteration # 13     ecut=    90.00 Ry     beta= 0.70
     Davidson diagonalization with overlap
     ethr =  1.18E-07,  avg # of iterations =  2.1

     total cpu time spent up to now is       16.8 secs

     total energy              =    -417.92776227 Ry
     estimated scf accuracy    <       0.00007345 Ry

     iteration # 14     ecut=    90.00 Ry     beta= 0.70
     Davidson diagonalization with overlap
     ethr =  7.65E-08,  avg # of iterations =  3.0

     total cpu time spent up to now is       18.0 secs

     total energy              =    -417.92778836 Ry
     estimated scf accuracy    <       0.00000976 Ry

     iteration # 15     ecut=    90.00 Ry     beta= 0.70
     Davidson diagonalization with overlap
     ethr =  1.02E-08,  avg # of iterations =  2.0

     total cpu time spent up to now is       18.9 secs

     total energy              =    -417.92778957 Ry
     estimated scf accuracy    <       0.00000123 Ry

     iteration # 16     ecut=    90.00 Ry     beta= 0.70
     Davidson diagonalization with overlap
     ethr =  1.28E-09,  avg # of iterations =  1.1

     total cpu time spent up to now is       19.7 secs

     total energy              =    -417.92778925 Ry
     estimated scf accuracy    <       0.00000082 Ry

     iteration # 17     ecut=    90.00 Ry     beta= 0.70
     Davidson diagonalization with overlap
     ethr =  8.54E-10,  avg # of iterations =  2.0

     total cpu time spent up to now is       20.7 secs

     End of self-consistent calculation

          k = 0.0000 0.0000 0.0000 ( 30703 PWs)   bands (ev):

   -21.2257 -20.7941 -20.7941 -20.5846 -20.5846 -20.5585 -20.5585 -20.5446
   -20.5431 -20.2598 -20.2598 -19.9659  -8.6191  -8.4259  -8.3617  -8.3617
    -8.2900  -8.2900  -7.8626  -7.7296  -7.7296  -7.5163  -7.5163  -7.3827
    -7.3276  -6.4633  -6.4633  -5.8905  -5.8905  -5.8024  -5.8024  -5.5280
    -5.3383  -4.7091  -4.7091  -4.0543  -3.3394  -3.3394  -3.2475  -3.1621
    -3.1173  -3.1173  -2.9799  -2.9799  -2.9644  -2.9474  -2.8969  -2.8969

          k =-0.1498-0.0865 0.3111 ( 30706 PWs)   bands (ev):

   -21.1559 -20.8327 -20.7829 -20.7202 -20.6968 -20.6278 -20.4939 -20.4533
   -20.4023 -20.2656 -20.2263 -20.0221  -8.5659  -8.4843  -8.4092  -8.3675
    -8.2708  -8.2095  -7.8643  -7.6985  -7.6815  -7.5498  -7.4272  -7.3900
    -7.1955  -6.6041  -6.4776  -6.2115  -5.8919  -5.7714  -5.6313  -5.4130
    -5.3559  -4.7008  -4.6396  -4.1877  -3.4534  -3.3825  -3.2708  -3.2079
    -3.1546  -3.1229  -3.0796  -3.0162  -2.9550  -2.9151  -2.8836  -2.8383

          k = 0.2996 0.1730-0.6221 ( 30702 PWs)   bands (ev):

   -20.9747 -20.9747 -20.8141 -20.8019 -20.6964 -20.6930 -20.4413 -20.4331
   -20.2713 -20.2694 -20.1667 -20.1496  -8.5383  -8.4853  -8.4026  -8.3799
    -8.2747  -8.2122  -7.8149  -7.6984  -7.6558  -7.5593  -7.3465  -7.3458
    -6.9620  -6.8244  -6.5280  -6.3722  -5.8987  -5.8164  -5.6294  -5.4758
    -4.9540  -4.8336  -4.5788  -4.3575  -3.5562  -3.4035  -3.2920  -3.2658
    -3.1940  -3.1742  -3.0861  -3.0281  -3.0060  -2.8800  -2.8674  -2.7941

          k =-0.1498 0.0865 0.6221 ( 30693 PWs)   bands (ev):

   -21.0146 -20.8861 -20.8769 -20.7651 -20.7437 -20.6820 -20.4471 -20.3710
   -20.3375 -20.2272 -20.2101 -20.1250  -8.5463  -8.4610  -8.4459  -8.3400
    -8.2903  -8.2004  -7.8165  -7.7350  -7.6836  -7.4593  -7.3937  -7.3411
    -6.9674  -6.7584  -6.6645  -6.2090  -6.0377  -5.8598  -5.5539  -5.3549
    -5.1515  -4.6664  -4.6434  -4.3698  -3.5344  -3.4448  -3.2814  -3.2384
    -3.2041  -3.1535  -3.1112  -3.0276  -2.9979  -2.8889  -2.8710  -2.7884

          k = 0.2996 0.3460-0.3111 ( 30683 PWs)   bands (ev):

   -21.0644 -20.9169 -20.8173 -20.7926 -20.7170 -20.6518 -20.4503 -20.3542
   -20.3456 -20.2630 -20.2049 -20.1013  -8.5529  -8.5315  -8.3829  -8.3575
    -8.3019  -8.2085  -7.8517  -7.7960  -7.6714  -7.4276  -7.3994  -7.3309
    -7.0860  -6.7933  -6.5611  -6.2228  -6.1914  -5.7033  -5.5253  -5.2641
    -5.0424  -4.8214  -4.6204  -4.3435  -3.4480  -3.3800  -3.2974  -3.2297
    -3.1734  -3.1240  -3.0651  -3.0563  -2.9737  -2.9329  -2.8739  -2.7755

          k = 0.1498 0.2595 0.0000 ( 30681 PWs)   bands (ev):

   -21.1752 -20.8640 -20.8117 -20.6896 -20.6638 -20.5869 -20.5125 -20.4445
   -20.4074 -20.2700 -20.2368 -20.0106  -8.6026  -8.4973  -8.4000  -8.3612
    -8.2459  -8.2399  -7.9199  -7.7894  -7.6057  -7.5203  -7.4566  -7.3414
    -7.3257  -6.5864  -6.4577  -6.2032  -6.0939  -5.6507  -5.5180  -5.3952
    -5.2138  -4.7771  -4.6862  -4.1468  -3.3406  -3.3216  -3.2807  -3.1952
    -3.1547  -3.1277  -3.0157  -3.0000  -2.9697  -2.9572  -2.8574  -2.8436

          k = 0.2996-0.1730-1.2442 ( 30636 PWs)   bands (ev):

   -21.0541 -21.0185 -20.8253 -20.7369 -20.6632 -20.6095 -20.4601 -20.4284
   -20.3210 -20.3025 -20.1335 -20.1194  -8.5799  -8.5436  -8.4116  -8.3811
    -8.2193  -8.2154  -7.9212  -7.8524  -7.5886  -7.5444  -7.3701  -7.3292
    -7.0180  -6.9758  -6.5231  -6.3123  -6.0061  -5.7709  -5.3993  -5.1460
    -5.0464  -4.9709  -4.5382  -4.3565  -3.3564  -3.3078  -3.2931  -3.2327
    -3.1549  -3.1005  -3.0799  -3.0092  -2.9995  -2.9527  -2.8240  -2.8098

          k = 0.0000 0.0000 0.9332 ( 30705 PWs)   bands (ev):

   -20.9631 -20.9631 -20.8872 -20.8472 -20.6796 -20.6796 -20.3795 -20.3795
   -20.2642 -20.2307 -20.2029 -20.2029  -8.5313  -8.5313  -8.4001  -8.2988
    -8.2988  -8.2891  -7.8615  -7.7628  -7.7628  -7.3400  -7.3400  -7.3030
    -6.8924  -6.8865  -6.8865  -6.2451  -5.9572  -5.9572  -5.3219  -5.1318
    -5.1318  -4.6847  -4.6847  -4.5217  -3.3920  -3.3920  -3.2781  -3.2142
    -3.1460  -3.1460  -3.0954  -3.0300  -3.0300  -2.9172  -2.9172  -2.7528

          k = 0.4494 0.2595 0.0000 ( 30650 PWs)   bands (ev):

   -21.0818 -20.9251 -20.9190 -20.7386 -20.6111 -20.6023 -20.4748 -20.4683
   -20.3217 -20.2348 -20.2036 -20.0913  -8.5754  -8.5319  -8.4670  -8.3183
    -8.2607  -8.1979  -7.9376  -7.8043  -7.6791  -7.4433  -7.3950  -7.3483
    -7.1188  -6.7557  -6.6789  -6.2636  -6.0228  -5.7651  -5.3215  -5.2850
    -5.0873  -4.7853  -4.6485  -4.3296  -3.3388  -3.3319  -3.2814  -3.2366
    -3.1708  -3.1137  -3.0485  -3.0256  -2.9757  -2.9311  -2.8727  -2.7926

          k = 0.2996 0.1730 0.3111 ( 30685 PWs)   bands (ev):

   -21.1088 -20.8750 -20.7921 -20.7791 -20.6969 -20.6424 -20.4641 -20.4349
   -20.3694 -20.2542 -20.2046 -20.0578  -8.5744  -8.5158  -8.4351  -8.3114
    -8.3081  -8.1616  -7.8862  -7.7626  -7.5886  -7.5196  -7.4728  -7.3792
    -7.1137  -6.6060  -6.4410  -6.3542  -6.1279  -5.7942  -5.5088  -5.3126
    -5.1546  -4.7682  -4.6295  -4.2310  -3.4663  -3.3910  -3.3194  -3.2635
    -3.1702  -3.1313  -3.0574  -3.0232  -2.9431  -2.9039  -2.8461  -2.8296

          k = 0.4494-0.2595-0.9332 ( 30665 PWs)   bands (ev):

   -20.9865 -20.9842 -20.8549 -20.8048 -20.6856 -20.6137 -20.5007 -20.4212
   -20.2880 -20.2369 -20.1893 -20.1129  -8.6004  -8.5050  -8.4643  -8.3191
    -8.2740  -8.1422  -7.9306  -7.7223  -7.6072  -7.5532  -7.4134  -7.3853
    -6.8609  -6.8194  -6.5088  -6.3681  -6.1844  -5.8811  -5.4664  -5.1928
    -4.8906  -4.8625  -4.6716  -4.2989  -3.4671  -3.4104  -3.3739  -3.2626
    -3.2290  -3.1494  -3.0074  -2.9865  -2.9548  -2.9164  -2.8479  -2.7953

          k = 0.2996-0.3460-0.6221 ( 30696 PWs)   bands (ev):

   -20.9434 -20.9401 -20.8439 -20.8354 -20.7144 -20.7131 -20.4252 -20.4190
   -20.2763 -20.2693 -20.1613 -20.1441  -8.6136  -8.4229  -8.3934  -8.3733
    -8.3388  -8.1459  -7.8428  -7.7349  -7.5847  -7.5411  -7.3925  -7.3872
    -6.8279  -6.7029  -6.5450  -6.4235  -6.1072  -6.0716  -5.3879  -5.3175
    -4.8997  -4.8579  -4.6860  -4.2841  -3.5874  -3.4245  -3.3721  -3.3033
    -3.2496  -3.1187  -3.0523  -3.0121  -2.9909  -2.8714  -2.8545  -2.7775

          k = 0.0000 0.0000-1.8663 ( 30600 PWs)   bands (ev):

   -20.9133 -20.8999 -20.8106 -20.8106 -20.8066 -20.8066 -20.3543 -20.3543
   -20.3244 -20.3244 -20.1470 -20.1332  -8.6596  -8.3853  -8.3853  -8.3669
    -8.3669  -8.1156  -7.8889  -7.7340  -7.4945  -7.4945  -7.4627  -7.4627
    -6.6592  -6.4843  -6.4303  -6.4303  -6.4150  -6.4150  -5.1754  -5.1754
    -4.9345  -4.9345  -4.7091  -4.2346  -3.6187  -3.4265  -3.4265  -3.3374
    -3.3374  -3.0671  -3.0478  -2.9507  -2.9507  -2.8844  -2.8844  -2.7529

          k = 0.2996-0.3460 0.3111 ( 30683 PWs)   bands (ev):

   -21.0643 -20.9164 -20.8219 -20.7897 -20.7144 -20.6525 -20.4512 -20.3672
   -20.3279 -20.2724 -20.1987 -20.1029  -8.5698  -8.4972  -8.4154  -8.3575
    -8.2747  -8.2149  -7.8972  -7.7642  -7.6494  -7.4651  -7.3635  -7.3510
    -7.0790  -6.7261  -6.6541  -6.2766  -6.0440  -5.7655  -5.6022  -5.1797
    -5.0217  -4.8056  -4.6903  -4.3221  -3.4559  -3.3527  -3.3129  -3.2234
    -3.1815  -3.1305  -3.0642  -3.0566  -2.9912  -2.9028  -2.8746  -2.7838

     highest occupied level (ev):    -2.7528

!    total energy              =    -417.92778938 Ry
     estimated scf accuracy    <       0.00000002 Ry

     The total energy is the sum of the following terms:
     one-electron contribution =    -295.77769549 Ry
     hartree contribution      =     182.29919416 Ry
     xc contribution           =    -105.29455273 Ry
     ewald contribution        =    -199.15473534 Ry

     convergence has been achieved in  17 iterations

     Forces acting on atoms (cartesian axes, Ry/au):

     atom    1 type  2   force =    -0.04028901    0.08828163    0.04710379
     atom    2 type  2   force =     0.04028901   -0.08828163   -0.04710379
     atom    3 type  2   force =    -0.05630963   -0.07903213    0.04710379
     atom    4 type  2   force =     0.05630963    0.07903213   -0.04710379
     atom    5 type  2   force =     0.09659864   -0.00924951    0.04710379
     atom    6 type  2   force =    -0.09659864    0.00924951   -0.04710379
     atom    7 type  2   force =    -0.04964118    0.03867838   -0.03497777
     atom    8 type  2   force =     0.04964118   -0.03867838    0.03497777
     atom    9 type  2   force =    -0.00867587   -0.06232972   -0.03497777
     atom   10 type  2   force =     0.00867587    0.06232972    0.03497777
     atom   11 type  2   force =     0.05831705    0.02365134   -0.03497777
     atom   12 type  2   force =    -0.05831705   -0.02365134    0.03497777
     atom   13 type  1   force =     0.01170476   -0.04386840   -0.04673297
     atom   14 type  1   force =    -0.01170476    0.04386840    0.04673297
     atom   15 type  1   force =     0.03213877    0.03207082   -0.04673297
     atom   16 type  1   force =    -0.03213877   -0.03207082    0.04673297
     atom   17 type  1   force =    -0.04384353    0.01179758   -0.04673297
     atom   18 type  1   force =     0.04384353   -0.01179758    0.04673297
     atom   19 type  1   force =     0.02971358   -0.05097580   -0.01059651
     atom   20 type  1   force =    -0.02971358    0.05097580    0.01059651
     atom   21 type  1   force =     0.02928955    0.05122062   -0.01059651
     atom   22 type  1   force =    -0.02928955   -0.05122062    0.01059651
     atom   23 type  1   force =    -0.05900313   -0.00024481   -0.01059651
     atom   24 type  1   force =     0.05900313    0.00024481    0.01059651
     atom   25 type  1   force =    -0.02078068   -0.02379734    0.01431248
     atom   26 type  1   force =     0.02078068    0.02379734   -0.01431248
     atom   27 type  1   force =     0.03099944   -0.00609792    0.01431248
     atom   28 type  1   force =    -0.03099944    0.00609792   -0.01431248
     atom   29 type  1   force =    -0.01021876    0.02989527    0.01431248
     atom   30 type  1   force =     0.01021876   -0.02989527   -0.01431248
     atom   31 type  1   force =    -0.04204561    0.00103359    0.02624095
     atom   32 type  1   force =     0.04204561   -0.00103359   -0.02624095
     atom   33 type  1   force =     0.02012769   -0.03692936    0.02624095
     atom   34 type  1   force =    -0.02012769    0.03692936   -0.02624095
     atom   35 type  1   force =     0.02191792    0.03589577    0.02624095
     atom   36 type  1   force =    -0.02191792   -0.03589577   -0.02624095

     Total force =     0.412206     Total SCF correction =     0.000060


     Computing stress (Cartesian axis) and pressure

          total   stress  (Ry/bohr**3)                   (kbar)     P=      -41.68
  -0.00036012   0.00000000   0.00000000          -52.98        0.00        0.00
  -0.00000000  -0.00036012  -0.00000000           -0.00      -52.98       -0.00
  -0.00000000  -0.00000000  -0.00012974           -0.00       -0.00      -19.09


     BFGS Geometry Optimization
     Energy error            =      0.0E+00 Ry
     Gradient error          =      9.7E-02 Ry/Bohr

     number of scf cycles    =   1
     number of bfgs steps    =   0

     energy             new  =    -417.9277893846 Ry

     new trust radius        =       0.1078685240 bohr
     new conv_thr            =       0.0000001000 Ry


ATOMIC_POSITIONS (crystal)
O                0.2732634347        0.0320447813        0.8575088216
O                0.7267365653        0.9679552297        0.1424911484
O                0.8575088216        0.2732634347        0.0320447813
O                0.1424911484        0.7267365653        0.9679552297
O                0.0320447813        0.8575088216        0.2732634347
O                0.9679552297        0.1424911484        0.7267365653
O                0.4721761930        0.7488738445        0.3301749610
O                0.5278238070        0.2511261555        0.6698250090
O                0.3301749610        0.4721761930        0.7488738445
O                0.6698250090        0.5278238070        0.2511261555
O                0.7488738445        0.3301749610        0.4721761930
O                0.2511261555        0.6698250090        0.5278238070
H                0.1625835300        0.0630517758        0.8066406665
H                0.8374164560        0.9369482162        0.1933593335
H                0.8066406665        0.1625835300        0.0630517758
H                0.1933593335        0.8374164560        0.9369482162
H                0.0630517758        0.8066406665        0.1625835300
H                0.9369482162        0.1933593335        0.8374164560
H                0.4144960064        0.2017431138        0.9961024676
H                0.5855039936        0.7982569012        0.0038975114
H                0.9961024676        0.4144960064        0.2017431138
H                0.0038975114        0.5855039936        0.7982569012
H                0.2017431138        0.9961024676        0.4144960064
H                0.7982569012        0.0038975114        0.5855039936
H                0.7199132535        0.4010901084        0.3975872367
H                0.2800867465        0.5989098616        0.6024127933
H                0.3975872367        0.7199132535        0.4010901084
H                0.6024127933        0.2800867465        0.5989098616
H                0.4010901084        0.3975872367        0.7199132535
H                0.5989098616        0.6024127933        0.2800867465
H                0.7414768847        0.2052424443        0.3638638182
H                0.2585231153        0.7947575407        0.6361361818
H                0.3638638182        0.7414768847        0.2052424443
H                0.6361361818        0.2585231153        0.7947575407
H                0.2052424443        0.3638638182        0.7414768847
H                0.7947575407        0.6361361818        0.2585231153



     Writing config-only to output data dir ./iceII/iceII.save/ :
     XML data file
     NEW-OLD atomic charge density approx. for the potential

     total cpu time spent up to now is       22.3 secs

     per-process dynamical memory:    19.9 Mb

     Self-consistent Calculation

     iteration #  1     ecut=    90.00 Ry     beta= 0.70
     Davidson diagonalization with overlap
     ethr =  1.00E-06,  avg # of iterations = 10.0

     total cpu time spent up to now is       24.8 secs

     total energy              =    -417.99710902 Ry
     estimated scf accuracy    <       0.05088681 Ry

     iteration #  2     ecut=    90.00 Ry     beta= 0.70
     Davidson diagonalization with overlap
     ethr =  5.30E-05,  avg # of iterations =  3.0

     total cpu time spent up to now is       25.9 secs

     total energy              =    -418.01137903 Ry
     estimated scf accuracy    <       0.01993520 Ry

     iteration #  3     ecut=    90.00 Ry     beta= 0.70
     Davidson diagonalization with overlap
     ethr =  2.08E-05,  avg # of iterations =  2.0

     total cpu time spent up to now is       26.8 secs

     total energy              =    -418.01453448 Ry
     estimated scf accuracy    <       0.00055760 Ry

     iteration #  4     ecut=    90.00 Ry     beta= 0.70
     Davidson diagonalization with overlap
     ethr =  5.81E-07,  avg # of iterations =  5.0

     total cpu time spent up to now is       28.1 secs

     total energy              =    -418.01490977 Ry
     estimated scf accuracy    <       0.00072689 Ry

     iteration #  5     ecut=    90.00 Ry     beta= 0.70
     Davidson diagonalization with overlap
     ethr =  5.81E-07,  avg # of iterations =  2.1

     total cpu time spent up to now is       29.1 secs

     total energy              =    -418.01498003 Ry
     estimated scf accuracy    <       0.00006060 Ry

     iteration #  6     ecut=    90.00 Ry     beta= 0.70
     Davidson diagonalization with overlap
     ethr =  6.31E-08,  avg # of iterations =  4.1

     total cpu time spent up to now is       30.5 secs

     total energy              =    -418.01500758 Ry
     estimated scf accuracy    <       0.00009072 Ry

     iteration #  7     ecut=    90.00 Ry     beta= 0.70
     Davidson diagonalization with overlap
     ethr =  6.31E-08,  avg # of iterations =  2.0

     total cpu time spent up to now is       31.5 secs

     total energy              =    -418.01502033 Ry
     estimated scf accuracy    <       0.00000315 Ry

     iteration #  8     ecut=    90.00 Ry     beta= 0.70
     Davidson diagonalization with overlap
     ethr =  3.28E-09,  avg # of iterations =  3.2

     total cpu time spent up to now is       32.7 secs

     total energy              =    -418.01502217 Ry
     estimated scf accuracy    <       0.00000024 Ry

     iteration #  9     ecut=    90.00 Ry     beta= 0.70
     Davidson diagonalization with overlap
     ethr =  2.55E-10,  avg # of iterations =  2.0

     total cpu time spent up to now is       33.6 secs

     End of self-consistent calculation

          k = 0.0000 0.0000 0.0000 ( 30703 PWs)   bands (ev):

   -21.6162 -21.2257 -21.2257 -21.0135 -21.0135 -21.0057 -21.0057 -20.9874
   -20.9833 -20.7231 -20.7231 -20.4679  -9.1166  -8.9271  -8.8635  -8.8635
    -8.8598  -8.8598  -8.3806  -8.3806  -8.2914  -8.2680  -8.2680  -8.1263
    -7.4024  -6.3581  -6.3581  -5.7659  -5.7659  -5.7247  -5.7247  -5.4429
    -5.3645  -4.7208  -4.7208  -4.0929  -3.4514  -3.4514  -3.4142  -3.2370
    -3.2370  -3.2302  -3.0795  -3.0646  -3.0646  -3.0438  -2.9757  -2.9757

          k =-0.1498-0.0865 0.3111 ( 30706 PWs)   bands (ev):

   -21.5514 -21.2558 -21.2181 -21.1397 -21.1277 -21.0693 -20.9368 -20.8966
   -20.8559 -20.7319 -20.6966 -20.5165  -9.0750  -8.9603  -8.9089  -8.8937
    -8.8327  -8.7748  -8.4050  -8.3705  -8.2901  -8.2327  -8.2051  -8.1750
    -7.2160  -6.5032  -6.3915  -6.0944  -5.8608  -5.6327  -5.5600  -5.3429
    -5.2824  -4.7173  -4.6470  -4.2131  -3.5544  -3.4885  -3.4142  -3.2884
    -3.2733  -3.2367  -3.1848  -3.1027  -3.0414  -2.9999  -2.9719  -2.9271

          k = 0.2996 0.1730-0.6221 ( 30702 PWs)   bands (ev):

   -21.3969 -21.3692 -21.2510 -21.2049 -21.1423 -21.1229 -20.8938 -20.8665
   -20.7509 -20.7284 -20.6564 -20.6188  -9.0062  -8.9973  -8.9303  -8.8965
    -8.8247  -8.7592  -8.3926  -8.3520  -8.2857  -8.2718  -8.1620  -8.1502
    -6.8814  -6.7447  -6.4445  -6.3079  -5.8567  -5.7634  -5.4786  -5.3199
    -4.9217  -4.8143  -4.5884  -4.3833  -3.6439  -3.5078  -3.4110  -3.3519
    -3.3052  -3.2960  -3.1766  -3.1213  -3.1101  -2.9640  -2.9497  -2.8844

          k =-0.1498 0.0865 0.6221 ( 30693 PWs)   bands (ev):

   -21.4214 -21.3021 -21.2935 -21.1923 -21.1691 -21.1192 -20.8905 -20.8264
   -20.7942 -20.7020 -20.6869 -20.6044  -9.0146  -8.9758  -8.9607  -8.8674
    -8.8370  -8.7566  -8.3832  -8.3644  -8.3222  -8.2117  -8.1801  -8.1547
    -6.9112  -6.6368  -6.5910  -6.1561  -5.9642  -5.8057  -5.4148  -5.2352
    -5.0763  -4.6775  -4.6504  -4.3904  -3.6235  -3.5443  -3.3967  -3.3449
    -3.3227  -3.2456  -3.2158  -3.1242  -3.0934  -2.9730  -2.9540  -2.8784

          k = 0.2996 0.3460-0.3111 ( 30683 PWs)   bands (ev):

   -21.4674 -21.3383 -21.2377 -21.2152 -21.1365 -21.0882 -20.8970 -20.8285
   -20.7983 -20.7268 -20.6796 -20.5824  -9.0388  -9.0099  -8.9116  -8.8785
    -8.8358  -8.7507  -8.4610  -8.4330  -8.3391  -8.1907  -8.1628  -8.1341
    -6.9583  -6.6593  -6.4270  -6.1848  -6.1466  -5.6677  -5.3511  -5.2274
    -5.0261  -4.7984  -4.6226  -4.3533  -3.5526  -3.4909  -3.4201  -3.3547
    -3.2675  -3.2151  -3.1729  -3.1518  -3.0713  -3.0164  -2.9562  -2.8617

          k = 0.1498 0.2595 0.0000 ( 30681 PWs)   bands (ev):

   -21.5698 -21.2902 -21.2420 -21.1134 -21.0864 -21.0170 -20.9653 -20.9008
   -20.8676 -20.7325 -20.6995 -20.5058  -9.0951  -8.9701  -8.9084  -8.8925
    -8.8033  -8.7906  -8.4846  -8.4282  -8.2917  -8.2520  -8.1997  -8.1249
    -7.2340  -6.4514  -6.3446  -6.1287  -6.0158  -5.5972  -5.4436  -5.3019
    -5.2198  -4.7710  -4.6955  -4.1707  -3.4553  -3.4384  -3.4296  -3.3115
    -3.2476  -3.2247  -3.1082  -3.0882  -3.0840  -3.0411  -2.9391  -2.9261

          k = 0.2996-0.1730-1.2442 ( 30636 PWs)   bands (ev):

   -21.4567 -21.4306 -21.2558 -21.1537 -21.0931 -21.0306 -20.9274 -20.8807
   -20.7990 -20.7533 -20.6164 -20.5927  -9.0546  -9.0221  -8.9184  -8.9019
    -8.7737  -8.7552  -8.5463  -8.4721  -8.3059  -8.2453  -8.1503  -8.1281
    -6.8443  -6.8195  -6.3731  -6.2982  -5.9514  -5.7212  -5.3298  -5.1500
    -4.9987  -4.9414  -4.5392  -4.3558  -3.4751  -3.4322  -3.4210  -3.3601
    -3.2574  -3.1897  -3.1657  -3.1173  -3.0855  -3.0394  -2.9076  -2.8958

          k = 0.0000 0.0000 0.9332 ( 30705 PWs)   bands (ev):

   -21.3736 -21.3736 -21.3269 -21.2429 -21.1084 -21.1084 -20.8384 -20.8384
   -20.7563 -20.6772 -20.6772 -20.6747  -9.0141  -9.0141  -8.9501  -8.8249
    -8.8249  -8.8058  -8.4888  -8.4017  -8.4017  -8.1443  -8.1443  -8.1175
    -6.7258  -6.7258  -6.6988  -6.2297  -5.9277  -5.9277  -5.1532  -5.0929
    -5.0929  -4.6766  -4.6766  -4.5335  -3.5040  -3.5040  -3.4073  -3.3508
    -3.2404  -3.2404  -3.1976  -3.1246  -3.1246  -2.9935  -2.9935  -2.8375

          k = 0.4494 0.2595 0.0000 ( 30650 PWs)   bands (ev):

   -21.4842 -21.3421 -21.3406 -21.1491 -21.0564 -21.0277 -20.9323 -20.9131
   -20.8008 -20.7013 -20.6688 -20.5733  -9.0580  -9.0023  -8.9633  -8.8551
    -8.8095  -8.7378  -8.5585  -8.4343  -8.3607  -8.1923  -8.1669  -8.1339
    -6.9553  -6.5947  -6.5305  -6.2596  -5.9543  -5.6995  -5.2964  -5.2594
    -5.0341  -4.7605  -4.6469  -4.3328  -3.4606  -3.4478  -3.4144  -3.3664
    -3.2675  -3.2017  -3.1516  -3.1193  -3.0671  -3.0172  -2.9550  -2.8775

          k = 0.2996 0.1730 0.3111 ( 30685 PWs)   bands (ev):

   -21.5084 -21.2988 -21.2217 -21.1958 -21.1212 -21.0800 -20.9083 -20.8976
   -20.8125 -20.7321 -20.6738 -20.5458  -9.0590  -8.9858  -8.9310  -8.8715
    -8.8410  -8.7279  -8.4802  -8.3580  -8.2901  -8.2672  -8.1755  -8.1725
    -7.0676  -6.5126  -6.3862  -6.2316  -6.0390  -5.6731  -5.4557  -5.2699
    -5.1106  -4.7603  -4.6335  -4.2475  -3.5693  -3.4961  -3.4425  -3.3500
    -3.2830  -3.2313  -3.1655  -3.1163  -3.0352  -3.0028  -2.9306  -2.9169

          k = 0.4494-0.2595-0.9332 ( 30665 PWs)   bands (ev):

   -21.3993 -21.3946 -21.2789 -21.2132 -21.1148 -21.0584 -20.9388 -20.8801
   -20.7442 -20.7206 -20.6644 -20.5882  -9.0349  -9.0057  -8.9579  -8.8671
    -8.8239  -8.6947  -8.5286  -8.3801  -8.2948  -8.2733  -8.1729  -8.1587
    -6.7859  -6.6751  -6.3993  -6.3608  -6.0816  -5.7297  -5.4496  -5.1899
    -4.8637  -4.8216  -4.6620  -4.3038  -3.5733  -3.5143  -3.4765  -3.3582
    -3.3162  -3.2695  -3.1140  -3.0855  -3.0546  -3.0080  -2.9365  -2.8819

          k = 0.2996-0.3460-0.6221 ( 30696 PWs)   bands (ev):

   -21.3723 -21.3349 -21.2709 -21.2442 -21.1506 -21.1420 -20.8803 -20.8640
   -20.7437 -20.7303 -20.6588 -20.6095  -9.0401  -8.9535  -8.9268  -8.8933
    -8.8693  -8.7017  -8.4153  -8.3828  -8.2670  -8.2586  -8.1831  -8.1777
    -6.7603  -6.6427  -6.4503  -6.3931  -5.9773  -5.9375  -5.3172  -5.2456
    -4.8760  -4.8324  -4.6733  -4.3092  -3.6697  -3.5248  -3.4776  -3.3878
    -3.3489  -3.2103  -3.1717  -3.1159  -3.0940  -2.9632  -2.9470  -2.8634

          k = 0.0000 0.0000-1.8663 ( 30600 PWs)   bands (ev):

   -21.3506 -21.2841 -21.2490 -21.2490 -21.2142 -21.2142 -20.8306 -20.8306
   -20.7661 -20.7661 -20.6480 -20.5986  -9.0562  -8.9247  -8.9247  -8.8917
    -8.8917  -8.6639  -8.4377  -8.4064  -8.2344  -8.2344  -8.2204  -8.2204
    -6.6520  -6.5654  -6.2931  -6.2931  -6.2448  -6.2448  -5.1388  -5.1388
    -4.9119  -4.9119  -4.6710  -4.2582  -3.6950  -3.5232  -3.5232  -3.4176
    -3.4176  -3.1859  -3.1565  -3.0538  -3.0538  -2.9824  -2.9824  -2.8385

          k = 0.2996-0.3460 0.3111 ( 30683 PWs)   bands (ev):

   -21.4680 -21.3323 -21.2567 -21.2040 -21.1323 -21.0878 -20.9010 -20.8382
   -20.7670 -20.7556 -20.6684 -20.5847  -9.0485  -8.9863  -8.9242  -8.8979
    -8.8045  -8.7630  -8.4833  -8.4134  -8.3336  -8.1919  -8.1627  -8.1369
    -6.9650  -6.5864  -6.5314  -6.2214  -6.0100  -5.7238  -5.4600  -5.1145
    -4.9846  -4.8138  -4.6762  -4.3354  -3.5579  -3.4754  -3.4308  -3.3443
    -3.2636  -3.2317  -3.1637  -3.1630  -3.0863  -2.9858  -2.9595  -2.8690

     highest occupied level (ev):    -2.8375

!    total energy              =    -418.01502222 Ry
     estimated scf accuracy    <       0.00000003 Ry

     The total energy is the sum of the following terms:
     one-electron contribution =    -303.50443685 Ry
     hartree contribution      =     185.76815680 Ry
     xc contribution           =    -106.16017569 Ry
     ewald contribution        =    -194.11856648 Ry

     convergence has been achieved in   9 iterations

     Forces acting on atoms (cartesian axes, Ry/au):

     atom    1 type  2   force =    -0.00011812   -0.00818242   -0.00193749
     atom    2 type  2   force =     0.00011812    0.00818242    0.00193749
     atom    3 type  2   force =     0.00714524    0.00398892   -0.00193749
     atom    4 type  2   force =    -0.00714524   -0.00398892    0.00193749
     atom    5 type  2   force =    -0.00702713    0.00419350   -0.00193749
     atom    6 type  2   force =     0.00702713   -0.00419350    0.00193749
     atom    7 type  2   force =     0.00567061   -0.01179321    0.00507099
     atom    8 type  2   force =    -0.00567061    0.01179321   -0.00507099
     atom    9 type  2   force =     0.00737791    0.01080750    0.00507099
     atom   10 type  2   force =    -0.00737791   -0.01080750   -0.00507099
     atom   11 type  2   force =    -0.01304852    0.00098571    0.00507099
     atom   12 type  2   force =     0.01304852   -0.00098571   -0.00507099
     atom   13 type  1   force =    -0.01738251    0.02262431   -0.04535381
     atom   14 type  1   force =     0.01738251   -0.02262431    0.04535381
     atom   15 type  1   force =    -0.01090197   -0.02636585   -0.04535381
     atom   16 type  1   force =     0.01090197    0.02636585    0.04535381
     atom   17 type  1   force =     0.02828448    0.00374154   -0.04535381
     atom   18 type  1   force =    -0.02828448   -0.00374154    0.04535381
     atom   19 type  1   force =     0.02135984   -0.01885420    0.04028671
     atom   20 type  1   force =    -0.02135984    0.01885420   -0.04028671
     atom   21 type  1   force =     0.00564830    0.02792526    0.04028671
     atom   22 type  1   force =    -0.00564830   -0.02792526   -0.04028671
     atom   23 type  1   force =    -0.02700813   -0.00907106    0.04028671
     atom   24 type  1   force =     0.02700813    0.00907106   -0.04028671
     atom   25 type  1   force =     0.00447703    0.01985199    0.00462822
     atom   26 type  1   force =    -0.00447703   -0.01985199   -0.00462822
     atom   27 type  1   force =    -0.01943084   -0.00604878    0.00462822
     atom   28 type  1   force =     0.01943084    0.00604878   -0.00462822
     atom   29 type  1   force =     0.01495382   -0.01380322    0.00462822
     atom   30 type  1   force =    -0.01495382    0.01380322   -0.00462822
     atom   31 type  1   force =     0.00685639   -0.02011764   -0.00841799
     atom   32 type  1   force =    -0.00685639    0.02011764    0.00841799
     atom   33 type  1   force =     0.01399419    0.01599663   -0.00841799
     atom   34 type  1   force =    -0.01399419   -0.01599663    0.00841799
     atom   35 type  1   force =    -0.02085058    0.00412101   -0.00841799
     atom   36 type  1   force =     0.02085058   -0.00412101    0.00841799

     Total force =     0.197963     Total SCF correction =     0.000127


     Computing stress (Cartesian axis) and pressure

          total   stress  (Ry/bohr**3)                   (kbar)     P=       28.32
   0.00014126   0.00000000  -0.00000000           20.78        0.00       -0.00
  -0.00000000   0.00014126   0.00000000           -0.00       20.78        0.00
   0.00000000   0.00000000   0.00029512            0.00        0.00       43.41

     Energy error            =      8.7E-02 Ry
     Gradient error          =      4.5E-02 Ry/Bohr

     number of scf cycles    =   2
     number of bfgs steps    =   1

     energy             old  =    -417.9277893846 Ry
     energy             new  =    -418.0150222191 Ry

     CASE: energy            _new < energy            _old

     new trust radius        =       0.0578200861 bohr
     new conv_thr            =       0.0000000454 Ry


ATOMIC_POSITIONS (crystal)
O                0.2733442758        0.0332822424        0.8583120674
O                0.7266557242        0.9667177686        0.1416879026
O                0.8583120674        0.2733442758        0.0332822424
O                0.1416879026        0.7266557242        0.9667177686
O                0.0332822424        0.8583120674        0.2733442758
O                0.9667177686        0.1416879026        0.7266557242
O                0.4718021097        0.7485048183        0.3302331417
O                0.5281978903        0.2514951817        0.6697668283
O                0.3302331417        0.4718021097        0.7485048183
O                0.6697668283        0.5281978903        0.2514951817
O                0.7485048183        0.3302331417        0.4718021097
O                0.2514951817        0.6697668283        0.5281978903
H                0.1571480824        0.0590667804        0.8023663483
H                0.8428519036        0.9409332116        0.1976336517
H                0.8023663483        0.1571480824        0.0590667804
H                0.1976336517        0.8428519036        0.9409332116
H                0.0590667804        0.8023663483        0.1571480824
H                0.9409332116        0.1976336517        0.8428519036
H                0.4193860019        0.2034627636        0.9987851542
H                0.5806139981        0.7965372514        0.0012148248
H                0.9987851542        0.4193860019        0.2034627636
H                0.0012148248        0.5806139981        0.7965372514
H                0.2034627636        0.9987851542        0.4193860019
H                0.7965372514        0.0012148248        0.5806139981
H                0.7202172322        0.4023903384        0.3979066100
H                0.2797827678        0.5976096316        0.6020934200
H                0.3979066100        0.7202172322        0.4023903384
H                0.6020934200        0.2797827678        0.5976096316
H                0.4023903384        0.3979066100        0.7202172322
H                0.5976096316        0.6020934200        0.2797827678
H                0.7416207733        0.2041329772        0.3642121896
H                0.2583792267        0.7958670078        0.6357878104
H                0.3642121896        0.7416207733        0.2041329772
H                0.6357878104        0.2583792267        0.7958670078
H                0.2041329772        0.3642121896        0.7416207733
H                0.7958670078        0.6357878104        0.2583792267



     Writing config-only to output data dir ./iceII/iceII.save/ :
     XML data file
     NEW-OLD atomic charge density approx. for the potential

     total cpu time spent up to now is       35.1 secs

     per-process dynamical memory:    20.1 Mb

     Self-consistent Calculation

     iteration #  1     ecut=    90.00 Ry     beta= 0.70
     Davidson diagonalization with overlap
     ethr =  1.00E-06,  avg # of iterations =  6.1

     total cpu time spent up to now is       36.8 secs

     total energy              =    -418.04348464 Ry
     estimated scf accuracy    <       0.00140943 Ry

     iteration #  2     ecut=    90.00 Ry     beta= 0.70
     Davidson diagonalization with overlap
     ethr =  1.47E-06,  avg # of iterations =  3.0

     total cpu time spent up to now is       37.8 secs

     total energy              =    -418.04379098 Ry
     estimated scf accuracy    <       0.00039005 Ry

     iteration #  3     ecut=    90.00 Ry     beta= 0.70
     Davidson diagonalization with overlap
     ethr =  4.06E-07,  avg # of iterations =  2.5

     total cpu time spent up to now is       38.8 secs

     total energy              =    -418.04386764 Ry
     estimated scf accuracy    <       0.00001637 Ry

     iteration #  4     ecut=    90.00 Ry     beta= 0.70
     Davidson diagonalization with overlap
     ethr =  1.71E-08,  avg # of iterations =  4.1

     total cpu time spent up to now is       40.0 secs

     total energy              =    -418.04387156 Ry
     estimated scf accuracy    <       0.00001207 Ry

     iteration #  5     ecut=    90.00 Ry     beta= 0.70
     Davidson diagonalization with overlap
     ethr =  1.26E-08,  avg # of iterations =  2.0

     total cpu time spent up to now is       40.9 secs

     total energy              =    -418.04387272 Ry
     estimated scf accuracy    <       0.00000102 Ry

     iteration #  6     ecut=    90.00 Ry     beta= 0.70
     Davidson diagonalization with overlap
     ethr =  1.06E-09,  avg # of iterations =  4.0

     total cpu time spent up to now is       42.1 secs

     total energy              =    -418.04387324 Ry
     estimated scf accuracy    <       0.00000055 Ry

     iteration #  7     ecut=    90.00 Ry     beta= 0.70
     Davidson diagonalization with overlap
     ethr =  5.73E-10,  avg # of iterations =  2.0

     total cpu time spent up to now is       43.1 secs

     End of self-consistent calculation

          k = 0.0000 0.0000 0.0000 ( 30703 PWs)   bands (ev):

   -21.4984 -21.0941 -21.0941 -20.8917 -20.8917 -20.8750 -20.8750 -20.8601
   -20.8464 -20.5867 -20.5867 -20.3314  -9.1044  -8.9271  -8.8761  -8.8761
    -8.8554  -8.8554  -8.4285  -8.4285  -8.3629  -8.3341  -8.3341  -8.1971
    -7.3026  -6.2199  -6.2199  -5.7109  -5.7109  -5.5865  -5.5865  -5.3015
    -5.2726  -4.6255  -4.6255  -3.9906  -3.4301  -3.4301  -3.3829  -3.2065
    -3.2065  -3.1888  -3.0653  -3.0253  -3.0253  -3.0115  -2.9521  -2.9521

          k =-0.1498-0.0865 0.3111 ( 30706 PWs)   bands (ev):

   -21.4328 -21.1267 -21.0850 -21.0202 -20.9971 -20.9353 -20.8099 -20.7704
   -20.7248 -20.5946 -20.5601 -20.3804  -9.0649  -8.9579  -8.9117  -8.8948
    -8.8368  -8.7803  -8.4591  -8.4263  -8.3551  -8.2953  -8.2674  -8.2409
    -7.1151  -6.3843  -6.2619  -5.9937  -5.8110  -5.5223  -5.4182  -5.2430
    -5.1387  -4.6210  -4.5510  -4.1218  -3.5272  -3.4658  -3.3839  -3.2622
    -3.2443  -3.1985  -3.1619  -3.0636  -3.0178  -2.9624  -2.9491  -2.9020

          k = 0.2996 0.1730-0.6221 ( 30702 PWs)   bands (ev):

   -21.2787 -21.2449 -21.1137 -21.0868 -21.0103 -20.9884 -20.7674 -20.7392
   -20.6269 -20.5852 -20.5157 -20.4861  -8.9996  -8.9893  -8.9309  -8.8999
    -8.8320  -8.7611  -8.4473  -8.4136  -8.3469  -8.3324  -8.2246  -8.2124
    -6.7559  -6.6485  -6.3185  -6.2372  -5.7746  -5.7035  -5.3004  -5.1725
    -4.7836  -4.7221  -4.4991  -4.3193  -3.6116  -3.4864  -3.3880  -3.3137
    -3.2708  -3.2665  -3.1482  -3.1098  -3.0706  -2.9439  -2.9078  -2.8599

          k =-0.1498 0.0865 0.6221 ( 30693 PWs)   bands (ev):

   -21.3021 -21.1775 -21.1655 -21.0638 -21.0398 -20.9854 -20.7648 -20.6964
   -20.6645 -20.5672 -20.5480 -20.4682  -9.0058  -8.9699  -8.9592  -8.8789
    -8.8371  -8.7595  -8.4407  -8.4231  -8.3823  -8.2726  -8.2429  -8.2179
    -6.7926  -6.5288  -6.4887  -6.0640  -5.8854  -5.7264  -5.2646  -5.0697
    -4.9534  -4.5908  -4.5489  -4.3270  -3.5930  -3.5181  -3.3765  -3.3007
    -3.2916  -3.2196  -3.1912  -3.0918  -3.0714  -2.9497  -2.9156  -2.8522

          k = 0.2996 0.3460-0.3111 ( 30683 PWs)   bands (ev):

   -21.3472 -21.2055 -21.1342 -21.0730 -21.0087 -20.9533 -20.7737 -20.7011
   -20.6360 -20.6205 -20.5344 -20.4492  -9.0295  -9.0006  -8.9088  -8.8785
    -8.8440  -8.7574  -8.5211  -8.4926  -8.4030  -8.2541  -8.2261  -8.1971
    -6.8525  -6.5351  -6.3059  -6.0957  -6.0724  -5.5690  -5.1772  -5.0980
    -4.9412  -4.6902  -4.5286  -4.2765  -3.5240  -3.4679  -3.3943  -3.3218
    -3.2344  -3.1812  -3.1466  -3.1236  -3.0538  -2.9929  -2.9147  -2.8332

          k = 0.1498 0.2595 0.0000 ( 30681 PWs)   bands (ev):

   -21.4509 -21.1616 -21.1125 -20.9882 -20.9607 -20.8908 -20.8322 -20.7698
   -20.7309 -20.5978 -20.5651 -20.3703  -9.0828  -8.9656  -8.9082  -8.8895
    -8.8102  -8.8009  -8.5430  -8.4837  -8.3607  -8.3128  -8.2627  -8.1935
    -7.1331  -6.3089  -6.2218  -6.0342  -5.9386  -5.4806  -5.3173  -5.1761
    -5.1237  -4.6735  -4.6062  -4.0703  -3.4323  -3.4165  -3.4033  -3.2810
    -3.2136  -3.1866  -3.0824  -3.0672  -3.0535  -3.0106  -2.9077  -2.8961

          k = 0.2996-0.1730-1.2442 ( 30636 PWs)   bands (ev):

   -21.3352 -21.3071 -21.1276 -21.0297 -20.9631 -20.9077 -20.7870 -20.7511
   -20.6546 -20.6251 -20.4826 -20.4595  -9.0431  -9.0110  -8.9149  -8.8977
    -8.7799  -8.7661  -8.6104  -8.5340  -8.3751  -8.3037  -8.2160  -8.1921
    -6.7252  -6.7186  -6.2497  -6.2084  -5.8547  -5.5958  -5.1844  -5.0497
    -4.8800  -4.8579  -4.4372  -4.2723  -3.4491  -3.4083  -3.3992  -3.3300
    -3.2221  -3.1520  -3.1361  -3.0968  -3.0609  -3.0147  -2.8748  -2.8618

          k = 0.0000 0.0000 0.9332 ( 30705 PWs)   bands (ev):

   -21.2496 -21.2496 -21.2036 -21.1184 -20.9775 -20.9775 -20.7075 -20.7075
   -20.6134 -20.5451 -20.5435 -20.5435  -9.0057  -9.0057  -8.9426  -8.8251
    -8.8251  -8.8249  -8.5486  -8.4636  -8.4636  -8.2076  -8.2076  -8.1798
    -6.6225  -6.6225  -6.5350  -6.1963  -5.8265  -5.8265  -4.9613  -4.9613
    -4.9584  -4.5918  -4.5918  -4.4869  -3.4785  -3.4785  -3.3760  -3.3318
    -3.2032  -3.2032  -3.1631  -3.1062  -3.1062  -2.9600  -2.9600  -2.8084

          k = 0.4494 0.2595 0.0000 ( 30650 PWs)   bands (ev):

   -21.3631 -21.2160 -21.2151 -21.0294 -20.9207 -20.9014 -20.7995 -20.7815
   -20.6584 -20.5702 -20.5358 -20.4394  -9.0460  -8.9932  -8.9546  -8.8557
    -8.8154  -8.7486  -8.6220  -8.4960  -8.4274  -8.2557  -8.2289  -8.1997
    -6.8488  -6.4629  -6.4207  -6.1925  -5.8317  -5.5672  -5.1883  -5.1625
    -4.8900  -4.6685  -4.5584  -4.2436  -3.4334  -3.4227  -3.3953  -3.3362
    -3.2333  -3.1671  -3.1240  -3.0946  -3.0382  -2.9918  -2.9281  -2.8405

          k = 0.2996 0.1730 0.3111 ( 30685 PWs)   bands (ev):

   -21.3886 -21.1687 -21.0956 -21.0745 -20.9894 -20.9483 -20.7813 -20.7612
   -20.6866 -20.5952 -20.5374 -20.4101  -9.0479  -8.9776  -8.9305  -8.8692
    -8.8491  -8.7351  -8.5388  -8.4150  -8.3534  -8.3345  -8.2405  -8.2339
    -6.9656  -6.3936  -6.2963  -6.0772  -5.9787  -5.5612  -5.3109  -5.1507
    -5.0322  -4.6422  -4.5399  -4.1592  -3.5412  -3.4701  -3.4153  -3.3172
    -3.2494  -3.2019  -3.1364  -3.0913  -3.0188  -2.9765  -2.9047  -2.8742

          k = 0.4494-0.2595-0.9332 ( 30665 PWs)   bands (ev):

   -21.2743 -21.2723 -21.1532 -21.0925 -20.9835 -20.9231 -20.8122 -20.7422
   -20.6176 -20.5824 -20.5320 -20.4510  -9.0201  -8.9971  -8.9515  -8.8680
    -8.8298  -8.7009  -8.5908  -8.4446  -8.3615  -8.3354  -8.2373  -8.2210
    -6.6795  -6.5704  -6.3157  -6.2436  -5.9608  -5.5806  -5.3530  -5.0941
    -4.7816  -4.6758  -4.5672  -4.2215  -3.5444  -3.4851  -3.4478  -3.3236
    -3.2821  -3.2426  -3.0925  -3.0590  -3.0396  -2.9865  -2.9077  -2.8358

          k = 0.2996-0.3460-0.6221 ( 30696 PWs)   bands (ev):

   -21.2493 -21.2123 -21.1386 -21.1286 -21.0175 -21.0069 -20.7494 -20.7349
   -20.6127 -20.5997 -20.5242 -20.4688  -9.0253  -8.9486  -8.9244  -8.8967
    -8.8729  -8.7069  -8.4729  -8.4439  -8.3302  -8.3210  -8.2466  -8.2411
    -6.6323  -6.5641  -6.3344  -6.3003  -5.8708  -5.8372  -5.1734  -5.1122
    -4.7900  -4.7487  -4.5375  -4.2468  -3.6327  -3.4976  -3.4502  -3.3525
    -3.3111  -3.1945  -3.1379  -3.0928  -3.0754  -2.9421  -2.9199  -2.8209

          k = 0.0000 0.0000-1.8663 ( 30600 PWs)   bands (ev):

   -21.2151 -21.1710 -21.1363 -21.1363 -21.0725 -21.0725 -20.6858 -20.6858
   -20.6477 -20.6477 -20.5196 -20.4520  -9.0366  -8.9178  -8.9178  -8.8961
    -8.8961  -8.6695  -8.4972  -8.4693  -8.2987  -8.2987  -8.2851  -8.2851
    -6.5253  -6.5221  -6.1658  -6.1658  -6.1321  -6.1321  -4.9890  -4.9890
    -4.8659  -4.8659  -4.5097  -4.1963  -3.6495  -3.4944  -3.4944  -3.3836
    -3.3836  -3.1500  -3.1460  -3.0382  -3.0382  -2.9565  -2.9565  -2.7899

          k = 0.2996-0.3460 0.3111 ( 30683 PWs)   bands (ev):

   -21.3465 -21.2128 -21.1134 -21.0881 -21.0071 -20.9553 -20.7681 -20.6960
   -20.6688 -20.5888 -20.5428 -20.4490  -9.0375  -8.9808  -8.9193  -8.8962
    -8.8174  -8.7669  -8.5426  -8.4739  -8.3979  -8.2536  -8.2276  -8.1993
    -6.8574  -6.4910  -6.3869  -6.1139  -5.9633  -5.6209  -5.2936  -4.9791
    -4.8654  -4.7279  -4.5887  -4.2544  -3.5302  -3.4483  -3.4068  -3.3143
    -3.2313  -3.1957  -3.1403  -3.1275  -3.0733  -2.9634  -2.9172  -2.8398

     highest occupied level (ev):    -2.7899

!    total energy              =    -418.04387330 Ry
     estimated scf accuracy    <       0.00000003 Ry

     The total energy is the sum of the following terms:
     one-electron contribution =    -301.57770159 Ry
     hartree contribution      =     184.91131522 Ry
     xc contribution           =    -106.00803913 Ry
     ewald contribution        =    -195.36944779 Ry

     convergence has been achieved in   7 iterations

     Forces acting on atoms (cartesian axes, Ry/au):

     atom    1 type  2   force =    -0.00261268    0.00099571    0.00336518
     atom    2 type  2   force =     0.00261268   -0.00099571   -0.00336518
     atom    3 type  2   force =     0.00044403   -0.00276050    0.00336518
     atom    4 type  2   force =    -0.00044403    0.00276050   -0.00336518
     atom    5 type  2   force =     0.00216865    0.00176479    0.00336518
     atom    6 type  2   force =    -0.00216865   -0.00176479   -0.00336518
     atom    7 type  2   force =     0.00525619   -0.00609918    0.00056661
     atom    8 type  2   force =    -0.00525619    0.00609918   -0.00056661
     atom    9 type  2   force =     0.00265394    0.00760158    0.00056661
     atom   10 type  2   force =    -0.00265394   -0.00760158   -0.00056661
     atom   11 type  2   force =    -0.00791014   -0.00150241    0.00056661
     atom   12 type  2   force =     0.00791014    0.00150241   -0.00056661
     atom   13 type  1   force =    -0.00886838    0.00636976   -0.02504570
     atom   14 type  1   force =     0.00886838   -0.00636976    0.02504570
     atom   15 type  1   force =    -0.00108219   -0.01086512   -0.02504570
     atom   16 type  1   force =     0.00108219    0.01086512    0.02504570
     atom   17 type  1   force =     0.00995056    0.00449536   -0.02504570
     atom   18 type  1   force =    -0.00995056   -0.00449536    0.02504570
     atom   19 type  1   force =     0.01514274   -0.01101489    0.01547835
     atom   20 type  1   force =    -0.01514274    0.01101489   -0.01547835
     atom   21 type  1   force =     0.00196781    0.01862145    0.01547835
     atom   22 type  1   force =    -0.00196781   -0.01862145   -0.01547835
     atom   23 type  1   force =    -0.01711055   -0.00760655    0.01547835
     atom   24 type  1   force =     0.01711055    0.00760655   -0.01547835
     atom   25 type  1   force =     0.00483196    0.01299499    0.00396793
     atom   26 type  1   force =    -0.00483196   -0.01299499   -0.00396793
     atom   27 type  1   force =    -0.01366998   -0.00231289    0.00396793
     atom   28 type  1   force =     0.01366998    0.00231289   -0.00396793
     atom   29 type  1   force =     0.00883801   -0.01068210    0.00396793
     atom   30 type  1   force =    -0.00883801    0.01068210   -0.00396793
     atom   31 type  1   force =     0.00185427   -0.01168527   -0.00377968
     atom   32 type  1   force =    -0.00185427    0.01168527    0.00377968
     atom   33 type  1   force =     0.00919261    0.00744848   -0.00377968
     atom   34 type  1   force =    -0.00919261   -0.00744848    0.00377968
     atom   35 type  1   force =    -0.01104688    0.00423679   -0.00377968
     atom   36 type  1   force =     0.01104688   -0.00423679    0.00377968

     Total force =     0.103438     Total SCF correction =     0.000232


     Computing stress (Cartesian axis) and pressure

          total   stress  (Ry/bohr**3)                   (kbar)     P=       11.90
   0.00005274   0.00000000   0.00000000            7.76        0.00        0.00
  -0.00000000   0.00005274   0.00000000           -0.00        7.76        0.00
   0.00000000   0.00000000   0.00013731            0.00        0.00       20.20

     Energy error            =      2.9E-02 Ry
     Gradient error          =      2.5E-02 Ry/Bohr

     number of scf cycles    =   3
     number of bfgs steps    =   2

     energy             old  =    -418.0150222191 Ry
     energy             new  =    -418.0438732950 Ry

     CASE: energy            _new < energy            _old

     new trust radius        =       0.0636020947 bohr
     new conv_thr            =       0.0000000250 Ry


ATOMIC_POSITIONS (crystal)
O                0.2736765500        0.0356393708        0.8597668547
O                0.7263234500        0.9643606402        0.1402331153
O                0.8597668547        0.2736765500        0.0356393708
O                0.1402331153        0.7263234500        0.9643606402
O                0.0356393708        0.8597668547        0.2736765500
O                0.9643606402        0.1402331153        0.7263234500
O                0.4712928574        0.7478114284        0.3298418870
O                0.5287071426        0.2521885716        0.6701580830
O                0.3298418870        0.4712928574        0.7478114284
O                0.6701580830        0.5287071426        0.2521885716
O                0.7478114284        0.3298418870        0.4712928574
O                0.2521885716        0.6701580830        0.5287071426
H                0.1512774434        0.0541250911        0.7977392403
H                0.8487225426        0.9458749009        0.2022607597
H                0.7977392403        0.1512774434        0.0541250911
H                0.2022607597        0.8487225426        0.9458749009
H                0.0541250911        0.7977392403        0.1512774434
H                0.9458749009        0.2022607597        0.8487225426
H                0.4242213934        0.2044540019        1.0006703113
H                0.5757786066        0.7955460131       -0.0006703323
H                1.0006703113        0.4242213934        0.2044540019
H               -0.0006703323        0.5757786066        0.7955460131
H                0.2044540019        1.0006703113        0.4242213934
H                0.7955460131       -0.0006703323        0.5757786066
H                0.7208373490        0.4042476951        0.3981796634
H                0.2791626510        0.5957522749        0.6018203666
H                0.3981796634        0.7208373490        0.4042476951
H                0.6018203666        0.2791626510        0.5957522749
H                0.4042476951        0.3981796634        0.7208373490
H                0.5957522749        0.6018203666        0.2791626510
H                0.7417905693        0.2029007658        0.3648226202
H                0.2582094307        0.7970992192        0.6351773798
H                0.3648226202        0.7417905693        0.2029007658
H                0.6351773798        0.2582094307        0.7970992192
H                0.2029007658        0.3648226202        0.7417905693
H                0.7970992192        0.6351773798        0.2582094307



     Writing config-only to output data dir ./iceII/iceII.save/ :
     XML data file
     NEW-OLD atomic charge density approx. for the potential

     total cpu time spent up to now is       44.6 secs

     per-process dynamical memory:    21.6 Mb

     Self-consistent Calculation

     iteration #  1     ecut=    90.00 Ry     beta= 0.70
     Davidson diagonalization with overlap
     ethr =  1.00E-06,  avg # of iterations =  7.0

     total cpu time spent up to now is       46.3 secs

     total energy              =    -418.05734710 Ry
     estimated scf accuracy    <       0.00135085 Ry

     iteration #  2     ecut=    90.00 Ry     beta= 0.70
     Davidson diagonalization with overlap
     ethr =  1.41E-06,  avg # of iterations =  2.7

     total cpu time spent up to now is       47.3 secs

     total energy              =    -418.05759637 Ry
     estimated scf accuracy    <       0.00022480 Ry

     iteration #  3     ecut=    90.00 Ry     beta= 0.70
     Davidson diagonalization with overlap
     ethr =  2.34E-07,  avg # of iterations =  2.8

     total cpu time spent up to now is       48.3 secs

     total energy              =    -418.05764561 Ry
     estimated scf accuracy    <       0.00001701 Ry

     iteration #  4     ecut=    90.00 Ry     beta= 0.70
     Davidson diagonalization with overlap
     ethr =  1.77E-08,  avg # of iterations =  2.0

     total cpu time spent up to now is       49.2 secs

     total energy              =    -418.05764689 Ry
     estimated scf accuracy    <       0.00000170 Ry

     iteration #  5     ecut=    90.00 Ry     beta= 0.70
     Davidson diagonalization with overlap
     ethr =  1.77E-09,  avg # of iterations =  2.9

     total cpu time spent up to now is       50.2 secs

     total energy              =    -418.05764737 Ry
     estimated scf accuracy    <       0.00000006 Ry

     iteration #  6     ecut=    90.00 Ry     beta= 0.70
     Davidson diagonalization with overlap
     ethr =  6.60E-11,  avg # of iterations =  3.0

     total cpu time spent up to now is       51.4 secs

     total energy              =    -418.05764739 Ry
     estimated scf accuracy    <       0.00000003 Ry

     iteration #  7     ecut=    90.00 Ry     beta= 0.70
     Davidson diagonalization with overlap
     ethr =  2.98E-11,  avg # of iterations =  2.5

     total cpu time spent up to now is       52.3 secs

     End of self-consistent calculation

          k = 0.0000 0.0000 0.0000 ( 30703 PWs)   bands (ev):

   -21.4029 -20.9995 -20.9995 -20.7732 -20.7732 -20.7730 -20.7730 -20.7495
   -20.7390 -20.4643 -20.4643 -20.2109  -9.0820  -8.9196  -8.9196  -8.9081
    -8.8459  -8.8459  -8.5134  -8.5046  -8.5046  -8.4820  -8.4820  -8.3609
    -7.1761  -6.0823  -6.0823  -5.6289  -5.6289  -5.4325  -5.4325  -5.1822
    -5.1397  -4.5085  -4.5085  -3.8742  -3.4025  -3.4025  -3.3629  -3.1867
    -3.1867  -3.1514  -3.0526  -2.9974  -2.9974  -2.9663  -2.9235  -2.9235

          k =-0.1498-0.0865 0.3111 ( 30706 PWs)   bands (ev):

   -21.3373 -21.0307 -20.9968 -20.9068 -20.8809 -20.8278 -20.7025 -20.6595
   -20.6169 -20.4720 -20.4382 -20.2591  -9.0447  -8.9645  -8.9243  -8.8875
    -8.8401  -8.7893  -8.5695  -8.5374  -8.5021  -8.4244  -8.4037  -8.3854
    -6.9934  -6.2606  -6.1266  -5.8791  -5.7295  -5.4189  -5.2406  -5.1380
    -4.9728  -4.5077  -4.4366  -4.0119  -3.4918  -3.4354  -3.3620  -3.2389
    -3.2257  -3.1702  -3.1320  -3.0305  -2.9946  -2.9371  -2.9196  -2.8784

          k = 0.2996 0.1730-0.6221 ( 30702 PWs)   bands (ev):

   -21.1931 -21.1375 -21.0245 -20.9692 -20.9075 -20.8732 -20.6665 -20.6216
   -20.5236 -20.4603 -20.4038 -20.3541  -8.9878  -8.9845  -8.9200  -8.9037
    -8.8348  -8.7630  -8.5745  -8.5531  -8.4843  -8.4613  -8.3603  -8.3423
    -6.6096  -6.5537  -6.1629  -6.1623  -5.6654  -5.6290  -5.1010  -5.0269
    -4.6338  -4.6062  -4.3937  -4.2355  -3.5667  -3.4563  -3.3626  -3.2864
    -3.2509  -3.2313  -3.1229  -3.0929  -3.0405  -2.9257  -2.8740  -2.8398

          k =-0.1498 0.0865 0.6221 ( 30693 PWs)   bands (ev):

   -21.2103 -21.0807 -21.0645 -20.9597 -20.9253 -20.8764 -20.6564 -20.5923
   -20.5499 -20.4493 -20.4287 -20.3413  -8.9951  -8.9579  -8.9575  -8.8844
    -8.8356  -8.7594  -8.5709  -8.5585  -8.5203  -8.4000  -8.3781  -8.3520
    -6.6662  -6.4095  -6.3706  -5.9540  -5.7907  -5.6263  -5.1033  -4.8876
    -4.8141  -4.4926  -4.4272  -4.2438  -3.5490  -3.4841  -3.3541  -3.2797
    -3.2527  -3.1982  -3.1676  -3.0648  -3.0491  -2.9290  -2.8859  -2.8295

          k = 0.2996 0.3460-0.3111 ( 30683 PWs)   bands (ev):

   -21.2517 -21.1096 -21.0448 -20.9576 -20.8938 -20.8462 -20.6663 -20.5991
   -20.5203 -20.5025 -20.4106 -20.3255  -9.0122  -8.9900  -8.9039  -8.8822
    -8.8475  -8.7607  -8.6454  -8.6194  -8.5487  -8.3878  -8.3652  -8.3330
    -6.7278  -6.3895  -6.2008  -6.0087  -5.9440  -5.4547  -5.0160  -4.9297
    -4.8493  -4.5639  -4.4160  -4.1741  -3.4875  -3.4406  -3.3681  -3.3004
    -3.2071  -3.1487  -3.1268  -3.0974  -3.0336  -2.9707  -2.8795  -2.8077

          k = 0.1498 0.2595 0.0000 ( 30681 PWs)   bands (ev):

   -21.3550 -21.0670 -21.0175 -20.8792 -20.8489 -20.7759 -20.7283 -20.6600
   -20.6239 -20.4757 -20.4409 -20.2495  -9.0606  -8.9602  -8.9267  -8.8797
    -8.8224  -8.8176  -8.6521  -8.5882  -8.5119  -8.4377  -8.3935  -8.3490
    -7.0064  -6.1488  -6.1162  -5.9153  -5.8422  -5.3460  -5.1832  -5.0349
    -5.0151  -4.5524  -4.4937  -3.9513  -3.4062  -3.3888  -3.3831  -3.2612
    -3.1905  -3.1523  -3.0684  -3.0382  -3.0253  -2.9782  -2.8769  -2.8652

          k = 0.2996-0.1730-1.2442 ( 30636 PWs)   bands (ev):

   -21.2372 -21.2129 -21.0327 -20.9208 -20.8550 -20.7905 -20.6875 -20.6389
   -20.5481 -20.4995 -20.3643 -20.3336  -9.0236  -8.9928  -8.9215  -8.8814
    -8.7948  -8.7691  -8.7425  -8.6549  -8.5296  -8.4255  -8.3612  -8.3310
    -6.5942  -6.5871  -6.1196  -6.1141  -5.7369  -5.4566  -5.0324  -4.9469
    -4.7825  -4.7051  -4.3244  -4.1572  -3.4236  -3.3838  -3.3731  -3.3111
    -3.1969  -3.1172  -3.1073  -3.0817  -3.0365  -2.9869  -2.8418  -2.8317

          k = 0.0000 0.0000 0.9332 ( 30705 PWs)   bands (ev):

   -21.1511 -21.1511 -21.1243 -20.9908 -20.8712 -20.8712 -20.5967 -20.5967
   -20.5231 -20.4231 -20.4231 -20.4058  -8.9914  -8.9914  -8.9288  -8.8441
    -8.8267  -8.8267  -8.6745  -8.6003  -8.6003  -8.3412  -8.3412  -8.3182
    -6.4975  -6.4975  -6.3494  -6.1612  -5.7132  -5.7132  -4.8193  -4.8193
    -4.7463  -4.4910  -4.4910  -4.4128  -3.4463  -3.4463  -3.3465  -3.3175
    -3.1727  -3.1727  -3.1340  -3.0890  -3.0890  -2.9291  -2.9290  -2.7823

          k = 0.4494 0.2595 0.0000 ( 30650 PWs)   bands (ev):

   -21.2666 -21.1217 -21.1181 -20.9139 -20.8229 -20.7888 -20.6918 -20.6636
   -20.5560 -20.4498 -20.4115 -20.3166  -9.0245  -8.9772  -8.9483  -8.8528
    -8.8283  -8.7539  -8.7479  -8.6218  -8.5738  -8.3934  -8.3590  -8.3461
    -6.7198  -6.3138  -6.2956  -6.1160  -5.7015  -5.4256  -5.0746  -5.0413
    -4.7382  -4.5543  -4.4492  -4.1278  -3.4077  -3.3952  -3.3720  -3.3168
    -3.2082  -3.1379  -3.1017  -3.0697  -3.0101  -2.9649  -2.8997  -2.8073

          k = 0.2996 0.1730 0.3111 ( 30685 PWs)   bands (ev):

   -21.2930 -21.0742 -21.0069 -20.9611 -20.8739 -20.8369 -20.6767 -20.6569
   -20.5641 -20.4839 -20.4132 -20.2872  -9.0279  -8.9740  -8.9293  -8.8601
    -8.8560  -8.7466  -8.6533  -8.5330  -8.4913  -8.4817  -8.3908  -8.3626
    -6.8442  -6.2751  -6.1880  -5.9204  -5.8836  -5.4452  -5.1366  -5.0307
    -4.9319  -4.5110  -4.4268  -4.0485  -3.5030  -3.4415  -3.3899  -3.2907
    -3.2284  -3.1744  -3.1099  -3.0663  -2.9998  -2.9519  -2.8810  -2.8396

          k = 0.4494-0.2595-0.9332 ( 30665 PWs)   bands (ev):

   -21.1811 -21.1749 -21.0587 -20.9792 -20.8742 -20.8146 -20.7027 -20.6331
   -20.4951 -20.4786 -20.4134 -20.3220  -9.0018  -8.9822  -8.9412  -8.8611
    -8.8273  -8.7246  -8.6910  -8.5868  -8.5143  -8.4694  -8.3807  -8.3573
    -6.5642  -6.4463  -6.2157  -6.1228  -5.8131  -5.4274  -5.2317  -4.9895
    -4.6725  -4.5300  -4.4552  -4.1109  -3.5037  -3.4554  -3.4177  -3.2987
    -3.2551  -3.2219  -3.0715  -3.0352  -3.0206  -2.9645  -2.8819  -2.8004

          k = 0.2996-0.3460-0.6221 ( 30696 PWs)   bands (ev):

   -21.1654 -21.1048 -21.0469 -21.0180 -20.9079 -20.8919 -20.6473 -20.6236
   -20.4965 -20.4760 -20.4225 -20.3336  -9.0094  -8.9389  -8.9125  -8.8964
    -8.8704  -8.7034  -8.6011  -8.5841  -8.4733  -8.4560  -8.3858  -8.3773
    -6.5059  -6.4699  -6.2172  -6.1790  -5.7469  -5.7080  -5.0210  -4.9676
    -4.6783  -4.6509  -4.3874  -4.1671  -3.5771  -3.4669  -3.4210  -3.3248
    -3.2808  -3.1783  -3.1106  -3.0723  -3.0548  -2.9235  -2.8980  -2.7881

          k = 0.0000 0.0000-1.8663 ( 30600 PWs)   bands (ev):

   -21.1331 -21.0517 -21.0517 -21.0459 -20.9516 -20.9516 -20.5891 -20.5891
   -20.5156 -20.5156 -20.4232 -20.3158  -9.0149  -8.9064  -8.9064  -8.8877
    -8.8877  -8.6543  -8.6263  -8.6164  -8.4460  -8.4460  -8.4263  -8.4263
    -6.4920  -6.3557  -6.0857  -6.0857  -5.9409  -5.9409  -4.8178  -4.8178
    -4.8057  -4.8057  -4.3520  -4.1176  -3.5779  -3.4639  -3.4639  -3.3575
    -3.3575  -3.1395  -3.1186  -3.0188  -3.0188  -2.9365  -2.9365  -2.7542

          k = 0.2996-0.3460 0.3111 ( 30683 PWs)   bands (ev):

   -21.2505 -21.1202 -21.0243 -20.9680 -20.8946 -20.8489 -20.6559 -20.5995
   -20.5521 -20.4674 -20.4218 -20.3247  -9.0178  -8.9760  -8.9171  -8.8858
    -8.8245  -8.7760  -8.6685  -8.5992  -8.5429  -8.3816  -8.3696  -8.3369
    -6.7285  -6.3902  -6.2264  -5.9816  -5.9074  -5.5036  -5.1140  -4.8333
    -4.7557  -4.6010  -4.4838  -4.1495  -3.4935  -3.4212  -3.3784  -3.2958
    -3.2042  -3.1640  -3.1176  -3.1008  -3.0555  -2.9409  -2.8823  -2.8136

     highest occupied level (ev):    -2.7542

!    total energy              =    -418.05764740 Ry
     estimated scf accuracy    <          5.9E-10 Ry

     The total energy is the sum of the following terms:
     one-electron contribution =    -299.92540404 Ry
     hartree contribution      =     184.17595911 Ry
     xc contribution           =    -105.89074520 Ry
     ewald contribution        =    -196.41745727 Ry

     convergence has been achieved in   7 iterations

     Forces acting on atoms (cartesian axes, Ry/au):

     atom    1 type  2   force =    -0.00056351   -0.00345604   -0.00323458
     atom    2 type  2   force =     0.00056351    0.00345604    0.00323458
     atom    3 type  2   force =     0.00327477    0.00124001   -0.00323458
     atom    4 type  2   force =    -0.00327477   -0.00124001    0.00323458
     atom    5 type  2   force =    -0.00271126    0.00221603   -0.00323458
     atom    6 type  2   force =     0.00271126   -0.00221603    0.00323458
     atom    7 type  2   force =    -0.00265602   -0.00384311   -0.00334065
     atom    8 type  2   force =     0.00265602    0.00384311    0.00334065
     atom    9 type  2   force =     0.00465624   -0.00037862   -0.00334065
     atom   10 type  2   force =    -0.00465624    0.00037862    0.00334065
     atom   11 type  2   force =    -0.00200022    0.00422174   -0.00334065
     atom   12 type  2   force =     0.00200022   -0.00422174    0.00334065
     atom   13 type  1   force =    -0.00411876   -0.00065420   -0.00524226
     atom   14 type  1   force =     0.00411876    0.00065420    0.00524226
     atom   15 type  1   force =     0.00262593   -0.00323985   -0.00524226
     atom   16 type  1   force =    -0.00262593    0.00323985    0.00524226
     atom   17 type  1   force =     0.00149283    0.00389405   -0.00524226
     atom   18 type  1   force =    -0.00149283   -0.00389405    0.00524226
     atom   19 type  1   force =     0.00807539    0.00141444    0.00333119
     atom   20 type  1   force =    -0.00807539   -0.00141444   -0.00333119
     atom   21 type  1   force =    -0.00526264    0.00628627    0.00333119
     atom   22 type  1   force =     0.00526264   -0.00628627   -0.00333119
     atom   23 type  1   force =    -0.00281275   -0.00770071    0.00333119
     atom   24 type  1   force =     0.00281275    0.00770071   -0.00333119
     atom   25 type  1   force =     0.00280147   -0.00152074    0.00346865
     atom   26 type  1   force =    -0.00280147    0.00152074   -0.00346865
     atom   27 type  1   force =    -0.00008374    0.00318651    0.00346865
     atom   28 type  1   force =     0.00008374   -0.00318651   -0.00346865
     atom   29 type  1   force =    -0.00271773   -0.00166577    0.00346865
     atom   30 type  1   force =     0.00271773    0.00166577   -0.00346865
     atom   31 type  1   force =    -0.00150426   -0.00363042   -0.00046086
     atom   32 type  1   force =     0.00150426    0.00363042    0.00046086
     atom   33 type  1   force =     0.00389617    0.00051248   -0.00046086
     atom   34 type  1   force =    -0.00389617   -0.00051248    0.00046086
     atom   35 type  1   force =    -0.00239190    0.00311794   -0.00046086
     atom   36 type  1   force =     0.00239190   -0.00311794    0.00046086

     Total force =     0.036061     Total SCF correction =     0.000063


     Computing stress (Cartesian axis) and pressure

          total   stress  (Ry/bohr**3)                   (kbar)     P=       -1.09
  -0.00003254   0.00000000  -0.00000000           -4.79        0.00       -0.00
  -0.00000000  -0.00003254  -0.00000000           -0.00       -4.79       -0.00
   0.00000000  -0.00000000   0.00004292            0.00       -0.00        6.31

     Energy error            =      1.4E-02 Ry
     Gradient error          =      8.1E-03 Ry/Bohr

     number of scf cycles    =   4
     number of bfgs steps    =   3

     energy             old  =    -418.0438732950 Ry
     energy             new  =    -418.0576473957 Ry

     CASE: energy            _new < energy            _old

     new trust radius        =       0.0208560690 bohr
     new conv_thr            =       0.0000000081 Ry


ATOMIC_POSITIONS (crystal)
O                0.2734755655        0.0357554923        0.8599191801
O                0.7265244345        0.9642445187        0.1400807899
O                0.8599191801        0.2734755655        0.0357554923
O                0.1400807899        0.7265244345        0.9642445187
O                0.0357554923        0.8599191801        0.2734755655
O                0.9642445187        0.1400807899        0.7265244345
O                0.4706568258        0.7470827248        0.3296185350
O                0.5293431742        0.2529172752        0.6703814350
O                0.3296185350        0.4706568258        0.7470827248
O                0.6703814350        0.5293431742        0.2529172752
O                0.7470827248        0.3296185350        0.4706568258
O                0.2529172752        0.6703814350        0.5293431742
H                0.1493993455        0.0524699959        0.7964746388
H                0.8506006405        0.9475299961        0.2035253612
H                0.7964746388        0.1493993455        0.0524699959
H                0.2035253612        0.8506006405        0.9475299961
H                0.0524699959        0.7964746388        0.1493993455
H                0.9475299961        0.2035253612        0.8506006405
H                0.4258667500        0.2049797828        1.0009010824
H                0.5741332500        0.7950202322       -0.0009011034
H                1.0009010824        0.4258667500        0.2049797828
H               -0.0009011034        0.5741332500        0.7950202322
H                0.2049797828        1.0009010824        0.4258667500
H                0.7950202322       -0.0009011034        0.5741332500
H                0.7215216074        0.4048570026        0.3985731915
H                0.2784783926        0.5951429674        0.6014268385
H                0.3985731915        0.7215216074        0.4048570026
H                0.6014268385        0.2784783926        0.5951429674
H                0.4048570026        0.3985731915        0.7215216074
H                0.5951429674        0.6014268385        0.2784783926
H                0.7418171219        0.2024841474        0.3651788408
H                0.2581828781        0.7975158376        0.6348211592
H                0.3651788408        0.7418171219        0.2024841474
H                0.6348211592        0.2581828781        0.7975158376
[...]
H                0.9619391574        0.2094993018        0.8564391738
H                0.4232450493        0.1976458443        0.9845296103
H                0.5767549507        0.8023541707        0.0154703687
H                0.9845296103        0.4232450493        0.1976458443
H                0.0154703687        0.5767549507        0.8023541707
H                0.1976458443        0.9845296103        0.4232450493
H                0.8023541707        0.0154703687        0.5767549507
H                0.7294892243        0.4062392181        0.4053114149
H                0.2705107757        0.5937607519        0.5946886151
H                0.4053114149        0.7294892243        0.4062392181
H                0.5946886151        0.2705107757        0.5937607519
H                0.4062392181        0.4053114149        0.7294892243
H                0.5937607519        0.5946886151        0.2705107757
H                0.7421719104        0.1999474494        0.3687558938
H                0.2578280896        0.8000525356        0.6312441062
H                0.3687558938        0.7421719104        0.1999474494
H                0.6312441062        0.2578280896        0.8000525356
H                0.1999474494        0.3687558938        0.7421719104
H                0.8000525356        0.6312441062        0.2578280896



     Writing config-only to output data dir ./iceII/iceII.save/ :
     XML data file
     NEW-OLD atomic charge density approx. for the potential

     total cpu time spent up to now is      232.3 secs

     per-process dynamical memory:    35.8 Mb

     Self-consistent Calculation

     iteration #  1     ecut=    90.00 Ry     beta= 0.70
     Davidson diagonalization with overlap
     ethr =  1.00E-06,  avg # of iterations =  3.0

     Threshold (ethr) on eigenvalues was too large:
     Diagonalizing with lowered threshold

     Davidson diagonalization with overlap
     ethr =  3.50E-08,  avg # of iterations =  2.1

     total cpu time spent up to now is      234.2 secs

     total energy              =    -418.06690982 Ry
     estimated scf accuracy    <       0.00003807 Ry

     iteration #  2     ecut=    90.00 Ry     beta= 0.70
     Davidson diagonalization with overlap
     ethr =  3.97E-08,  avg # of iterations =  2.0

     total cpu time spent up to now is      235.2 secs

     total energy              =    -418.06691611 Ry
     estimated scf accuracy    <       0.00000284 Ry

     iteration #  3     ecut=    90.00 Ry     beta= 0.70
     Davidson diagonalization with overlap
     ethr =  2.96E-09,  avg # of iterations =  2.6

     total cpu time spent up to now is      236.2 secs

     total energy              =    -418.06691676 Ry
     estimated scf accuracy    <       0.00000045 Ry

     iteration #  4     ecut=    90.00 Ry     beta= 0.70
     Davidson diagonalization with overlap
     ethr =  4.64E-10,  avg # of iterations =  2.6

     total cpu time spent up to now is      237.2 secs

     total energy              =    -418.06691686 Ry
     estimated scf accuracy    <       0.00000003 Ry

     iteration #  5     ecut=    90.00 Ry     beta= 0.70
     Davidson diagonalization with overlap
     ethr =  3.35E-11,  avg # of iterations =  2.8

     total cpu time spent up to now is      238.2 secs

     total energy              =    -418.06691687 Ry
     estimated scf accuracy    <          2.1E-09 Ry

     iteration #  6     ecut=    90.00 Ry     beta= 0.70
     Davidson diagonalization with overlap
     ethr =  2.22E-12,  avg # of iterations =  3.1

     total cpu time spent up to now is      239.3 secs

     End of self-consistent calculation

          k = 0.0000 0.0000 0.0000 ( 30703 PWs)   bands (ev):

   -21.3685 -20.9434 -20.9434 -20.7613 -20.7613 -20.7397 -20.7272 -20.7272
   -20.7174 -20.4635 -20.4635 -20.1824  -8.9536  -8.8876  -8.8876  -8.8510
    -8.7851  -8.7851  -8.5192  -8.5192  -8.5057  -8.5046  -8.4692  -8.4692
    -7.0908  -6.1182  -6.1182  -5.5358  -5.5358  -5.3819  -5.3819  -5.2166
    -5.1328  -4.4893  -4.4893  -3.7929  -3.3721  -3.3721  -3.3418  -3.2094
    -3.2094  -3.1676  -3.0638  -3.0638  -3.0389  -2.9700  -2.9231  -2.9231

          k =-0.1498-0.0865 0.3111 ( 30706 PWs)   bands (ev):

   -21.3018 -20.9827 -20.9357 -20.8863 -20.8516 -20.7953 -20.6842 -20.6460
   -20.5931 -20.4653 -20.4285 -20.2346  -8.9215  -8.8996  -8.8777  -8.8375
    -8.7754  -8.7492  -8.5711  -8.5449  -8.5422  -8.4706  -8.4270  -8.4124
    -6.9382  -6.2748  -6.1489  -5.8384  -5.6107  -5.3890  -5.2286  -5.1134
    -4.9533  -4.4806  -4.4228  -3.9330  -3.4505  -3.3882  -3.3512  -3.2682
    -3.2562  -3.2052  -3.1154  -3.0539  -3.0043  -2.9870  -2.9329  -2.9143

          k = 0.2996 0.1730-0.6221 ( 30702 PWs)   bands (ev):

   -21.1308 -21.1269 -20.9616 -20.9590 -20.8503 -20.8469 -20.6422 -20.6370
   -20.4770 -20.4582 -20.3632 -20.3587  -8.9080  -8.8910  -8.8427  -8.8377
    -8.7737  -8.7167  -8.5968  -8.5881  -8.5413  -8.4638  -8.3846  -8.3726
    -6.6187  -6.5353  -6.1454  -6.1277  -5.5942  -5.5376  -5.1105  -5.0411
    -4.6003  -4.5414  -4.3857  -4.1663  -3.5216  -3.4085  -3.3371  -3.3291
    -3.2774  -3.2465  -3.1573  -3.0573  -3.0567  -2.9616  -2.9142  -2.9009

          k =-0.1498 0.0865 0.6221 ( 30693 PWs)   bands (ev):

   -21.1681 -21.0430 -21.0269 -20.9213 -20.8939 -20.8395 -20.6457 -20.5771
   -20.5310 -20.4251 -20.4109 -20.3292  -8.9084  -8.8851  -8.8497  -8.8436
    -8.7659  -8.7116  -8.5929  -8.5857  -8.5691  -8.4238  -8.4027  -8.3787
    -6.6658  -6.3971  -6.3521  -5.9253  -5.7195  -5.5526  -5.1075  -4.8859
    -4.7704  -4.4603  -4.3908  -4.1834  -3.5066  -3.4341  -3.3293  -3.3148
    -3.2688  -3.2485  -3.1734  -3.0595  -3.0387  -2.9695  -2.9308  -2.8867

          k = 0.2996 0.3460-0.3111 ( 30683 PWs)   bands (ev):

   -21.2133 -21.0641 -20.9839 -20.9370 -20.8805 -20.8232 -20.6401 -20.5526
   -20.5283 -20.4674 -20.4028 -20.3115  -8.9082  -8.9022  -8.8609  -8.8207
    -8.7701  -8.7417  -8.6436  -8.6058  -8.5777  -8.4381  -8.4129  -8.3767
    -6.6742  -6.3734  -6.2009  -5.9731  -5.8886  -5.4162  -5.0242  -4.9317
    -4.7810  -4.5093  -4.3904  -4.1305  -3.4496  -3.4001  -3.3441  -3.3055
    -3.2482  -3.1929  -3.1328  -3.1038  -3.0162  -3.0100  -2.9169  -2.8518

          k = 0.1498 0.2595 0.0000 ( 30681 PWs)   bands (ev):

   -21.3197 -21.0110 -20.9588 -20.8600 -20.8422 -20.7693 -20.6843 -20.6218
   -20.5917 -20.4711 -20.4430 -20.2252  -8.9363  -8.8905  -8.8846  -8.8374
    -8.7852  -8.7761  -8.6068  -8.5729  -8.5446  -8.4729  -8.4501  -8.4133
    -6.9261  -6.1673  -6.0792  -5.8654  -5.8420  -5.3160  -5.1308  -5.0125
    -4.9892  -4.5196  -4.4799  -3.8906  -3.3749  -3.3596  -3.3544  -3.2596
    -3.2122  -3.1866  -3.1050  -3.0864  -3.0228  -2.9925  -2.8959  -2.8790

          k = 0.2996-0.1730-1.2442 ( 30636 PWs)   bands (ev):

   -21.2076 -21.1584 -20.9694 -20.9074 -20.8392 -20.7913 -20.6292 -20.6127
   -20.5066 -20.5032 -20.3370 -20.3357  -8.9131  -8.8947  -8.8723  -8.8245
    -8.7796  -8.7779  -8.6708  -8.6146  -8.5656  -8.4487  -8.4462  -8.3946
    -6.5362  -6.4898  -6.1729  -6.0174  -5.7917  -5.4483  -4.9503  -4.9349
    -4.7794  -4.6261  -4.2825  -4.1462  -3.3848  -3.3558  -3.3419  -3.2975
    -3.2149  -3.1831  -3.1473  -3.0821  -3.0662  -2.9837  -2.8648  -2.8562

          k = 0.0000 0.0000 0.9332 ( 30705 PWs)   bands (ev):

   -21.1162 -21.1162 -21.0257 -21.0122 -20.8450 -20.8450 -20.5698 -20.5698
   -20.4616 -20.4385 -20.4024 -20.4024  -8.9018  -8.9018  -8.8641  -8.7826
    -8.7826  -8.7707  -8.6840  -8.6073  -8.6073  -8.3896  -8.3896  -8.3683
    -6.4452  -6.4452  -6.3928  -6.0401  -5.7163  -5.7163  -4.7978  -4.7978
    -4.7142  -4.4486  -4.4486  -4.3684  -3.4052  -3.4052  -3.3256  -3.2906
    -3.2231  -3.2231  -3.1860  -3.0687  -3.0687  -2.9654  -2.9654  -2.8285

          k = 0.4494 0.2595 0.0000 ( 30650 PWs)   bands (ev):

   -21.2298 -21.0789 -21.0587 -20.9099 -20.7859 -20.7797 -20.6569 -20.6431
   -20.5032 -20.4359 -20.4126 -20.3031  -8.9109  -8.8877  -8.8838  -8.8180
    -8.7988  -8.7582  -8.6726  -8.6108  -8.5825  -8.4457  -8.4299  -8.4032
    -6.6425  -6.2494  -6.2118  -6.1479  -5.7526  -5.4379  -5.0402  -4.9564
    -4.6743  -4.5281  -4.4340  -4.1003  -3.3709  -3.3627  -3.3477  -3.2871
    -3.2428  -3.1907  -3.1258  -3.0956  -3.0520  -2.9611  -2.9011  -2.8413

          k = 0.2996 0.1730 0.3111 ( 30685 PWs)   bands (ev):

   -21.2559 -21.0197 -20.9497 -20.9374 -20.8693 -20.8058 -20.6591 -20.6108
   -20.5682 -20.4507 -20.4083 -20.2699  -8.9157  -8.8961  -8.8676  -8.8154
    -8.7800  -8.7325  -8.6090  -8.5709  -8.5297  -8.4950  -8.4606  -8.3950
    -6.7872  -6.2529  -6.2057  -5.9160  -5.8071  -5.3915  -5.1420  -4.9624
    -4.9222  -4.4628  -4.4091  -3.9995  -3.4727  -3.3935  -3.3621  -3.3153
    -3.2737  -3.1762  -3.1387  -3.0752  -2.9952  -2.9883  -2.9042  -2.8887

          k = 0.4494-0.2595-0.9332 ( 30665 PWs)   bands (ev):

   -21.1429 -21.1238 -21.0084 -20.9637 -20.8577 -20.7779 -20.6929 -20.5999
   -20.4881 -20.4321 -20.3896 -20.3273  -8.9093  -8.8820  -8.8652  -8.7966
    -8.7654  -8.7294  -8.6337  -8.6014  -8.5659  -8.4979  -8.4488  -8.4082
    -6.4938  -6.3941  -6.2586  -6.0425  -5.8366  -5.4203  -5.1940  -4.9072
    -4.6673  -4.4563  -4.4140  -4.1124  -3.4788  -3.4117  -3.3813  -3.3296
    -3.2985  -3.1961  -3.1038  -3.0834  -3.0116  -2.9772  -2.8986  -2.8583

          k = 0.2996-0.3460-0.6221 ( 30696 PWs)   bands (ev):

   -21.0956 -21.0930 -20.9965 -20.9916 -20.8733 -20.8715 -20.6195 -20.6175
   -20.4711 -20.4642 -20.3674 -20.3501  -8.9144  -8.8560  -8.8361  -8.8178
    -8.7963  -8.6754  -8.6180  -8.5947  -8.5414  -8.4837  -8.4180  -8.4086
    -6.5011  -6.4650  -6.1979  -6.1455  -5.6751  -5.6387  -5.0282  -4.9655
    -4.6246  -4.5922  -4.3344  -4.1488  -3.5429  -3.4192  -3.3822  -3.3735
    -3.3201  -3.2064  -3.0952  -3.0883  -3.0424  -2.9502  -2.9357  -2.8605

          k = 0.0000 0.0000-1.8663 ( 30600 PWs)   bands (ev):

   -21.0523 -21.0478 -20.9791 -20.9791 -20.9648 -20.9648 -20.5338 -20.5338
   -20.5293 -20.5293 -20.3611 -20.3354  -8.9141  -8.8159  -8.8159  -8.8116
    -8.8116  -8.6752  -8.6082  -8.5930  -8.5241  -8.5241  -8.4539  -8.4539
    -6.4977  -6.3381  -6.0287  -6.0287  -5.9219  -5.9219  -4.7709  -4.7709
    -4.7700  -4.7700  -4.2825  -4.1281  -3.5451  -3.4184  -3.4184  -3.4069
    -3.4069  -3.1570  -3.1059  -3.0138  -3.0138  -2.9765  -2.9765  -2.8275

          k = 0.2996-0.3460 0.3111 ( 30683 PWs)   bands (ev):

   -21.2132 -21.0647 -20.9818 -20.9399 -20.8791 -20.8229 -20.6378 -20.5503
   -20.5406 -20.4571 -20.4050 -20.3123  -8.9127  -8.8929  -8.8664  -8.8072
    -8.7812  -8.7455  -8.6508  -8.5994  -8.5763  -8.4319  -8.4087  -8.3854
    -6.6759  -6.3602  -6.2401  -5.9429  -5.8506  -5.4749  -5.1124  -4.8069
    -4.7112  -4.5653  -4.4502  -4.1025  -3.4589  -3.3850  -3.3436  -3.2945
    -3.2554  -3.1970  -3.1398  -3.1154  -3.0301  -2.9765  -2.9195  -2.8562

     highest occupied level (ev):    -2.8275

!    total energy              =    -418.06691687 Ry
     estimated scf accuracy    <          1.9E-10 Ry

     The total energy is the sum of the following terms:
     one-electron contribution =    -301.54372903 Ry
     hartree contribution      =     185.01630365 Ry
     xc contribution           =    -105.84544893 Ry
     ewald contribution        =    -195.69404256 Ry

     convergence has been achieved in   6 iterations

     Forces acting on atoms (cartesian axes, Ry/au):

     atom    1 type  2   force =    -0.00041198   -0.00007629   -0.00002624
     atom    2 type  2   force =     0.00041198    0.00007629    0.00002624
     atom    3 type  2   force =     0.00027206   -0.00031864   -0.00002624
     atom    4 type  2   force =    -0.00027206    0.00031864    0.00002624
     atom    5 type  2   force =     0.00013992    0.00039493   -0.00002624
     atom    6 type  2   force =    -0.00013992   -0.00039493    0.00002624
     atom    7 type  2   force =    -0.00048110   -0.00006338    0.00040764
     atom    8 type  2   force =     0.00048110    0.00006338   -0.00040764
     atom    9 type  2   force =     0.00029545   -0.00038496    0.00040764
     atom   10 type  2   force =    -0.00029545    0.00038496   -0.00040764
     atom   11 type  2   force =     0.00018566    0.00044834    0.00040764
     atom   12 type  2   force =    -0.00018566   -0.00044834   -0.00040764
     atom   13 type  1   force =    -0.00006833   -0.00037484    0.00097149
     atom   14 type  1   force =     0.00006833    0.00037484   -0.00097149
     atom   15 type  1   force =     0.00035878    0.00012824    0.00097149
     atom   16 type  1   force =    -0.00035878   -0.00012824   -0.00097149
     atom   17 type  1   force =    -0.00029045    0.00024659    0.00097149
     atom   18 type  1   force =     0.00029045   -0.00024659   -0.00097149
     atom   19 type  1   force =     0.00009845   -0.00019985   -0.00074012
     atom   20 type  1   force =    -0.00009845    0.00019985    0.00074012
     atom   21 type  1   force =     0.00012385    0.00018518   -0.00074012
     atom   22 type  1   force =    -0.00012385   -0.00018518    0.00074012
     atom   23 type  1   force =    -0.00022230    0.00001466   -0.00074012
     atom   24 type  1   force =     0.00022230   -0.00001466    0.00074012
     atom   25 type  1   force =    -0.00034675    0.00007440    0.00017803
     atom   26 type  1   force =     0.00034675   -0.00007440   -0.00017803
     atom   27 type  1   force =     0.00010894   -0.00033749    0.00017803
     atom   28 type  1   force =    -0.00010894    0.00033749   -0.00017803
     atom   29 type  1   force =     0.00023780    0.00026309    0.00017803
     atom   30 type  1   force =    -0.00023780   -0.00026309   -0.00017803
     atom   31 type  1   force =    -0.00065146   -0.00017719    0.00008889
     atom   32 type  1   force =     0.00065146    0.00017719   -0.00008889
     atom   33 type  1   force =     0.00047918   -0.00047559    0.00008889
     atom   34 type  1   force =    -0.00047918    0.00047559   -0.00008889
     atom   35 type  1   force =     0.00017228    0.00065278    0.00008889
     atom   36 type  1   force =    -0.00017228   -0.00065278   -0.00008889

     Total force =     0.004161     Total SCF correction =     0.000015


     Computing stress (Cartesian axis) and pressure

          total   stress  (Ry/bohr**3)                   (kbar)     P=       -5.17
  -0.00003464   0.00000000   0.00000000           -5.10        0.00        0.00
  -0.00000000  -0.00003464  -0.00000000           -0.00       -5.10       -0.00
   0.00000000  -0.00000000  -0.00003611            0.00       -0.00       -5.31

     Energy error            =      4.3E-05 Ry
     Gradient error          =      9.7E-04 Ry/Bohr

     bfgs converged in  26 scf cycles and  25 bfgs steps
     (criteria: energy <  1.0E-04 Ry, force <  1.0E-03 Ry/Bohr)

     End of BFGS Geometry Optimization

     Final energy             =    -418.0669168684 Ry

     File ./iceII/iceII.bfgs deleted, as requested
Begin final coordinates

ATOMIC_POSITIONS (crystal)
O                0.2715408489        0.0265314630        0.8549081873
O                0.7284591511        0.9734685480        0.1450917827
O                0.8549081873        0.2715408489        0.0265314630
O                0.1450917827        0.7284591511        0.9734685480
O                0.0265314630        0.8549081873        0.2715408489
O                0.9734685480        0.1450917827        0.7284591511
O                0.4753951582        0.7486301684        0.3276815226
O                0.5246048418        0.2513698316        0.6723184474
O                0.3276815226        0.4753951582        0.7486301684
O                0.6723184474        0.5246048418        0.2513698316
O                0.7486301684        0.3276815226        0.4753951582
O                0.2513698316        0.6723184474        0.5246048418
H                0.1435608122        0.0380608346        0.7905006982
H                0.8564391738        0.9619391574        0.2094993018
H                0.7905006982        0.1435608122        0.0380608346
H                0.2094993018        0.8564391738        0.9619391574
H                0.0380608346        0.7905006982        0.1435608122
H                0.9619391574        0.2094993018        0.8564391738
H                0.4232450493        0.1976458443        0.9845296103
H                0.5767549507        0.8023541707        0.0154703687
H                0.9845296103        0.4232450493        0.1976458443
H                0.0154703687        0.5767549507        0.8023541707
H                0.1976458443        0.9845296103        0.4232450493
H                0.8023541707        0.0154703687        0.5767549507
H                0.7294892243        0.4062392181        0.4053114149
H                0.2705107757        0.5937607519        0.5946886151
H                0.4053114149        0.7294892243        0.4062392181
H                0.5946886151        0.2705107757        0.5937607519
H                0.4062392181        0.4053114149        0.7294892243
H                0.5937607519        0.5946886151        0.2705107757
H                0.7421719104        0.1999474494        0.3687558938
H                0.2578280896        0.8000525356        0.6312441062
H                0.3687558938        0.7421719104        0.1999474494
H                0.6312441062        0.2578280896        0.8000525356
H                0.1999474494        0.3687558938        0.7421719104
H                0.8000525356        0.6312441062        0.2578280896
End final coordinates



     Writing all to output data dir ./iceII/iceII.save/ :
     XML data file, charge density, pseudopotentials, collected wavefunctions

     init_run     :      2.56s CPU      2.67s WALL (       1 calls)
     electrons    :    189.82s CPU    199.28s WALL (      26 calls)
     update_pot   :      3.83s CPU      4.34s WALL (      25 calls)
     forces       :      3.54s CPU      3.56s WALL (      26 calls)
     stress       :     27.84s CPU     28.55s WALL (      26 calls)

     Called by init_run:
     wfcinit      :      0.34s CPU      0.36s WALL (       1 calls)
     potinit      :      1.67s CPU      1.73s WALL (       1 calls)
     hinit0       :      0.38s CPU      0.40s WALL (       1 calls)

     Called by electrons:
     c_bands      :    143.81s CPU    145.35s WALL (     188 calls)
     sum_band     :     20.40s CPU     20.55s WALL (     188 calls)
     v_of_rho     :     28.96s CPU     35.26s WALL (     201 calls)
     newd         :      0.90s CPU      0.92s WALL (     201 calls)
     mix_rho      :      0.53s CPU      0.54s WALL (     188 calls)
     vdW_kernel   :      1.52s CPU      1.52s WALL (       1 calls)

     Called by c_bands:
     init_us_2    :      2.65s CPU      2.76s WALL (    1716 calls)
     cegterg      :    138.96s CPU    140.06s WALL (     752 calls)

     Called by *egterg:
     cdiaghg      :     10.58s CPU     10.60s WALL (    2712 calls)
     h_psi        :    104.54s CPU    105.46s WALL (    2868 calls)
     s_psi        :      4.58s CPU      4.65s WALL (    2868 calls)
     g_psi        :      0.30s CPU      0.30s WALL (    2112 calls)

     Called by h_psi:
     h_psi:calbec :      7.75s CPU      7.80s WALL (    2868 calls)
     vloc_psi     :     91.41s CPU     92.25s WALL (    2868 calls)
     add_vuspsi   :      4.62s CPU      4.63s WALL (    2868 calls)

     General routines
     calbec       :     11.12s CPU     11.19s WALL (    4140 calls)
     fft          :     17.72s CPU     21.01s WALL (   13651 calls)
     ffts         :      0.26s CPU      0.26s WALL (     188 calls)
     fftw         :     95.95s CPU     96.78s WALL (  259588 calls)

     Parallel routines

     PWSCF        :   3m49.35s CPU   4m 1.10s WALL


   This run was terminated on:  14:55:59   1Apr2026            

=------------------------------------------------------------------------------=
   JOB DONE.
=------------------------------------------------------------------------------=
