
     Program PWSCF v.7.3.1 starts on 26Mar2026 at 14:57:19 

     This program is part of the open-source Quantum ESPRESSO suite
     for quantum simulation of materials; please cite
         "P. Giannozzi et al., J. Phys.:Condens. Matter 21 395502 (2009);
         "P. Giannozzi et al., J. Phys.:Condens. Matter 29 465901 (2017);
         "P. Giannozzi et al., J. Chem. Phys. 152 154105 (2020);
          URL http://www.quantum-espresso.org", 
     in publications or presentations arising from this work. More details at
     http://www.quantum-espresso.org/quote

     Parallel version (MPI), running on   128 processors

     MPI processes distributed on     1 nodes
     242798 MiB available memory on the printing compute node when the environment starts

     Waiting for input...
     Reading input from standard input

     Current dimensions of program PWSCF are:
     Max number of different atomic species (ntypx) = 10
     Max number of k-points (npk) =  40000
     Max angular momentum in pseudopotentials (lmaxx) =  4

     IMPORTANT: XC functional enforced from input :
     Exchange-correlation= VDW-DF2
                           (   1   4  13   0   2   0   0)
     Any further DFT definition will be discarded
     Please, verify this is what you really want


     K-points division:     npool     =       4
     R & G space division:  proc/nbgrp/npool/nimage =      32
     Subspace diagonalization in iterative solution of the eigenvalue problem:
     a serial algorithm will be used


     Parallelization info
     --------------------
     sticks:   dense  smooth     PW     G-vecs:    dense   smooth      PW
     Min         183     183     53                 7713     7713    1226
     Max         184     184     54                 7716     7716    1229
     Sum        5859    5859   1723               246865   246865   39295

     Using Slab Decomposition



     bravais-lattice index     =            5
     lattice parameter (alat)  =      14.9079  a.u.
     unit-cell volume          =    2140.6298 (a.u.)^3
     number of atoms/cell      =           36
     number of atomic types    =            2
     number of electrons       =        96.00
     number of Kohn-Sham states=           48
     kinetic-energy cutoff     =      90.0000  Ry
     charge density cutoff     =     360.0000  Ry
     scf convergence threshold =      1.0E-07
     mixing beta               =       0.7000
     number of iterations used =            8  plain     mixing
     Exchange-correlation= VDW-DF2
                           (   1   4  13   0   2   0   0)

     celldm(1)=  14.907897  celldm(2)=   0.000000  celldm(3)=   0.000000
     celldm(4)=  -0.392337  celldm(5)=   0.000000  celldm(6)=   0.000000

     crystal axes: (cart. coord. in units of alat)
               a(1) = (   0.834367  -0.481722   0.267909 )  
               a(2) = (   0.000000   0.963444   0.267909 )  
               a(3) = (  -0.834367  -0.481722   0.267909 )  

     reciprocal axes: (cart. coord. in units 2 pi/alat)
               b(1) = (  0.599257 -0.345981  1.244203 )  
               b(2) = ( -0.000000  0.691962  1.244203 )  
               b(3) = ( -0.599257 -0.345981  1.244203 )  


     PseudoPot. # 1 for H  read from file:
     ./H.pbe-van_ak.UPF
     MD5 check sum: 077eb6d537518a38cb46c6de387227b7
     Pseudo is Ultrasoft, Zval =  1.0
     Generated by new atomic code, or converted to UPF format
     Using radial grid of  615 points,  1 beta functions with: 
                l(1) =   0
     Q(r) pseudized with  8 coefficients,  rinner =    0.800

     PseudoPot. # 2 for O  read from file:
     ./O.pbe-van_ak.UPF
     MD5 check sum: 78c19812648e8988a0fe644b0f25305e
     Pseudo is Ultrasoft, Zval =  6.0
     Generated by new atomic code, or converted to UPF format
     Using radial grid of  737 points,  4 beta functions with: 
                l(1) =   0
                l(2) =   0
                l(3) =   1
                l(4) =   1
     Q(r) pseudized with  8 coefficients,  rinner =    0.800   0.800   0.800


     atomic species   valence    mass     pseudopotential
     H                 1.00     1.00800     H ( 1.00)
     O                 6.00    16.00000     O ( 1.00)

      6 Sym. Ops., with inversion, found



   Cartesian axes

     site n.     atom                  positions (alat units)
         1        O      tau(   1) = (  -0.4881587  -0.5153728   0.3102004  )
         2        O      tau(   2) = (   0.4881587   0.5153729   0.4935268  )
         3        O      tau(   3) = (   0.6904053  -0.1650714   0.3102004  )
         4        O      tau(   4) = (  -0.6904053   0.1650714   0.4935268  )
         5        O      tau(   5) = (  -0.2022466   0.6804442   0.3102004  )
         6        O      tau(   6) = (   0.2022466  -0.6804442   0.4935268  )
         7        O      tau(   7) = (   0.1208629   0.3351200   0.4137471  )
         8        O      tau(   8) = (  -0.1208629  -0.3351200   0.3899800  )
         9        O      tau(   9) = (  -0.3506539  -0.0628897   0.4137471  )
        10        O      tau(  10) = (   0.3506539   0.0628897   0.3899800  )
        11        O      tau(  11) = (   0.2297910  -0.2722304   0.4137471  )
        12        O      tau(  12) = (  -0.2297910   0.2722304   0.3899800  )
        13        H      tau(  13) = (  -0.5430428  -0.4102686   0.2622098  )
        14        H      tau(  14) = (   0.5430428   0.4102686   0.5415173  )
        15        H      tau(  15) = (   0.6268245  -0.2651546   0.2622098  )
        16        H      tau(  16) = (  -0.6268245   0.2651546   0.5415173  )
        17        H      tau(  17) = (  -0.0837816   0.6754232   0.2622098  )
        18        H      tau(  18) = (   0.0837817  -0.6754232   0.5415173  )
        19        H      tau(  19) = (  -0.4681736  -0.4859583   0.4327384  )
        20        H      tau(  20) = (   0.4681736   0.4859583   0.3709887  )
        21        H      tau(  21) = (   0.6549390  -0.1624711   0.4327384  )
        22        H      tau(  22) = (  -0.6549390   0.1624711   0.3709887  )
        23        H      tau(  23) = (  -0.1867654   0.6484294   0.4327384  )
        24        H      tau(  24) = (   0.1867654  -0.6484294   0.3709887  )
        25        H      tau(  25) = (   0.2718867  -0.1516220   0.4118766  )
        26        H      tau(  26) = (  -0.2718867   0.1516219   0.3918506  )
        27        H      tau(  27) = (  -0.0046349   0.3112717   0.4118766  )
        28        H      tau(  28) = (   0.0046349  -0.3112717   0.3918506  )
        29        H      tau(  29) = (  -0.2672518  -0.1596498   0.4118766  )
        30        H      tau(  30) = (   0.2672518   0.1596498   0.3918506  )
        31        H      tau(  31) = (   0.3136186  -0.3416266   0.3473301  )
        32        H      tau(  32) = (  -0.3136186   0.3416266   0.4563970  )
        33        H      tau(  33) = (   0.1390481   0.4424150   0.3473301  )
        34        H      tau(  34) = (  -0.1390480  -0.4424150   0.4563970  )
        35        H      tau(  35) = (  -0.4526667  -0.1007884   0.3473301  )
        36        H      tau(  36) = (   0.4526666   0.1007884   0.4563970  )

     number of k points=    14
                       cart. coord. in units 2pi/alat
        k(    1) = (   0.0000000   0.0000000   0.0000000), wk =   0.0312500
        k(    2) = (  -0.1498141  -0.0864952   0.3110508), wk =   0.1875000
        k(    3) = (   0.2996283   0.1729905  -0.6221017), wk =   0.0937500
        k(    4) = (  -0.1498141   0.0864952   0.6221017), wk =   0.1875000
        k(    5) = (   0.2996283   0.3459809  -0.3110508), wk =   0.1875000
        k(    6) = (   0.1498141   0.2594857   0.0000000), wk =   0.1875000
        k(    7) = (   0.2996283  -0.1729905  -1.2442034), wk =   0.0937500
        k(    8) = (   0.0000000   0.0000000   0.9331525), wk =   0.0625000
        k(    9) = (   0.4494424   0.2594857   0.0000000), wk =   0.1875000
        k(   10) = (   0.2996283   0.1729905   0.3110508), wk =   0.1875000
        k(   11) = (   0.4494424  -0.2594857  -0.9331525), wk =   0.1875000
        k(   12) = (   0.2996283  -0.3459809  -0.6221017), wk =   0.1875000
        k(   13) = (   0.0000000   0.0000000  -1.8663050), wk =   0.0312500
        k(   14) = (   0.2996283  -0.3459809   0.3110508), wk =   0.1875000

     Dense  grid:   246865 G-vectors     FFT dimensions: (  96,  96,  96)

     Estimated max dynamical RAM per process >      16.25 MB

     Estimated total dynamical RAM >       1.86 GB

     Initial potential from superposition of free atoms

     starting charge      95.9998, renormalised to      96.0000


     %%%%%%%%%%%%%%%%%%%%%%%%%%%%%%%%%%%%%%%%%%%%%%%%%%%%%%%%%%%%%%%%%%%%%%%%
     %                                                                      %
     % You are using vdW-DF, which was implemented by the Thonhauser group. %
     % Please cite the following two papers that made this development      %
     % possible and the two reviews that describe the various versions:     %
     %                                                                      %
     %   T. Thonhauser et al., PRL 115, 136402 (2015).                      %
     %   T. Thonhauser et al., PRB 76, 125112 (2007).                       %
     %   K. Berland et al., Rep. Prog. Phys. 78, 066501 (2015).             %
     %   D.C. Langreth et al., J. Phys.: Condens. Matter 21, 084203 (2009). %
     %                                                                      %
     % If you are calculating stress with vdW-DF, please also cite:         %
     %                                                                      %
     %   R. Sabatini et al., J. Phys.: Condens. Matter 24, 424209 (2012).   %
     %                                                                      %
     %%%%%%%%%%%%%%%%%%%%%%%%%%%%%%%%%%%%%%%%%%%%%%%%%%%%%%%%%%%%%%%%%%%%%%%%

     %%%%%%%%%%%%%%%%%%%%%%%%%%%%%%%%%%%%%%%%%%%%%%%%%%%%%%%%%%%%%%%%%%%%%%%%
     %                                                                      %
     %  vdW-DF NEWS:                                                        %
     %                                                                      %
     %  * vdW-DF3 is now available. DOI: 10.1021/acs.jctc.0c00471           %
     %    use with input_dft = 'vdW-DF3-opt1' or 'vdW-DF3-opt2'             %
     %                                                                      %
     %  * Unscreened and range-separated hybrid vdW-DF-cx functionals       %
     %    DOI: 10.1063/1.4986522 and 10.1088/1361-648X/ac2ad2               %
     %    use with input_dft = 'vdW-DF-cx0'    and 'vdW-DF-ahcx'            %
     %  * Unscreened and range-separated hybrid vdW-DF2-b86r functionals    %
     %    DOI: 10.1063/1.4986522 and DOI: 10.1103/PhysRevX.12.041003        %
     %    use with input_dft = 'vdW-DF2-br0' and 'vdW-DF2-ahbr'             %
     %                                                                      %
     %%%%%%%%%%%%%%%%%%%%%%%%%%%%%%%%%%%%%%%%%%%%%%%%%%%%%%%%%%%%%%%%%%%%%%%%


     Starting wfcs are   72 randomized atomic wfcs

     total cpu time spent up to now is        3.2 secs

     per-process dynamical memory:    20.3 Mb

     Self-consistent Calculation

     iteration #  1     ecut=    90.00 Ry     beta= 0.70
     Davidson diagonalization with overlap
     ethr =  1.00E-02,  avg # of iterations =  2.0

     total cpu time spent up to now is        4.3 secs

     total energy              =    -415.94178240 Ry
     estimated scf accuracy    <       4.68911310 Ry

     iteration #  2     ecut=    90.00 Ry     beta= 0.70
     Davidson diagonalization with overlap
     ethr =  4.88E-03,  avg # of iterations =  3.0

     total cpu time spent up to now is        5.6 secs

     total energy              =    -417.47462251 Ry
     estimated scf accuracy    <       3.50775533 Ry

     iteration #  3     ecut=    90.00 Ry     beta= 0.70
     Davidson diagonalization with overlap
     ethr =  3.65E-03,  avg # of iterations =  2.0

     total cpu time spent up to now is        6.6 secs

     total energy              =    -417.92968293 Ry
     estimated scf accuracy    <       0.15558400 Ry

     iteration #  4     ecut=    90.00 Ry     beta= 0.70
     Davidson diagonalization with overlap
     ethr =  1.62E-04,  avg # of iterations =  4.0

     total cpu time spent up to now is        8.0 secs

     total energy              =    -418.04929322 Ry
     estimated scf accuracy    <       0.19095182 Ry

     iteration #  5     ecut=    90.00 Ry     beta= 0.70
     Davidson diagonalization with overlap
     ethr =  1.62E-04,  avg # of iterations =  2.0

     total cpu time spent up to now is        8.9 secs

     total energy              =    -418.05409650 Ry
     estimated scf accuracy    <       0.02854347 Ry

     iteration #  6     ecut=    90.00 Ry     beta= 0.70
     Davidson diagonalization with overlap
     ethr =  2.97E-05,  avg # of iterations =  2.0

     negative rho (up, down):  9.500E-08 0.000E+00

     total cpu time spent up to now is        9.9 secs

     total energy              =    -418.05680003 Ry
     estimated scf accuracy    <       0.00393641 Ry

     iteration #  7     ecut=    90.00 Ry     beta= 0.70
     Davidson diagonalization with overlap
     ethr =  4.10E-06,  avg # of iterations =  3.0

     negative rho (up, down):  1.347E-07 0.000E+00

     total cpu time spent up to now is       11.1 secs

     total energy              =    -418.05983646 Ry
     estimated scf accuracy    <       0.00071606 Ry

     iteration #  8     ecut=    90.00 Ry     beta= 0.70
     Davidson diagonalization with overlap
     ethr =  7.46E-07,  avg # of iterations =  4.0

     negative rho (up, down):  6.600E-08 0.000E+00

     total cpu time spent up to now is       12.4 secs

     total energy              =    -418.05833309 Ry
     estimated scf accuracy    <       0.00544852 Ry

     iteration #  9     ecut=    90.00 Ry     beta= 0.70
     Davidson diagonalization with overlap
     ethr =  7.46E-07,  avg # of iterations =  3.0

     negative rho (up, down):  5.139E-08 0.000E+00

     total cpu time spent up to now is       13.7 secs

     total energy              =    -418.05874837 Ry
     estimated scf accuracy    <       0.00054558 Ry

     iteration # 10     ecut=    90.00 Ry     beta= 0.70
     Davidson diagonalization with overlap
     ethr =  5.68E-07,  avg # of iterations =  1.2

     negative rho (up, down):  3.864E-08 0.000E+00

     total cpu time spent up to now is       14.5 secs

     total energy              =    -418.05871480 Ry
     estimated scf accuracy    <       0.00023896 Ry

     iteration # 11     ecut=    90.00 Ry     beta= 0.70
     Davidson diagonalization with overlap
     ethr =  2.49E-07,  avg # of iterations =  2.0

     negative rho (up, down):  3.173E-08 0.000E+00

     total cpu time spent up to now is       15.5 secs

     total energy              =    -418.05873045 Ry
     estimated scf accuracy    <       0.00005350 Ry

     iteration # 12     ecut=    90.00 Ry     beta= 0.70
     Davidson diagonalization with overlap
     ethr =  5.57E-08,  avg # of iterations =  2.2

     negative rho (up, down):  2.605E-08 0.000E+00

     total cpu time spent up to now is       16.6 secs

     total energy              =    -418.05873898 Ry
     estimated scf accuracy    <       0.00000723 Ry

     iteration # 13     ecut=    90.00 Ry     beta= 0.70
     Davidson diagonalization with overlap
     ethr =  7.53E-09,  avg # of iterations =  4.0

     negative rho (up, down):  2.720E-08 0.000E+00

     total cpu time spent up to now is       17.8 secs

     total energy              =    -418.05874234 Ry
     estimated scf accuracy    <       0.00000128 Ry

     iteration # 14     ecut=    90.00 Ry     beta= 0.70
     Davidson diagonalization with overlap
     ethr =  1.34E-09,  avg # of iterations =  2.0

     negative rho (up, down):  2.784E-08 0.000E+00

     total cpu time spent up to now is       18.8 secs

     total energy              =    -418.05874244 Ry
     estimated scf accuracy    <       0.00000027 Ry

     iteration # 15     ecut=    90.00 Ry     beta= 0.70
     Davidson diagonalization with overlap
     ethr =  2.80E-10,  avg # of iterations =  3.1

     negative rho (up, down):  2.795E-08 0.000E+00

     total cpu time spent up to now is       19.9 secs

     End of self-consistent calculation

          k = 0.0000 0.0000 0.0000 ( 30913 PWs)   bands (ev):

   -21.2442 -20.8186 -20.8186 -20.6353 -20.6353 -20.5956 -20.5956 -20.5949
   -20.5949 -20.3280 -20.3280 -20.0473  -8.8717  -8.8019  -8.8019  -8.7794
    -8.6986  -8.6986  -8.4310  -8.4310  -8.4249  -8.3791  -8.3737  -8.3737
    -7.1151  -6.1031  -6.1031  -5.5281  -5.5281  -5.3682  -5.3682  -5.2099
    -5.0967  -4.4515  -4.4515  -3.7499  -3.3625  -3.3625  -3.3319  -3.2047
    -3.2047  -3.1711  -3.0730  -3.0730  -3.0320  -2.9627  -2.9147  -2.9147

          k =-0.1498-0.0865 0.3111 ( 30875 PWs)   bands (ev):

   -21.1773 -20.8570 -20.8102 -20.7592 -20.7259 -20.6642 -20.5531 -20.5126
   -20.4572 -20.3321 -20.2949 -20.0993  -8.8385  -8.8141  -8.7954  -8.7617
    -8.6925  -8.6651  -8.4852  -8.4610  -8.4497  -8.3688  -8.3134  -8.3099
    -6.9567  -6.2635  -6.1341  -5.8310  -5.6055  -5.3766  -5.2165  -5.0878
    -4.9317  -4.4444  -4.3879  -3.8932  -3.4385  -3.3749  -3.3460  -3.2676
    -3.2510  -3.2008  -3.1078  -3.0622  -3.0016  -2.9881  -2.9318  -2.9078

          k = 0.2996 0.1730-0.6221 ( 30878 PWs)   bands (ev):

   -21.0065 -21.0011 -20.8394 -20.8260 -20.7234 -20.7216 -20.5044 -20.5036
   -20.3421 -20.3300 -20.2267 -20.2246  -8.8205  -8.8056  -8.7648  -8.7616
    -8.6932  -8.6439  -8.5043  -8.4891  -8.4629  -8.3561  -8.2749  -8.2641
    -6.6321  -6.5298  -6.1280  -6.1198  -5.5906  -5.5294  -5.0966  -5.0112
    -4.5802  -4.5172  -4.3549  -4.1206  -3.5090  -3.3973  -3.3340  -3.3226
    -3.2684  -3.2340  -3.1550  -3.0660  -3.0465  -2.9675  -2.9162  -2.8992

          k =-0.1498 0.0865 0.6221 ( 30888 PWs)   bands (ev):

   -21.0436 -20.9157 -20.9019 -20.7927 -20.7695 -20.7106 -20.5123 -20.4397
   -20.3992 -20.2932 -20.2781 -20.1931  -8.8197  -8.8017  -8.7756  -8.7631
    -8.6877  -8.6332  -8.5029  -8.4948  -8.4791  -8.3250  -8.2922  -8.2663
    -6.6747  -6.3933  -6.3458  -5.9090  -5.7140  -5.5402  -5.0909  -4.8683
    -4.7525  -4.4279  -4.3609  -4.1396  -3.4934  -3.4240  -3.3283  -3.3046
    -3.2586  -3.2419  -3.1650  -3.0668  -3.0335  -2.9680  -2.9384  -2.8856

          k = 0.2996 0.3460-0.3111 ( 30853 PWs)   bands (ev):

   -21.0875 -20.9402 -20.8551 -20.8167 -20.7507 -20.6890 -20.5111 -20.4157
   -20.4007 -20.3277 -20.2714 -20.1766  -8.8241  -8.8174  -8.7828  -8.7458
    -8.6876  -8.6619  -8.5485  -8.5098  -8.4813  -8.3449  -8.3087  -8.2765
    -6.6853  -6.3759  -6.1876  -5.9533  -5.8885  -5.3860  -5.0103  -4.9193
    -4.7510  -4.4849  -4.3581  -4.0883  -3.4386  -3.3925  -3.3409  -3.2939
    -3.2475  -3.1862  -3.1293  -3.1004  -3.0100  -3.0073  -2.9274  -2.8475

          k = 0.1498 0.2595 0.0000 ( 30848 PWs)   bands (ev):

   -21.1948 -20.8863 -20.8346 -20.7355 -20.7076 -20.6378 -20.5554 -20.4940
   -20.4558 -20.3355 -20.3081 -20.0904  -8.8552  -8.8094  -8.8011  -8.7607
    -8.6971  -8.6895  -8.5108  -8.4815  -8.4435  -8.3852  -8.3578  -8.3124
    -6.9444  -6.1599  -6.0616  -5.8644  -5.8290  -5.2839  -5.1143  -4.9969
    -4.9709  -4.4865  -4.4427  -3.8491  -3.3661  -3.3531  -3.3462  -3.2542
    -3.2113  -3.1864  -3.1046  -3.0882  -3.0127  -2.9900  -2.8942  -2.8751

          k = 0.2996-0.1730-1.2442 ( 30832 PWs)   bands (ev):

   -21.0794 -21.0360 -20.8457 -20.7833 -20.7030 -20.6628 -20.4966 -20.4862
   -20.3725 -20.3658 -20.2055 -20.1986  -8.8346  -8.8143  -8.7895  -8.7477
    -8.6899  -8.6896  -8.5765  -8.5221  -8.4653  -8.3584  -8.3528  -8.3004
    -6.5368  -6.5078  -6.1521  -6.0180  -5.7714  -5.4122  -4.9336  -4.9186
    -4.7420  -4.6083  -4.2609  -4.0973  -3.3778  -3.3540  -3.3323  -3.2881
    -3.2202  -3.1863  -3.1346  -3.0681  -3.0678  -2.9810  -2.8614  -2.8588

          k = 0.0000 0.0000 0.9332 ( 30894 PWs)   bands (ev):

   -20.9885 -20.9885 -20.9080 -20.8859 -20.7134 -20.7134 -20.4400 -20.4400
   -20.3203 -20.3018 -20.2713 -20.2713  -8.8171  -8.8171  -8.7902  -8.7068
    -8.7068  -8.6893  -8.5822  -8.5096  -8.5096  -8.2909  -8.2909  -8.2694
    -6.4467  -6.4467  -6.4062  -6.0294  -5.6873  -5.6873  -4.7819  -4.7819
    -4.7119  -4.4203  -4.4203  -4.3103  -3.3977  -3.3977  -3.3099  -3.2897
    -3.2163  -3.2163  -3.1762  -3.0662  -3.0662  -2.9714  -2.9714  -2.8245

          k = 0.4494 0.2595 0.0000 ( 30840 PWs)   bands (ev):

   -21.1037 -20.9508 -20.9370 -20.7850 -20.6576 -20.6444 -20.5291 -20.5118
   -20.3661 -20.3036 -20.2776 -20.1685  -8.8315  -8.8086  -8.8014  -8.7396
    -8.7148  -8.6611  -8.5852  -8.5161  -8.4811  -8.3546  -8.3423  -8.3042
    -6.6534  -6.2579  -6.2135  -6.1226  -5.7321  -5.4074  -5.0163  -4.9344
    -4.6599  -4.5033  -4.4000  -4.0579  -3.3658  -3.3568  -3.3407  -3.2817
    -3.2365  -3.1927  -3.1191  -3.0935  -3.0452  -2.9570  -2.8999  -2.8419

          k = 0.2996 0.1730 0.3111 ( 30868 PWs)   bands (ev):

   -21.1309 -20.8954 -20.8240 -20.8089 -20.7420 -20.6761 -20.5263 -20.4790
   -20.4349 -20.3149 -20.2757 -20.1345  -8.8297  -8.8160  -8.7846  -8.7406
    -8.6995  -8.6418  -8.5238  -8.4742  -8.4440  -8.4047  -8.3491  -8.2912
    -6.8002  -6.2327  -6.2002  -5.9121  -5.8034  -5.3761  -5.1165  -4.9496
    -4.8898  -4.4329  -4.3785  -3.9573  -3.4595  -3.3865  -3.3612  -3.3074
    -3.2746  -3.1672  -3.1422  -3.0689  -2.9847  -2.9836  -2.9136  -2.8870

          k = 0.4494-0.2595-0.9332 ( 30844 PWs)   bands (ev):

   -21.0144 -21.0017 -20.8812 -20.8386 -20.7296 -20.6484 -20.5606 -20.4675
   -20.3558 -20.2953 -20.2577 -20.1912  -8.8214  -8.8003  -8.7896  -8.7211
    -8.6856  -8.6335  -8.5484  -8.5071  -8.4703  -8.4110  -8.3452  -8.3068
    -6.4978  -6.3919  -6.2474  -6.0347  -5.8276  -5.4103  -5.1619  -4.8788
    -4.6432  -4.4329  -4.3923  -4.0638  -3.4666  -3.4080  -3.3803  -3.3239
    -3.2985  -3.1909  -3.0979  -3.0790  -3.0044  -2.9667  -2.8943  -2.8721

          k = 0.2996-0.3460-0.6221 ( 30864 PWs)   bands (ev):

   -20.9738 -20.9652 -20.8723 -20.8617 -20.7446 -20.7437 -20.4869 -20.4841
   -20.3385 -20.3321 -20.2266 -20.2196  -8.8227  -8.7754  -8.7596  -8.7397
    -8.7200  -8.5935  -8.5362  -8.4944  -8.4576  -8.3878  -8.3072  -8.2955
    -6.4984  -6.4654  -6.1883  -6.1363  -5.6698  -5.6337  -5.0048  -4.9390
    -4.6009  -4.5669  -4.3125  -4.0986  -3.5293  -3.4123  -3.3773  -3.3728
    -3.3177  -3.1945  -3.0967  -3.0830  -3.0327  -2.9457  -2.9311  -2.8748

          k = 0.0000 0.0000-1.8663 ( 30822 PWs)   bands (ev):

   -20.9378 -20.9163 -20.8433 -20.8433 -20.8430 -20.8430 -20.4076 -20.4076
   -20.3910 -20.3910 -20.2194 -20.2051  -8.8218  -8.7380  -8.7380  -8.7349
    -8.7349  -8.5836  -8.5264  -8.5052  -8.4390  -8.4390  -8.3373  -8.3373
    -6.4856  -6.3384  -6.0106  -6.0106  -5.9276  -5.9276  -4.7549  -4.7549
    -4.7353  -4.7353  -4.2615  -4.0759  -3.5324  -3.4159  -3.4159  -3.4058
    -3.4058  -3.1420  -3.1033  -3.0154  -3.0154  -2.9625  -2.9625  -2.8453

          k = 0.2996-0.3460 0.3111 ( 30853 PWs)   bands (ev):

   -21.0876 -20.9381 -20.8613 -20.8132 -20.7497 -20.6887 -20.5100 -20.4219
   -20.3996 -20.3245 -20.2702 -20.1778  -8.8289  -8.8059  -8.7909  -8.7319
    -8.6995  -8.6633  -8.5588  -8.5048  -8.4766  -8.3404  -8.3022  -8.2862
    -6.6877  -6.3471  -6.2476  -5.9325  -5.8322  -5.4470  -5.1044  -4.7906
    -4.6777  -4.5391  -4.4225  -4.0594  -3.4483  -3.3801  -3.3319  -3.2872
    -3.2581  -3.1893  -3.1366  -3.1124  -3.0195  -2.9779  -2.9283  -2.8525

     highest occupied level (ev):    -2.8245

!    total energy              =    -418.05874246 Ry
     estimated scf accuracy    <       0.00000007 Ry

     The total energy is the sum of the following terms:
     one-electron contribution =    -298.94885718 Ry
     hartree contribution      =     183.74051939 Ry
     xc contribution           =    -105.55999822 Ry
     ewald contribution        =    -197.29040644 Ry

     convergence has been achieved in  15 iterations

     Forces acting on atoms (cartesian axes, Ry/au):

     atom    1 type  2   force =    -0.00532026    0.01975310    0.01141764
     atom    2 type  2   force =     0.00532026   -0.01975310   -0.01141764
     atom    3 type  2   force =    -0.01444656   -0.01448403    0.01141764
     atom    4 type  2   force =     0.01444656    0.01448403   -0.01141764
     atom    5 type  2   force =     0.01976682   -0.00526907    0.01141764
     atom    6 type  2   force =    -0.01976682    0.00526907   -0.01141764
     atom    7 type  2   force =    -0.01474030    0.01134870   -0.00909263
     atom    8 type  2   force =     0.01474030   -0.01134870    0.00909263
     atom    9 type  2   force =    -0.00245811   -0.01843982   -0.00909263
     atom   10 type  2   force =     0.00245811    0.01843982    0.00909263
     atom   11 type  2   force =     0.01719841    0.00709112   -0.00909263
     atom   12 type  2   force =    -0.01719841   -0.00709112    0.00909263
     atom   13 type  1   force =     0.00932106   -0.01632956    0.00840680
     atom   14 type  1   force =    -0.00932106    0.01632956   -0.00840680
     atom   15 type  1   force =     0.00948128    0.01623705    0.00840680
     atom   16 type  1   force =    -0.00948128   -0.01623705   -0.00840680
     atom   17 type  1   force =    -0.01880234    0.00009251    0.00840680
     atom   18 type  1   force =     0.01880234   -0.00009251   -0.00840680
     atom   19 type  1   force =    -0.00397042   -0.00392736   -0.02002893
     atom   20 type  1   force =     0.00397042    0.00392736    0.02002893
     atom   21 type  1   force =     0.00538640   -0.00147480   -0.02002893
     atom   22 type  1   force =    -0.00538640    0.00147480    0.02002893
     atom   23 type  1   force =    -0.00141598    0.00540216   -0.02002893
     atom   24 type  1   force =     0.00141598   -0.00540216    0.02002893
     atom   25 type  1   force =    -0.00520909   -0.02053464   -0.00063155
     atom   26 type  1   force =     0.00520909    0.02053464    0.00063155
     atom   27 type  1   force =     0.02038806    0.00575611   -0.00063155
     atom   28 type  1   force =    -0.02038806   -0.00575611    0.00063155
     atom   29 type  1   force =    -0.01517897    0.01477853   -0.00063155
     atom   30 type  1   force =     0.01517897   -0.01477853    0.00063155
     atom   31 type  1   force =    -0.01308797    0.01301369    0.01150924
     atom   32 type  1   force =     0.01308797   -0.01301369   -0.01150924
     atom   33 type  1   force =    -0.00472620   -0.01784136    0.01150924
     atom   34 type  1   force =     0.00472620    0.01784136   -0.01150924
     atom   35 type  1   force =     0.01781417    0.00482767    0.01150924
     atom   36 type  1   force =    -0.01781417   -0.00482767   -0.01150924

     Total force =     0.128603     Total SCF correction =     0.000147


     Computing stress (Cartesian axis) and pressure

          total   stress  (Ry/bohr**3)                   (kbar)     P=      -30.17
  -0.00020705   0.00000000  -0.00000000          -30.46        0.00       -0.00
  -0.00000000  -0.00020705  -0.00000000           -0.00      -30.46       -0.00
  -0.00000000  -0.00000000  -0.00020119           -0.00       -0.00      -29.60


     Writing all to output data dir ./iceII/iceII.save/ :
     XML data file, charge density, pseudopotentials, collected wavefunctions

     init_run     :      2.89s CPU      3.01s WALL (       1 calls)
     electrons    :     16.06s CPU     17.15s WALL (       1 calls)
     forces       :      0.14s CPU      0.15s WALL (       1 calls)
     stress       :      1.10s CPU      1.16s WALL (       1 calls)

     Called by init_run:
     wfcinit      :      0.36s CPU      0.37s WALL (       1 calls)
     potinit      :      1.71s CPU      1.77s WALL (       1 calls)
     hinit0       :      0.66s CPU      0.68s WALL (       1 calls)

     Called by electrons:
     c_bands      :     11.46s CPU     11.62s WALL (      15 calls)
     sum_band     :      1.69s CPU      1.71s WALL (      15 calls)
     v_of_rho     :      4.42s CPU      4.92s WALL (      16 calls)
     newd         :      0.06s CPU      0.06s WALL (      16 calls)
     mix_rho      :      0.07s CPU      0.07s WALL (      15 calls)
     vdW_kernel   :      1.51s CPU      1.52s WALL (       1 calls)

     Called by c_bands:
     init_us_2    :      0.19s CPU      0.20s WALL (     132 calls)
     cegterg      :     11.15s CPU     11.26s WALL (      60 calls)

     Called by *egterg:
     cdiaghg      :      0.81s CPU      0.82s WALL (     218 calls)
     h_psi        :      8.78s CPU      8.85s WALL (     222 calls)
     s_psi        :      0.36s CPU      0.38s WALL (     222 calls)
     g_psi        :      0.02s CPU      0.02s WALL (     158 calls)

     Called by h_psi:
     h_psi:calbec :      0.62s CPU      0.62s WALL (     222 calls)
     vloc_psi     :      7.72s CPU      7.78s WALL (     222 calls)
     add_vuspsi   :      0.38s CPU      0.38s WALL (     222 calls)

     General routines
     calbec       :      0.85s CPU      0.85s WALL (     302 calls)
     fft          :      2.20s CPU      2.48s WALL (    1028 calls)
     ffts         :      0.02s CPU      0.02s WALL (      15 calls)
     fftw         :      8.05s CPU      8.11s WALL (   20772 calls)

     Parallel routines

     PWSCF        :     20.51s CPU     23.28s WALL


   This run was terminated on:  14:57:42  26Mar2026            

=------------------------------------------------------------------------------=
   JOB DONE.
=------------------------------------------------------------------------------=
