
     Program PWSCF v.7.3.1 starts on 26Mar2026 at 14:57:44 

     This program is part of the open-source Quantum ESPRESSO suite
     for quantum simulation of materials; please cite
         "P. Giannozzi et al., J. Phys.:Condens. Matter 21 395502 (2009);
         "P. Giannozzi et al., J. Phys.:Condens. Matter 29 465901 (2017);
         "P. Giannozzi et al., J. Chem. Phys. 152 154105 (2020);
          URL http://www.quantum-espresso.org", 
     in publications or presentations arising from this work. More details at
     http://www.quantum-espresso.org/quote

     Parallel version (MPI), running on   128 processors

     MPI processes distributed on     1 nodes
     242861 MiB available memory on the printing compute node when the environment starts

     Waiting for input...
     Reading input from standard input

     Current dimensions of program PWSCF are:
     Max number of different atomic species (ntypx) = 10
     Max number of k-points (npk) =  40000
     Max angular momentum in pseudopotentials (lmaxx) =  4

     IMPORTANT: XC functional enforced from input :
     Exchange-correlation= VDW-DF2
                           (   1   4  13   0   2   0   0)
     Any further DFT definition will be discarded
     Please, verify this is what you really want


     K-points division:     npool     =       4
     R & G space division:  proc/nbgrp/npool/nimage =      32
     Subspace diagonalization in iterative solution of the eigenvalue problem:
     a serial algorithm will be used


     Parallelization info
     --------------------
     sticks:   dense  smooth     PW     G-vecs:    dense   smooth      PW
     Min         183     183     53                 7760     7760    1232
     Max         184     184     54                 7763     7763    1236
     Sum        5879    5879   1727               248377   248377   39511

     Using Slab Decomposition



     bravais-lattice index     =            5
     lattice parameter (alat)  =      14.9373  a.u.
     unit-cell volume          =    2153.3212 (a.u.)^3
     number of atoms/cell      =           36
     number of atomic types    =            2
     number of electrons       =        96.00
     number of Kohn-Sham states=           48
     kinetic-energy cutoff     =      90.0000  Ry
     charge density cutoff     =     360.0000  Ry
     scf convergence threshold =      1.0E-07
     mixing beta               =       0.7000
     number of iterations used =            8  plain     mixing
     Exchange-correlation= VDW-DF2
                           (   1   4  13   0   2   0   0)

     celldm(1)=  14.937301  celldm(2)=   0.000000  celldm(3)=   0.000000
     celldm(4)=  -0.392337  celldm(5)=   0.000000  celldm(6)=   0.000000

     crystal axes: (cart. coord. in units of alat)
               a(1) = (   0.834367  -0.481722   0.267909 )  
               a(2) = (   0.000000   0.963444   0.267909 )  
               a(3) = (  -0.834367  -0.481722   0.267909 )  

     reciprocal axes: (cart. coord. in units 2 pi/alat)
               b(1) = (  0.599257 -0.345981  1.244203 )  
               b(2) = (  0.000000  0.691962  1.244203 )  
               b(3) = ( -0.599257 -0.345981  1.244203 )  


     PseudoPot. # 1 for H  read from file:
     ./H.pbe-van_ak.UPF
     MD5 check sum: 077eb6d537518a38cb46c6de387227b7
     Pseudo is Ultrasoft, Zval =  1.0
     Generated by new atomic code, or converted to UPF format
     Using radial grid of  615 points,  1 beta functions with: 
                l(1) =   0
     Q(r) pseudized with  8 coefficients,  rinner =    0.800

     PseudoPot. # 2 for O  read from file:
     ./O.pbe-van_ak.UPF
     MD5 check sum: 78c19812648e8988a0fe644b0f25305e
     Pseudo is Ultrasoft, Zval =  6.0
     Generated by new atomic code, or converted to UPF format
     Using radial grid of  737 points,  4 beta functions with: 
                l(1) =   0
                l(2) =   0
                l(3) =   1
                l(4) =   1
     Q(r) pseudized with  8 coefficients,  rinner =    0.800   0.800   0.800


     atomic species   valence    mass     pseudopotential
     H                 1.00     1.00800     H ( 1.00)
     O                 6.00    16.00000     O ( 1.00)

      6 Sym. Ops., with inversion, found



   Cartesian axes

     site n.     atom                  positions (alat units)
         1        O      tau(   1) = (  -0.4881587  -0.5153728   0.3102004  )
         2        O      tau(   2) = (   0.4881587   0.5153729   0.4935268  )
         3        O      tau(   3) = (   0.6904053  -0.1650714   0.3102004  )
         4        O      tau(   4) = (  -0.6904053   0.1650714   0.4935268  )
         5        O      tau(   5) = (  -0.2022466   0.6804442   0.3102004  )
         6        O      tau(   6) = (   0.2022466  -0.6804442   0.4935268  )
         7        O      tau(   7) = (   0.1208629   0.3351200   0.4137471  )
         8        O      tau(   8) = (  -0.1208629  -0.3351200   0.3899800  )
         9        O      tau(   9) = (  -0.3506539  -0.0628897   0.4137471  )
        10        O      tau(  10) = (   0.3506539   0.0628897   0.3899800  )
        11        O      tau(  11) = (   0.2297910  -0.2722304   0.4137471  )
        12        O      tau(  12) = (  -0.2297910   0.2722304   0.3899800  )
        13        H      tau(  13) = (  -0.5430428  -0.4102686   0.2622098  )
        14        H      tau(  14) = (   0.5430428   0.4102686   0.5415173  )
        15        H      tau(  15) = (   0.6268245  -0.2651546   0.2622098  )
        16        H      tau(  16) = (  -0.6268245   0.2651546   0.5415173  )
        17        H      tau(  17) = (  -0.0837816   0.6754232   0.2622098  )
        18        H      tau(  18) = (   0.0837817  -0.6754232   0.5415173  )
        19        H      tau(  19) = (  -0.4681736  -0.4859583   0.4327384  )
        20        H      tau(  20) = (   0.4681736   0.4859583   0.3709887  )
        21        H      tau(  21) = (   0.6549390  -0.1624711   0.4327384  )
        22        H      tau(  22) = (  -0.6549390   0.1624711   0.3709887  )
        23        H      tau(  23) = (  -0.1867654   0.6484294   0.4327384  )
        24        H      tau(  24) = (   0.1867654  -0.6484294   0.3709887  )
        25        H      tau(  25) = (   0.2718867  -0.1516220   0.4118766  )
        26        H      tau(  26) = (  -0.2718867   0.1516219   0.3918506  )
        27        H      tau(  27) = (  -0.0046349   0.3112717   0.4118766  )
        28        H      tau(  28) = (   0.0046349  -0.3112717   0.3918506  )
        29        H      tau(  29) = (  -0.2672518  -0.1596498   0.4118766  )
        30        H      tau(  30) = (   0.2672518   0.1596498   0.3918506  )
        31        H      tau(  31) = (   0.3136186  -0.3416266   0.3473301  )
        32        H      tau(  32) = (  -0.3136186   0.3416266   0.4563970  )
        33        H      tau(  33) = (   0.1390481   0.4424150   0.3473301  )
        34        H      tau(  34) = (  -0.1390480  -0.4424150   0.4563970  )
        35        H      tau(  35) = (  -0.4526667  -0.1007884   0.3473301  )
        36        H      tau(  36) = (   0.4526666   0.1007884   0.4563970  )

     number of k points=    14
                       cart. coord. in units 2pi/alat
        k(    1) = (   0.0000000   0.0000000   0.0000000), wk =   0.0312500
        k(    2) = (  -0.1498141  -0.0864952   0.3110508), wk =   0.1875000
        k(    3) = (   0.2996283   0.1729905  -0.6221017), wk =   0.0937500
        k(    4) = (  -0.1498141   0.0864952   0.6221017), wk =   0.1875000
        k(    5) = (   0.2996283   0.3459809  -0.3110508), wk =   0.1875000
        k(    6) = (   0.1498141   0.2594857   0.0000000), wk =   0.1875000
        k(    7) = (   0.2996283  -0.1729905  -1.2442034), wk =   0.0937500
        k(    8) = (   0.0000000   0.0000000   0.9331525), wk =   0.0625000
        k(    9) = (   0.4494424   0.2594857   0.0000000), wk =   0.1875000
        k(   10) = (   0.2996283   0.1729905   0.3110508), wk =   0.1875000
        k(   11) = (   0.4494424  -0.2594857  -0.9331525), wk =   0.1875000
        k(   12) = (   0.2996283  -0.3459809  -0.6221017), wk =   0.1875000
        k(   13) = (   0.0000000   0.0000000  -1.8663050), wk =   0.0312500
        k(   14) = (   0.2996283  -0.3459809   0.3110508), wk =   0.1875000

     Dense  grid:   248377 G-vectors     FFT dimensions: (  96,  96,  96)

     Estimated max dynamical RAM per process >      16.33 MB

     Estimated total dynamical RAM >       1.86 GB

     Initial potential from superposition of free atoms

     starting charge      95.9998, renormalised to      96.0000


     %%%%%%%%%%%%%%%%%%%%%%%%%%%%%%%%%%%%%%%%%%%%%%%%%%%%%%%%%%%%%%%%%%%%%%%%
     %                                                                      %
     % You are using vdW-DF, which was implemented by the Thonhauser group. %
     % Please cite the following two papers that made this development      %
     % possible and the two reviews that describe the various versions:     %
     %                                                                      %
     %   T. Thonhauser et al., PRL 115, 136402 (2015).                      %
     %   T. Thonhauser et al., PRB 76, 125112 (2007).                       %
     %   K. Berland et al., Rep. Prog. Phys. 78, 066501 (2015).             %
     %   D.C. Langreth et al., J. Phys.: Condens. Matter 21, 084203 (2009). %
     %                                                                      %
     % If you are calculating stress with vdW-DF, please also cite:         %
     %                                                                      %
     %   R. Sabatini et al., J. Phys.: Condens. Matter 24, 424209 (2012).   %
     %                                                                      %
     %%%%%%%%%%%%%%%%%%%%%%%%%%%%%%%%%%%%%%%%%%%%%%%%%%%%%%%%%%%%%%%%%%%%%%%%

     %%%%%%%%%%%%%%%%%%%%%%%%%%%%%%%%%%%%%%%%%%%%%%%%%%%%%%%%%%%%%%%%%%%%%%%%
     %                                                                      %
     %  vdW-DF NEWS:                                                        %
     %                                                                      %
     %  * vdW-DF3 is now available. DOI: 10.1021/acs.jctc.0c00471           %
     %    use with input_dft = 'vdW-DF3-opt1' or 'vdW-DF3-opt2'             %
     %                                                                      %
     %  * Unscreened and range-separated hybrid vdW-DF-cx functionals       %
     %    DOI: 10.1063/1.4986522 and 10.1088/1361-648X/ac2ad2               %
     %    use with input_dft = 'vdW-DF-cx0'    and 'vdW-DF-ahcx'            %
     %  * Unscreened and range-separated hybrid vdW-DF2-b86r functionals    %
     %    DOI: 10.1063/1.4986522 and DOI: 10.1103/PhysRevX.12.041003        %
     %    use with input_dft = 'vdW-DF2-br0' and 'vdW-DF2-ahbr'             %
     %                                                                      %
     %%%%%%%%%%%%%%%%%%%%%%%%%%%%%%%%%%%%%%%%%%%%%%%%%%%%%%%%%%%%%%%%%%%%%%%%


     Starting wfcs are   72 randomized atomic wfcs

     total cpu time spent up to now is        3.2 secs

     per-process dynamical memory:    20.2 Mb

     Self-consistent Calculation

     iteration #  1     ecut=    90.00 Ry     beta= 0.70
     Davidson diagonalization with overlap
     ethr =  1.00E-02,  avg # of iterations =  2.0

     total cpu time spent up to now is        4.3 secs

     total energy              =    -415.94129714 Ry
     estimated scf accuracy    <       4.67781034 Ry

     iteration #  2     ecut=    90.00 Ry     beta= 0.70
     Davidson diagonalization with overlap
     ethr =  4.87E-03,  avg # of iterations =  3.0

     total cpu time spent up to now is        5.6 secs

     total energy              =    -417.46637895 Ry
     estimated scf accuracy    <       3.53504524 Ry

     iteration #  3     ecut=    90.00 Ry     beta= 0.70
     Davidson diagonalization with overlap
     ethr =  3.68E-03,  avg # of iterations =  2.0

     total cpu time spent up to now is        6.6 secs

     total energy              =    -417.92606250 Ry
     estimated scf accuracy    <       0.15702220 Ry

     iteration #  4     ecut=    90.00 Ry     beta= 0.70
     Davidson diagonalization with overlap
     ethr =  1.64E-04,  avg # of iterations =  4.0

     total cpu time spent up to now is        8.1 secs

     total energy              =    -418.04671849 Ry
     estimated scf accuracy    <       0.19257688 Ry

     iteration #  5     ecut=    90.00 Ry     beta= 0.70
     Davidson diagonalization with overlap
     ethr =  1.64E-04,  avg # of iterations =  2.0

     total cpu time spent up to now is        9.0 secs

     total energy              =    -418.05135815 Ry
     estimated scf accuracy    <       0.02882671 Ry

     iteration #  6     ecut=    90.00 Ry     beta= 0.70
     Davidson diagonalization with overlap
     ethr =  3.00E-05,  avg # of iterations =  2.0

     total cpu time spent up to now is       10.0 secs

     total energy              =    -418.05439563 Ry
     estimated scf accuracy    <       0.00365114 Ry

     iteration #  7     ecut=    90.00 Ry     beta= 0.70
     Davidson diagonalization with overlap
     ethr =  3.80E-06,  avg # of iterations =  3.0

     total cpu time spent up to now is       11.2 secs

     total energy              =    -418.05736776 Ry
     estimated scf accuracy    <       0.00078300 Ry

     iteration #  8     ecut=    90.00 Ry     beta= 0.70
     Davidson diagonalization with overlap
     ethr =  8.16E-07,  avg # of iterations =  3.1

     total cpu time spent up to now is       12.4 secs

     total energy              =    -418.05584684 Ry
     estimated scf accuracy    <       0.00529220 Ry

     iteration #  9     ecut=    90.00 Ry     beta= 0.70
     Davidson diagonalization with overlap
     ethr =  8.16E-07,  avg # of iterations =  3.0

     total cpu time spent up to now is       13.7 secs

     total energy              =    -418.05628534 Ry
     estimated scf accuracy    <       0.00052099 Ry

     iteration # 10     ecut=    90.00 Ry     beta= 0.70
     Davidson diagonalization with overlap
     ethr =  5.43E-07,  avg # of iterations =  1.0

     total cpu time spent up to now is       14.5 secs

     total energy              =    -418.05624406 Ry
     estimated scf accuracy    <       0.00031124 Ry

     iteration # 11     ecut=    90.00 Ry     beta= 0.70
     Davidson diagonalization with overlap
     ethr =  3.24E-07,  avg # of iterations =  1.1

     total cpu time spent up to now is       15.4 secs

     total energy              =    -418.05622369 Ry
     estimated scf accuracy    <       0.00012067 Ry

     iteration # 12     ecut=    90.00 Ry     beta= 0.70
     Davidson diagonalization with overlap
     ethr =  1.26E-07,  avg # of iterations =  2.0

     total cpu time spent up to now is       16.4 secs

     total energy              =    -418.05625529 Ry
     estimated scf accuracy    <       0.00000132 Ry

     iteration # 13     ecut=    90.00 Ry     beta= 0.70
     Davidson diagonalization with overlap
     ethr =  1.37E-09,  avg # of iterations =  5.0

     total cpu time spent up to now is       17.8 secs

     total energy              =    -418.05625651 Ry
     estimated scf accuracy    <       0.00000103 Ry

     iteration # 14     ecut=    90.00 Ry     beta= 0.70
     Davidson diagonalization with overlap
     ethr =  1.08E-09,  avg # of iterations =  1.0

     total cpu time spent up to now is       18.6 secs

     total energy              =    -418.05625620 Ry
     estimated scf accuracy    <       0.00000067 Ry

     iteration # 15     ecut=    90.00 Ry     beta= 0.70
     Davidson diagonalization with overlap
     ethr =  6.93E-10,  avg # of iterations =  2.1

     total cpu time spent up to now is       19.7 secs

     End of self-consistent calculation

          k = 0.0000 0.0000 0.0000 ( 31057 PWs)   bands (ev):

   -21.2448 -20.8245 -20.8245 -20.6430 -20.6430 -20.6039 -20.6036 -20.6029
   -20.6029 -20.3391 -20.3391 -20.0616  -8.8780  -8.8082  -8.8082  -8.7864
    -8.7065  -8.7065  -8.4405  -8.4405  -8.4343  -8.3884  -8.3836  -8.3836
    -7.1268  -6.1211  -6.1211  -5.5501  -5.5501  -5.3908  -5.3908  -5.2340
    -5.1204  -4.4788  -4.4788  -3.7795  -3.3857  -3.3857  -3.3555  -3.2295
    -3.2295  -3.1961  -3.0984  -3.0984  -3.0579  -2.9899  -2.9419  -2.9419

          k =-0.1498-0.0865 0.3111 ( 31055 PWs)   bands (ev):

   -21.1787 -20.8623 -20.8162 -20.7654 -20.7325 -20.6715 -20.5616 -20.5215
   -20.4668 -20.3431 -20.3063 -20.1130  -8.8451  -8.8206  -8.8020  -8.7687
    -8.7005  -8.6732  -8.4940  -8.4701  -8.4589  -8.3787  -8.3239  -8.3203
    -6.9696  -6.2807  -6.1521  -5.8511  -5.6272  -5.3994  -5.2398  -5.1121
    -4.9564  -4.4718  -4.4155  -3.9226  -3.4608  -3.3979  -3.3695  -3.2916
    -3.2752  -3.2257  -3.1333  -3.0880  -3.0279  -3.0145  -2.9587  -2.9349

          k = 0.2996 0.1730-0.6221 ( 31054 PWs)   bands (ev):

   -21.0099 -21.0046 -20.8450 -20.8318 -20.7301 -20.7283 -20.5134 -20.5126
   -20.3530 -20.3411 -20.2390 -20.2368  -8.8270  -8.8123  -8.7717  -8.7690
    -8.7012  -8.6521  -8.5130  -8.4977  -8.4721  -8.3661  -8.2858  -8.2751
    -6.6468  -6.5458  -6.1463  -6.1380  -5.6120  -5.5514  -5.1206  -5.0357
    -4.6072  -4.5435  -4.3825  -4.1494  -3.5308  -3.4198  -3.3576  -3.3461
    -3.2924  -3.2589  -3.1799  -3.0918  -3.0723  -2.9941  -2.9433  -2.9263

          k =-0.1498 0.0865 0.6221 ( 31081 PWs)   bands (ev):

   -21.0466 -20.9201 -20.9066 -20.7987 -20.7757 -20.7174 -20.5212 -20.4494
   -20.4095 -20.3046 -20.2898 -20.2057  -8.8263  -8.8083  -8.7823  -8.7704
    -8.6958  -8.6417  -8.5116  -8.5035  -8.4879  -8.3355  -8.3029  -8.2772
    -6.6895  -6.4097  -6.3627  -5.9285  -5.7351  -5.5620  -5.1150  -4.8933
    -4.7782  -4.4551  -4.3888  -4.1678  -3.5154  -3.4464  -3.3520  -3.3283
    -3.2832  -3.2661  -3.1899  -3.0926  -3.0594  -2.9944  -2.9654  -2.9128

          k = 0.2996 0.3460-0.3111 ( 31053 PWs)   bands (ev):

   -21.0899 -20.9444 -20.8603 -20.8223 -20.7573 -20.6961 -20.5202 -20.4258
   -20.4110 -20.3388 -20.2831 -20.1894  -8.8307  -8.8242  -8.7897  -8.7531
    -8.6955  -8.6698  -8.5566  -8.5184  -8.4901  -8.3551  -8.3192  -8.2874
    -6.7001  -6.3925  -6.2057  -5.9725  -5.9084  -5.4088  -5.0349  -4.9440
    -4.7768  -4.5116  -4.3861  -4.1172  -3.4612  -3.4153  -3.3643  -3.3178
    -3.2718  -3.2112  -3.1544  -3.1260  -3.0361  -3.0335  -2.9545  -2.8751

          k = 0.1498 0.2595 0.0000 ( 31030 PWs)   bands (ev):

   -21.1960 -20.8911 -20.8402 -20.7421 -20.7145 -20.6454 -20.5640 -20.5032
   -20.4655 -20.3465 -20.3194 -20.1042  -8.8617  -8.8160  -8.8077  -8.7677
    -8.7048  -8.6973  -8.5192  -8.4904  -8.4525  -8.3949  -8.3679  -8.3229
    -6.9575  -6.1777  -6.0804  -5.8842  -5.8491  -5.3071  -5.1388  -5.0215
    -4.9956  -4.5137  -4.4699  -3.8790  -3.3893  -3.3764  -3.3697  -3.2782
    -3.2359  -3.2114  -3.1300  -3.1136  -3.0392  -3.0165  -2.9216  -2.9026

          k = 0.2996-0.1730-1.2442 ( 31038 PWs)   bands (ev):

   -21.0818 -21.0391 -20.8510 -20.7895 -20.7098 -20.6703 -20.5058 -20.4956
   -20.3831 -20.3764 -20.2180 -20.2111  -8.8412  -8.8212  -8.7964  -8.7550
    -8.6973  -8.6970  -8.5841  -8.5306  -8.4741  -8.3686  -8.3628  -8.3111
    -6.5528  -6.5237  -6.1703  -6.0370  -5.7915  -5.4347  -4.9588  -4.9441
    -4.7677  -4.6346  -4.2888  -4.1266  -3.4009  -3.3773  -3.3561  -3.3117
    -3.2445  -3.2112  -3.1598  -3.0939  -3.0938  -3.0074  -2.8891  -2.8864

          k = 0.0000 0.0000 0.9332 ( 31089 PWs)   bands (ev):

   -20.9920 -20.9920 -20.9126 -20.8908 -20.7204 -20.7204 -20.4499 -20.4499
   -20.3314 -20.3133 -20.2829 -20.2829  -8.8239  -8.8239  -8.7970  -8.7145
    -8.7145  -8.6968  -8.5901  -8.5180  -8.5180  -8.3017  -8.3017  -8.2804
    -6.4629  -6.4629  -6.4223  -6.0492  -5.7081  -5.7081  -4.8075  -4.8075
    -4.7371  -4.4479  -4.4479  -4.3380  -3.4206  -3.4206  -3.3336  -3.3137
    -3.2408  -3.2408  -3.2013  -3.0919  -3.0919  -2.9979  -2.9979  -2.8524

          k = 0.4494 0.2595 0.0000 ( 31034 PWs)   bands (ev):

   -21.1059 -20.9548 -20.9413 -20.7912 -20.6651 -20.6520 -20.5380 -20.5208
   -20.3768 -20.3150 -20.2893 -20.1814  -8.8383  -8.8155  -8.8082  -8.7469
    -8.7222  -8.6688  -8.5929  -8.5244  -8.4897  -8.3647  -8.3525  -8.3148
    -6.6685  -6.2752  -6.2315  -6.1413  -5.7524  -5.4297  -5.0412  -4.9597
    -4.6860  -4.5304  -4.4273  -4.0873  -3.3891  -3.3801  -3.3642  -3.3053
    -3.2610  -3.2175  -3.1443  -3.1190  -3.0714  -2.9837  -2.9271  -2.8697

          k = 0.2996 0.1730 0.3111 ( 31040 PWs)   bands (ev):

   -21.1328 -20.9003 -20.8299 -20.8144 -20.7483 -20.6833 -20.5352 -20.4883
   -20.4447 -20.3261 -20.2874 -20.1478  -8.8363  -8.8227  -8.7914  -8.7478
    -8.7074  -8.6499  -8.5322  -8.4831  -8.4532  -8.4143  -8.3590  -8.3019
    -6.8142  -6.2503  -6.2180  -5.9314  -5.8237  -5.3992  -5.1404  -4.9748
    -4.9148  -4.4601  -4.4062  -3.9869  -3.4819  -3.4094  -3.3843  -3.3311
    -3.2986  -3.1923  -3.1673  -3.0946  -3.0110  -3.0100  -2.9408  -2.9143

          k = 0.4494-0.2595-0.9332 ( 31038 PWs)   bands (ev):

   -21.0175 -21.0053 -20.8860 -20.8443 -20.7362 -20.6558 -20.5691 -20.4771
   -20.3666 -20.3068 -20.2696 -20.2039  -8.8282  -8.8073  -8.7966  -8.7286
    -8.6934  -8.6413  -8.5566  -8.5156  -8.4791  -8.4206  -8.3552  -8.3174
    -6.5139  -6.4088  -6.2651  -6.0537  -5.8475  -5.4327  -5.1861  -4.9042
    -4.6697  -4.4600  -4.4199  -4.0930  -3.4891  -3.4307  -3.4033  -3.3474
    -3.3222  -3.2154  -3.1234  -3.1047  -3.0306  -2.9932  -2.9217  -2.8997

          k = 0.2996-0.3460-0.6221 ( 31032 PWs)   bands (ev):

   -20.9776 -20.9691 -20.8773 -20.8669 -20.7510 -20.7501 -20.4961 -20.4934
   -20.3495 -20.3431 -20.2388 -20.2320  -8.8294  -8.7822  -8.7668  -8.7472
    -8.7278  -8.6022  -8.5446  -8.5027  -8.4669  -8.3976  -8.3176  -8.3060
    -6.5143  -6.4817  -6.2061  -6.1546  -5.6907  -5.6551  -5.0294  -4.9644
    -4.6274  -4.5934  -4.3404  -4.1272  -3.5512  -3.4348  -3.4003  -3.3958
    -3.3416  -3.2188  -3.1221  -3.1085  -3.0587  -2.9724  -2.9579  -2.9025

          k = 0.0000 0.0000-1.8663 ( 31044 PWs)   bands (ev):

   -20.9423 -20.9211 -20.8485 -20.8485 -20.8482 -20.8482 -20.4178 -20.4178
   -20.4014 -20.4014 -20.2317 -20.2177  -8.8286  -8.7457  -8.7457  -8.7421
    -8.7421  -8.5919  -8.5353  -8.5132  -8.4486  -8.4486  -8.3473  -8.3473
    -6.5017  -6.3557  -6.0294  -6.0294  -5.9474  -5.9474  -4.7814  -4.7814
    -4.7610  -4.7610  -4.2896  -4.1044  -3.5549  -3.4384  -3.4384  -3.4285
    -3.4285  -3.1666  -3.1287  -3.0415  -3.0415  -2.9891  -2.9891  -2.8734

          k = 0.2996-0.3460 0.3111 ( 31053 PWs)   bands (ev):

   -21.0900 -20.9423 -20.8665 -20.8188 -20.7563 -20.6957 -20.5191 -20.4319
   -20.4098 -20.3356 -20.2819 -20.1905  -8.8356  -8.8126  -8.7977  -8.7395
    -8.7072  -8.6712  -8.5668  -8.5134  -8.4853  -8.3507  -8.3127  -8.2970
    -6.7024  -6.3642  -6.2650  -5.9520  -5.8526  -5.4693  -5.1283  -4.8167
    -4.7037  -4.5661  -4.4492  -4.0887  -3.4708  -3.4031  -3.3555  -3.3110
    -3.2822  -3.2141  -3.1617  -3.1379  -3.0455  -3.0045  -2.9553  -2.8802

     highest occupied level (ev):    -2.8524

!    total energy              =    -418.05625635 Ry
     estimated scf accuracy    <       0.00000009 Ry

     The total energy is the sum of the following terms:
     one-electron contribution =    -299.64394647 Ry
     hartree contribution      =     183.99847097 Ry
     xc contribution           =    -105.50874136 Ry
     ewald contribution        =    -196.90203950 Ry

     convergence has been achieved in  15 iterations

     Forces acting on atoms (cartesian axes, Ry/au):

     atom    1 type  2   force =    -0.00606811    0.02234042    0.01287726
     atom    2 type  2   force =     0.00606811   -0.02234042   -0.01287726
     atom    3 type  2   force =    -0.01631331   -0.01642535    0.01287726
     atom    4 type  2   force =     0.01631331    0.01642535   -0.01287726
     atom    5 type  2   force =     0.02238142   -0.00591507    0.01287726
     atom    6 type  2   force =    -0.02238142    0.00591507   -0.01287726
     atom    7 type  2   force =    -0.01687877    0.01309174   -0.01034946
     atom    8 type  2   force =     0.01687877   -0.01309174    0.01034946
     atom    9 type  2   force =    -0.00289840   -0.02116331   -0.01034946
     atom   10 type  2   force =     0.00289840    0.02116331    0.01034946
     atom   11 type  2   force =     0.01977716    0.00807157   -0.01034946
     atom   12 type  2   force =    -0.01977716   -0.00807157    0.01034946
     atom   13 type  1   force =     0.01052532   -0.01848920    0.00962770
     atom   14 type  1   force =    -0.01052532    0.01848920   -0.00962770
     atom   15 type  1   force =     0.01074946    0.01835980    0.00962770
     atom   16 type  1   force =    -0.01074946   -0.01835980   -0.00962770
     atom   17 type  1   force =    -0.02127478    0.00012941    0.00962770
     atom   18 type  1   force =     0.02127478   -0.00012941   -0.00962770
     atom   19 type  1   force =    -0.00449327   -0.00440989   -0.02277245
     atom   20 type  1   force =     0.00449327    0.00440989    0.02277245
     atom   21 type  1   force =     0.00606571   -0.00168634   -0.02277245
     atom   22 type  1   force =    -0.00606571    0.00168634    0.02277245
     atom   23 type  1   force =    -0.00157244    0.00609623   -0.02277245
     atom   24 type  1   force =     0.00157244   -0.00609623    0.02277245
     atom   25 type  1   force =    -0.00598867   -0.02322453   -0.00071147
     atom   26 type  1   force =     0.00598867    0.02322453    0.00071147
     atom   27 type  1   force =     0.02310737    0.00642593   -0.00071147
     atom   28 type  1   force =    -0.02310737   -0.00642593    0.00071147
     atom   29 type  1   force =    -0.01711870    0.01679860   -0.00071147
     atom   30 type  1   force =     0.01711870   -0.01679860    0.00071147
     atom   31 type  1   force =    -0.01486714    0.01471634    0.01295229
     atom   32 type  1   force =     0.01486714   -0.01471634   -0.01295229
     atom   33 type  1   force =    -0.00531116   -0.02023349    0.01295229
     atom   34 type  1   force =     0.00531116    0.02023349   -0.01295229
     atom   35 type  1   force =     0.02017830    0.00551715    0.01295229
     atom   36 type  1   force =    -0.02017830   -0.00551715   -0.01295229

     Total force =     0.145941     Total SCF correction =     0.000194


     Computing stress (Cartesian axis) and pressure

          total   stress  (Ry/bohr**3)                   (kbar)     P=      -34.01
  -0.00023325  -0.00000000  -0.00000000          -34.31       -0.00       -0.00
   0.00000000  -0.00023325  -0.00000000            0.00      -34.31       -0.00
  -0.00000000  -0.00000000  -0.00022703           -0.00       -0.00      -33.40


     Writing all to output data dir ./iceII/iceII.save/ :
     XML data file, charge density, pseudopotentials, collected wavefunctions

     init_run     :      2.88s CPU      2.99s WALL (       1 calls)
     electrons    :     15.80s CPU     16.90s WALL (       1 calls)
     forces       :      0.13s CPU      0.15s WALL (       1 calls)
     stress       :      1.11s CPU      1.16s WALL (       1 calls)

     Called by init_run:
     wfcinit      :      0.35s CPU      0.36s WALL (       1 calls)
     potinit      :      1.70s CPU      1.77s WALL (       1 calls)
     hinit0       :      0.67s CPU      0.68s WALL (       1 calls)

     Called by electrons:
     c_bands      :     11.27s CPU     11.40s WALL (      15 calls)
     sum_band     :      1.67s CPU      1.71s WALL (      15 calls)
     v_of_rho     :      4.36s CPU      4.92s WALL (      16 calls)
     newd         :      0.07s CPU      0.07s WALL (      16 calls)
     mix_rho      :      0.06s CPU      0.07s WALL (      15 calls)
     vdW_kernel   :      1.51s CPU      1.52s WALL (       1 calls)

     Called by c_bands:
     init_us_2    :      0.20s CPU      0.21s WALL (     132 calls)
     cegterg      :     10.87s CPU     10.98s WALL (      60 calls)

     Called by *egterg:
     cdiaghg      :      0.78s CPU      0.78s WALL (     207 calls)
     h_psi        :      8.59s CPU      8.66s WALL (     211 calls)
     s_psi        :      0.36s CPU      0.38s WALL (     211 calls)
     g_psi        :      0.02s CPU      0.02s WALL (     147 calls)

     Called by h_psi:
     h_psi:calbec :      0.61s CPU      0.62s WALL (     211 calls)
     vloc_psi     :      7.55s CPU      7.61s WALL (     211 calls)
     add_vuspsi   :      0.36s CPU      0.37s WALL (     211 calls)

     General routines
     calbec       :      0.82s CPU      0.84s WALL (     291 calls)
     fft          :      2.14s CPU      2.45s WALL (    1028 calls)
     ffts         :      0.02s CPU      0.02s WALL (      15 calls)
     fftw         :      7.90s CPU      7.96s WALL (   20498 calls)

     Parallel routines

     PWSCF        :     20.38s CPU     22.16s WALL


   This run was terminated on:  14:58: 6  26Mar2026            

=------------------------------------------------------------------------------=
   JOB DONE.
=------------------------------------------------------------------------------=
