
     Program PWSCF v.7.3.1 starts on 26Mar2026 at 14:58:37 

     This program is part of the open-source Quantum ESPRESSO suite
     for quantum simulation of materials; please cite
         "P. Giannozzi et al., J. Phys.:Condens. Matter 21 395502 (2009);
         "P. Giannozzi et al., J. Phys.:Condens. Matter 29 465901 (2017);
         "P. Giannozzi et al., J. Chem. Phys. 152 154105 (2020);
          URL http://www.quantum-espresso.org", 
     in publications or presentations arising from this work. More details at
     http://www.quantum-espresso.org/quote

     Parallel version (MPI), running on   128 processors

     MPI processes distributed on     1 nodes
     242748 MiB available memory on the printing compute node when the environment starts

     Waiting for input...
     Reading input from standard input

     Current dimensions of program PWSCF are:
     Max number of different atomic species (ntypx) = 10
     Max number of k-points (npk) =  40000
     Max angular momentum in pseudopotentials (lmaxx) =  4

     IMPORTANT: XC functional enforced from input :
     Exchange-correlation= VDW-DF2
                           (   1   4  13   0   2   0   0)
     Any further DFT definition will be discarded
     Please, verify this is what you really want


     K-points division:     npool     =       4
     R & G space division:  proc/nbgrp/npool/nimage =      32
     Subspace diagonalization in iterative solution of the eigenvalue problem:
     a serial algorithm will be used


     Parallelization info
     --------------------
     sticks:   dense  smooth     PW     G-vecs:    dense   smooth      PW
     Min         185     185     54                 7855     7855    1245
     Max         186     186     55                 7857     7857    1246
     Sum        5927    5927   1735               251389   251389   39847

     Using Slab Decomposition



     bravais-lattice index     =            5
     lattice parameter (alat)  =      14.9961  a.u.
     unit-cell volume          =    2178.8544 (a.u.)^3
     number of atoms/cell      =           36
     number of atomic types    =            2
     number of electrons       =        96.00
     number of Kohn-Sham states=           48
     kinetic-energy cutoff     =      90.0000  Ry
     charge density cutoff     =     360.0000  Ry
     scf convergence threshold =      1.0E-07
     mixing beta               =       0.7000
     number of iterations used =            8  plain     mixing
     Exchange-correlation= VDW-DF2
                           (   1   4  13   0   2   0   0)

     celldm(1)=  14.996110  celldm(2)=   0.000000  celldm(3)=   0.000000
     celldm(4)=  -0.392337  celldm(5)=   0.000000  celldm(6)=   0.000000

     crystal axes: (cart. coord. in units of alat)
               a(1) = (   0.834367  -0.481722   0.267909 )  
               a(2) = (   0.000000   0.963444   0.267909 )  
               a(3) = (  -0.834367  -0.481722   0.267909 )  

     reciprocal axes: (cart. coord. in units 2 pi/alat)
               b(1) = (  0.599257 -0.345981  1.244203 )  
               b(2) = ( -0.000000  0.691962  1.244203 )  
               b(3) = ( -0.599257 -0.345981  1.244203 )  


     PseudoPot. # 1 for H  read from file:
     ./H.pbe-van_ak.UPF
     MD5 check sum: 077eb6d537518a38cb46c6de387227b7
     Pseudo is Ultrasoft, Zval =  1.0
     Generated by new atomic code, or converted to UPF format
     Using radial grid of  615 points,  1 beta functions with: 
                l(1) =   0
     Q(r) pseudized with  8 coefficients,  rinner =    0.800

     PseudoPot. # 2 for O  read from file:
     ./O.pbe-van_ak.UPF
     MD5 check sum: 78c19812648e8988a0fe644b0f25305e
     Pseudo is Ultrasoft, Zval =  6.0
     Generated by new atomic code, or converted to UPF format
     Using radial grid of  737 points,  4 beta functions with: 
                l(1) =   0
                l(2) =   0
                l(3) =   1
                l(4) =   1
     Q(r) pseudized with  8 coefficients,  rinner =    0.800   0.800   0.800


     atomic species   valence    mass     pseudopotential
     H                 1.00     1.00800     H ( 1.00)
     O                 6.00    16.00000     O ( 1.00)

      6 Sym. Ops., with inversion, found



   Cartesian axes

     site n.     atom                  positions (alat units)
         1        O      tau(   1) = (  -0.4881587  -0.5153728   0.3102004  )
         2        O      tau(   2) = (   0.4881587   0.5153729   0.4935268  )
         3        O      tau(   3) = (   0.6904053  -0.1650714   0.3102004  )
         4        O      tau(   4) = (  -0.6904053   0.1650714   0.4935268  )
         5        O      tau(   5) = (  -0.2022466   0.6804442   0.3102004  )
         6        O      tau(   6) = (   0.2022466  -0.6804442   0.4935268  )
         7        O      tau(   7) = (   0.1208629   0.3351200   0.4137471  )
         8        O      tau(   8) = (  -0.1208629  -0.3351200   0.3899800  )
         9        O      tau(   9) = (  -0.3506539  -0.0628897   0.4137471  )
        10        O      tau(  10) = (   0.3506539   0.0628897   0.3899800  )
        11        O      tau(  11) = (   0.2297910  -0.2722304   0.4137471  )
        12        O      tau(  12) = (  -0.2297910   0.2722304   0.3899800  )
        13        H      tau(  13) = (  -0.5430428  -0.4102686   0.2622098  )
        14        H      tau(  14) = (   0.5430428   0.4102686   0.5415173  )
        15        H      tau(  15) = (   0.6268245  -0.2651546   0.2622098  )
        16        H      tau(  16) = (  -0.6268245   0.2651546   0.5415173  )
        17        H      tau(  17) = (  -0.0837816   0.6754232   0.2622098  )
        18        H      tau(  18) = (   0.0837817  -0.6754232   0.5415173  )
        19        H      tau(  19) = (  -0.4681736  -0.4859583   0.4327384  )
        20        H      tau(  20) = (   0.4681736   0.4859583   0.3709887  )
        21        H      tau(  21) = (   0.6549390  -0.1624711   0.4327384  )
        22        H      tau(  22) = (  -0.6549390   0.1624711   0.3709887  )
        23        H      tau(  23) = (  -0.1867654   0.6484294   0.4327384  )
        24        H      tau(  24) = (   0.1867654  -0.6484294   0.3709887  )
        25        H      tau(  25) = (   0.2718867  -0.1516220   0.4118766  )
        26        H      tau(  26) = (  -0.2718867   0.1516219   0.3918506  )
        27        H      tau(  27) = (  -0.0046349   0.3112717   0.4118766  )
        28        H      tau(  28) = (   0.0046349  -0.3112717   0.3918506  )
        29        H      tau(  29) = (  -0.2672518  -0.1596498   0.4118766  )
        30        H      tau(  30) = (   0.2672518   0.1596498   0.3918506  )
        31        H      tau(  31) = (   0.3136186  -0.3416266   0.3473301  )
        32        H      tau(  32) = (  -0.3136186   0.3416266   0.4563970  )
        33        H      tau(  33) = (   0.1390481   0.4424150   0.3473301  )
        34        H      tau(  34) = (  -0.1390480  -0.4424150   0.4563970  )
        35        H      tau(  35) = (  -0.4526667  -0.1007884   0.3473301  )
        36        H      tau(  36) = (   0.4526666   0.1007884   0.4563970  )

     number of k points=    14
                       cart. coord. in units 2pi/alat
        k(    1) = (   0.0000000   0.0000000   0.0000000), wk =   0.0312500
        k(    2) = (  -0.1498141  -0.0864952   0.3110508), wk =   0.1875000
        k(    3) = (   0.2996283   0.1729905  -0.6221017), wk =   0.0937500
        k(    4) = (  -0.1498141   0.0864952   0.6221017), wk =   0.1875000
        k(    5) = (   0.2996283   0.3459809  -0.3110508), wk =   0.1875000
        k(    6) = (   0.1498141   0.2594857   0.0000000), wk =   0.1875000
        k(    7) = (   0.2996283  -0.1729905  -1.2442034), wk =   0.0937500
        k(    8) = (   0.0000000   0.0000000   0.9331525), wk =   0.0625000
        k(    9) = (   0.4494424   0.2594857   0.0000000), wk =   0.1875000
        k(   10) = (   0.2996283   0.1729905   0.3110508), wk =   0.1875000
        k(   11) = (   0.4494424  -0.2594857  -0.9331525), wk =   0.1875000
        k(   12) = (   0.2996283  -0.3459809  -0.6221017), wk =   0.1875000
        k(   13) = (   0.0000000   0.0000000  -1.8663050), wk =   0.0312500
        k(   14) = (   0.2996283  -0.3459809   0.3110508), wk =   0.1875000

     Dense  grid:   251389 G-vectors     FFT dimensions: (  96,  96,  96)

     Estimated max dynamical RAM per process >      16.48 MB

     Estimated total dynamical RAM >       1.88 GB

     Initial potential from superposition of free atoms

     starting charge      95.9998, renormalised to      96.0000


     %%%%%%%%%%%%%%%%%%%%%%%%%%%%%%%%%%%%%%%%%%%%%%%%%%%%%%%%%%%%%%%%%%%%%%%%
     %                                                                      %
     % You are using vdW-DF, which was implemented by the Thonhauser group. %
     % Please cite the following two papers that made this development      %
     % possible and the two reviews that describe the various versions:     %
     %                                                                      %
     %   T. Thonhauser et al., PRL 115, 136402 (2015).                      %
     %   T. Thonhauser et al., PRB 76, 125112 (2007).                       %
     %   K. Berland et al., Rep. Prog. Phys. 78, 066501 (2015).             %
     %   D.C. Langreth et al., J. Phys.: Condens. Matter 21, 084203 (2009). %
     %                                                                      %
     % If you are calculating stress with vdW-DF, please also cite:         %
     %                                                                      %
     %   R. Sabatini et al., J. Phys.: Condens. Matter 24, 424209 (2012).   %
     %                                                                      %
     %%%%%%%%%%%%%%%%%%%%%%%%%%%%%%%%%%%%%%%%%%%%%%%%%%%%%%%%%%%%%%%%%%%%%%%%

     %%%%%%%%%%%%%%%%%%%%%%%%%%%%%%%%%%%%%%%%%%%%%%%%%%%%%%%%%%%%%%%%%%%%%%%%
     %                                                                      %
     %  vdW-DF NEWS:                                                        %
     %                                                                      %
     %  * vdW-DF3 is now available. DOI: 10.1021/acs.jctc.0c00471           %
     %    use with input_dft = 'vdW-DF3-opt1' or 'vdW-DF3-opt2'             %
     %                                                                      %
     %  * Unscreened and range-separated hybrid vdW-DF-cx functionals       %
     %    DOI: 10.1063/1.4986522 and 10.1088/1361-648X/ac2ad2               %
     %    use with input_dft = 'vdW-DF-cx0'    and 'vdW-DF-ahcx'            %
     %  * Unscreened and range-separated hybrid vdW-DF2-b86r functionals    %
     %    DOI: 10.1063/1.4986522 and DOI: 10.1103/PhysRevX.12.041003        %
     %    use with input_dft = 'vdW-DF2-br0' and 'vdW-DF2-ahbr'             %
     %                                                                      %
     %%%%%%%%%%%%%%%%%%%%%%%%%%%%%%%%%%%%%%%%%%%%%%%%%%%%%%%%%%%%%%%%%%%%%%%%


     Starting wfcs are   72 randomized atomic wfcs

     total cpu time spent up to now is        3.2 secs

     per-process dynamical memory:    20.6 Mb

     Self-consistent Calculation

     iteration #  1     ecut=    90.00 Ry     beta= 0.70
     Davidson diagonalization with overlap
     ethr =  1.00E-02,  avg # of iterations =  2.0

     negative rho (up, down):  6.797E-08 0.000E+00

     total cpu time spent up to now is        4.3 secs

     total energy              =    -415.93746019 Ry
     estimated scf accuracy    <       4.65793606 Ry

     iteration #  2     ecut=    90.00 Ry     beta= 0.70
     Davidson diagonalization with overlap
     ethr =  4.85E-03,  avg # of iterations =  3.0

     total cpu time spent up to now is        5.6 secs

     total energy              =    -417.45199958 Ry
     estimated scf accuracy    <       3.58320245 Ry

     iteration #  3     ecut=    90.00 Ry     beta= 0.70
     Davidson diagonalization with overlap
     ethr =  3.73E-03,  avg # of iterations =  2.0

     total cpu time spent up to now is        6.6 secs

     total energy              =    -417.91723955 Ry
     estimated scf accuracy    <       0.16063509 Ry

     iteration #  4     ecut=    90.00 Ry     beta= 0.70
     Davidson diagonalization with overlap
     ethr =  1.67E-04,  avg # of iterations =  4.0

     negative rho (up, down):  6.340E-08 0.000E+00

     total cpu time spent up to now is        8.1 secs

     total energy              =    -418.04064596 Ry
     estimated scf accuracy    <       0.19559908 Ry

     iteration #  5     ecut=    90.00 Ry     beta= 0.70
     Davidson diagonalization with overlap
     ethr =  1.67E-04,  avg # of iterations =  2.0

     negative rho (up, down):  1.275E-07 0.000E+00

     total cpu time spent up to now is        9.0 secs

     total energy              =    -418.04503481 Ry
     estimated scf accuracy    <       0.02944960 Ry

     iteration #  6     ecut=    90.00 Ry     beta= 0.70
     Davidson diagonalization with overlap
     ethr =  3.07E-05,  avg # of iterations =  2.0

     negative rho (up, down):  1.615E-07 0.000E+00

     total cpu time spent up to now is       10.0 secs

     total energy              =    -418.04858625 Ry
     estimated scf accuracy    <       0.00334850 Ry

     iteration #  7     ecut=    90.00 Ry     beta= 0.70
     Davidson diagonalization with overlap
     ethr =  3.49E-06,  avg # of iterations =  3.0

     negative rho (up, down):  1.727E-07 0.000E+00

     total cpu time spent up to now is       11.2 secs

     total energy              =    -418.05120519 Ry
     estimated scf accuracy    <       0.00071687 Ry

     iteration #  8     ecut=    90.00 Ry     beta= 0.70
     Davidson diagonalization with overlap
     ethr =  7.47E-07,  avg # of iterations =  3.0

     negative rho (up, down):  1.502E-07 0.000E+00

     total cpu time spent up to now is       12.4 secs

     total energy              =    -418.05002308 Ry
     estimated scf accuracy    <       0.00426508 Ry

     iteration #  9     ecut=    90.00 Ry     beta= 0.70
     Davidson diagonalization with overlap
     ethr =  7.47E-07,  avg # of iterations =  3.0

     negative rho (up, down):  1.461E-07 0.000E+00

     total cpu time spent up to now is       13.7 secs

     total energy              =    -418.05031411 Ry
     estimated scf accuracy    <       0.00052017 Ry

     iteration # 10     ecut=    90.00 Ry     beta= 0.70
     Davidson diagonalization with overlap
     ethr =  5.42E-07,  avg # of iterations =  1.0

     negative rho (up, down):  1.430E-07 0.000E+00

     total cpu time spent up to now is       14.5 secs

     total energy              =    -418.05030015 Ry
     estimated scf accuracy    <       0.00023116 Ry

     iteration # 11     ecut=    90.00 Ry     beta= 0.70
     Davidson diagonalization with overlap
     ethr =  2.41E-07,  avg # of iterations =  1.8

     negative rho (up, down):  1.388E-07 0.000E+00

     total cpu time spent up to now is       15.4 secs

     total energy              =    -418.05028552 Ry
     estimated scf accuracy    <       0.00010488 Ry

     iteration # 12     ecut=    90.00 Ry     beta= 0.70
     Davidson diagonalization with overlap
     ethr =  1.09E-07,  avg # of iterations =  2.0

     negative rho (up, down):  1.371E-07 0.000E+00

     total cpu time spent up to now is       16.4 secs

     total energy              =    -418.05029984 Ry
     estimated scf accuracy    <       0.00000819 Ry

     iteration # 13     ecut=    90.00 Ry     beta= 0.70
     Davidson diagonalization with overlap
     ethr =  8.53E-09,  avg # of iterations =  3.4

     negative rho (up, down):  1.376E-07 0.000E+00

     total cpu time spent up to now is       17.6 secs

     total energy              =    -418.05030195 Ry
     estimated scf accuracy    <       0.00000017 Ry

     iteration # 14     ecut=    90.00 Ry     beta= 0.70
     Davidson diagonalization with overlap
     ethr =  1.73E-10,  avg # of iterations =  4.8

     negative rho (up, down):  1.384E-07 0.000E+00

     total cpu time spent up to now is       19.0 secs

     total energy              =    -418.05030208 Ry
     estimated scf accuracy    <       0.00000011 Ry

     iteration # 15     ecut=    90.00 Ry     beta= 0.70
     Davidson diagonalization with overlap
     ethr =  1.10E-10,  avg # of iterations =  2.1

     negative rho (up, down):  1.381E-07 0.000E+00

     total cpu time spent up to now is       20.1 secs

     End of self-consistent calculation

          k = 0.0000 0.0000 0.0000 ( 31423 PWs)   bands (ev):

   -21.2465 -20.8363 -20.8363 -20.6584 -20.6584 -20.6206 -20.6197 -20.6190
   -20.6190 -20.3614 -20.3614 -20.0901  -8.8909  -8.8210  -8.8210  -8.8006
    -8.7224  -8.7224  -8.4594  -8.4594  -8.4526  -8.4070  -8.4036  -8.4036
    -7.1504  -6.1569  -6.1569  -5.5939  -5.5939  -5.4360  -5.4360  -5.2820
    -5.1677  -4.5332  -4.5332  -3.8386  -3.4320  -3.4320  -3.4029  -3.2789
    -3.2789  -3.2461  -3.1494  -3.1494  -3.1099  -3.0441  -2.9961  -2.9961

          k =-0.1498-0.0865 0.3111 ( 31424 PWs)   bands (ev):

   -21.1819 -20.8734 -20.8283 -20.7782 -20.7458 -20.6863 -20.5788 -20.5395
   -20.4861 -20.3653 -20.3294 -20.1403  -8.8586  -8.8337  -8.8154  -8.7829
    -8.7166  -8.6895  -8.5115  -8.4880  -8.4773  -8.3985  -8.3450  -8.3408
    -6.9954  -6.3150  -6.1880  -5.8910  -5.6703  -5.4447  -5.2861  -5.1607
    -5.0055  -4.5263  -4.4705  -3.9813  -3.5056  -3.4437  -3.4164  -3.3396
    -3.3237  -3.2755  -3.1841  -3.1395  -3.0804  -3.0674  -3.0125  -2.9890

          k = 0.2996 0.1730-0.6221 ( 31454 PWs)   bands (ev):

   -21.0168 -21.0120 -20.8561 -20.8436 -20.7435 -20.7420 -20.5315 -20.5309
   -20.3750 -20.3633 -20.2634 -20.2615  -8.8402  -8.8258  -8.7857  -8.7840
    -8.7175  -8.6687  -8.5304  -8.5147  -8.4905  -8.3860  -8.3075  -8.2970
    -6.6762  -6.5778  -6.1827  -6.1744  -5.6546  -5.5952  -5.1684  -5.0846
    -4.6609  -4.5959  -4.4373  -4.2070  -3.5745  -3.4650  -3.4046  -3.3932
    -3.3403  -3.3087  -3.2297  -3.1434  -3.1237  -3.0471  -2.9974  -2.9803

          k =-0.1498 0.0865 0.6221 ( 31425 PWs)   bands (ev):

   -21.0528 -20.9293 -20.9164 -20.8111 -20.7883 -20.7313 -20.5392 -20.4691
   -20.4301 -20.3277 -20.3130 -20.2310  -8.8397  -8.8218  -8.7960  -8.7853
    -8.7122  -8.6587  -8.5289  -8.5207  -8.5054  -8.3564  -8.3241  -8.2989
    -6.7190  -6.4424  -6.3964  -5.9674  -5.7770  -5.6053  -5.1631  -4.9431
    -4.8293  -4.5092  -4.4444  -4.2242  -3.5592  -3.4912  -3.3994  -3.3756
    -3.3324  -3.3146  -3.2397  -3.1440  -3.1111  -3.0472  -3.0191  -2.9671

          k = 0.2996 0.3460-0.3111 ( 31419 PWs)   bands (ev):

   -21.0951 -20.9530 -20.8712 -20.8336 -20.7707 -20.7104 -20.5385 -20.4461
   -20.4315 -20.3611 -20.3065 -20.2150  -8.8441  -8.8379  -8.8035  -8.7679
    -8.7113  -8.6858  -8.5726  -8.5353  -8.5074  -8.3755  -8.3401  -8.3091
    -6.7294  -6.4255  -6.2417  -6.0108  -5.9481  -5.4543  -5.0839  -4.9932
    -4.8283  -4.5646  -4.4419  -4.1750  -3.5064  -3.4610  -3.4112  -3.3655
    -3.3201  -3.2611  -3.2045  -3.1770  -3.0884  -3.0858  -3.0084  -2.9304

          k = 0.1498 0.2595 0.0000 ( 31438 PWs)   bands (ev):

   -21.1987 -20.9010 -20.8514 -20.7557 -20.7285 -20.6608 -20.5814 -20.5218
   -20.4848 -20.3686 -20.3422 -20.1318  -8.8750  -8.8294  -8.8208  -8.7820
    -8.7203  -8.7129  -8.5360  -8.5082  -8.4703  -8.4142  -8.3882  -8.3438
    -6.9836  -6.2131  -6.1179  -5.9236  -5.8891  -5.3534  -5.1874  -5.0706
    -5.0447  -4.5679  -4.5241  -3.9387  -3.4356  -3.4231  -3.4165  -3.3263
    -3.2850  -3.2612  -3.1806  -3.1643  -3.0921  -3.0695  -2.9761  -2.9575

          k = 0.2996-0.1730-1.2442 ( 31392 PWs)   bands (ev):

   -21.0870 -21.0455 -20.8618 -20.8023 -20.7238 -20.6856 -20.5243 -20.5147
   -20.4043 -20.3978 -20.2430 -20.2362  -8.8547  -8.8352  -8.8104  -8.7698
    -8.7124  -8.7117  -8.5993  -8.5475  -8.4915  -8.3887  -8.3826  -8.3323
    -6.5847  -6.5554  -6.2066  -6.0749  -5.8315  -5.4797  -5.0089  -4.9946
    -4.8191  -4.6869  -4.3444  -4.1851  -3.4471  -3.4238  -3.4037  -3.3590
    -3.2931  -3.2609  -3.2101  -3.1461  -3.1449  -3.0602  -2.9443  -2.9415

          k = 0.0000 0.0000 0.9332 ( 31452 PWs)   bands (ev):

   -20.9994 -20.9994 -20.9219 -20.9010 -20.7346 -20.7346 -20.4698 -20.4698
   -20.3536 -20.3362 -20.3063 -20.3063  -8.8375  -8.8375  -8.8108  -8.7299
    -8.7299  -8.7122  -8.6055  -8.5347  -8.5347  -8.3232  -8.3232  -8.3023
    -6.4953  -6.4953  -6.4544  -6.0885  -5.7497  -5.7497  -4.8584  -4.8584
    -4.7875  -4.5029  -4.5029  -4.3934  -3.4665  -3.4665  -3.3811  -3.3616
    -3.2898  -3.2898  -3.2514  -3.1432  -3.1432  -3.0508  -3.0508  -2.9080

          k = 0.4494 0.2595 0.0000 ( 31421 PWs)   bands (ev):

   -21.1106 -20.9629 -20.9501 -20.8040 -20.6805 -20.6675 -20.5561 -20.5389
   -20.3982 -20.3378 -20.3127 -20.2072  -8.8520  -8.8293  -8.8220  -8.7616
    -8.7371  -8.6840  -8.6083  -8.5409  -8.5067  -8.3849  -8.3728  -8.3360
    -6.6986  -6.3096  -6.2673  -6.1785  -5.7929  -5.4742  -5.0908  -5.0098
    -4.7380  -4.5845  -4.4817  -4.1457  -3.4355  -3.4268  -3.4114  -3.3525
    -3.3098  -3.2670  -3.1947  -3.1698  -3.1238  -3.0370  -2.9814  -2.9252

          k = 0.2996 0.1730 0.3111 ( 31386 PWs)   bands (ev):

   -21.1370 -20.9103 -20.8418 -20.8258 -20.7614 -20.6979 -20.5531 -20.5071
   -20.4646 -20.3486 -20.3109 -20.1744  -8.8498  -8.8362  -8.8052  -8.7625
    -8.7233  -8.6661  -8.5490  -8.5006  -8.4716  -8.4335  -8.3786  -8.3233
    -6.8423  -6.2856  -6.2535  -5.9698  -5.8642  -5.4451  -5.1879  -5.0250
    -4.9645  -4.5142  -4.4613  -4.0460  -3.5266  -3.4552  -3.4305  -3.3785
    -3.3465  -3.2422  -3.2174  -3.1459  -3.0638  -3.0628  -2.9951  -2.9689

          k = 0.4494-0.2595-0.9332 ( 31399 PWs)   bands (ev):

   -21.0242 -21.0128 -20.8958 -20.8559 -20.7496 -20.6709 -20.5862 -20.4963
   -20.3883 -20.3298 -20.2935 -20.2292  -8.8420  -8.8213  -8.8108  -8.7439
    -8.7093  -8.6568  -8.5731  -8.5326  -8.4965  -8.4396  -8.3750  -8.3383
    -6.5458  -6.4423  -6.3003  -6.0915  -5.8872  -5.4773  -5.2342  -4.9548
    -4.7225  -4.5140  -4.4748  -4.1514  -3.5341  -3.4762  -3.4493  -3.3944
    -3.3694  -3.2643  -3.1743  -3.1558  -3.0830  -3.0463  -2.9762  -2.9548

          k = 0.2996-0.3460-0.6221 ( 31398 PWs)   bands (ev):

   -20.9854 -20.9774 -20.8876 -20.8778 -20.7639 -20.7630 -20.5147 -20.5122
   -20.3715 -20.3654 -20.2634 -20.2565  -8.8430  -8.7960  -8.7813  -8.7624
    -8.7436  -8.6197  -8.5613  -8.5192  -8.4852  -8.4171  -8.3384  -8.3271
    -6.5461  -6.5142  -6.2416  -6.1910  -5.7324  -5.6977  -5.0785  -5.0149
    -4.6800  -4.6461  -4.3960  -4.1845  -3.5949  -3.4798  -3.4463  -3.4418
    -3.3894  -3.2675  -3.1729  -3.1596  -3.1105  -3.0256  -3.0115  -2.9577

          k = 0.0000 0.0000-1.8663 ( 31428 PWs)   bands (ev):

   -20.9513 -20.9314 -20.8592 -20.8592 -20.8585 -20.8585 -20.4381 -20.4381
   -20.4225 -20.4225 -20.2566 -20.2427  -8.8425  -8.7612  -8.7612  -8.7569
    -8.7569  -8.6083  -8.5532  -8.5291  -8.4674  -8.4674  -8.3672  -8.3672
    -6.5339  -6.3901  -6.0669  -6.0669  -5.9868  -5.9868  -4.8341  -4.8341
    -4.8124  -4.8124  -4.3455  -4.1614  -3.5997  -3.4833  -3.4833  -3.4738
    -3.4738  -3.2159  -3.1793  -3.0935  -3.0935  -3.0422  -3.0422  -2.9293

          k = 0.2996-0.3460 0.3111 ( 31419 PWs)   bands (ev):

   -21.0952 -20.9511 -20.8770 -20.8304 -20.7697 -20.7100 -20.5374 -20.4518
   -20.4307 -20.3579 -20.3055 -20.2161  -8.8491  -8.8261  -8.8116  -8.7547
    -8.7226  -8.6871  -8.5826  -8.5305  -8.5027  -8.3713  -8.3336  -8.3186
    -6.7317  -6.3981  -6.2996  -5.9907  -5.8932  -5.5136  -5.1758  -4.8686
    -4.7554  -4.6198  -4.5025  -4.1473  -3.5157  -3.4492  -3.4027  -3.3587
    -3.3303  -3.2636  -3.2119  -3.1887  -3.0975  -3.0574  -3.0092  -2.9353

     highest occupied level (ev):    -2.9080

!    total energy              =    -418.05030207 Ry
     estimated scf accuracy    <       0.00000007 Ry

     The total energy is the sum of the following terms:
     one-electron contribution =    -301.02121522 Ry
     hartree contribution      =     184.50674132 Ry
     xc contribution           =    -105.40595353 Ry
     ewald contribution        =    -196.12987464 Ry

     convergence has been achieved in  15 iterations

     Forces acting on atoms (cartesian axes, Ry/au):

     atom    1 type  2   force =    -0.00752210    0.02767784    0.01578073
     atom    2 type  2   force =     0.00752210   -0.02767784   -0.01578073
     atom    3 type  2   force =    -0.02020866   -0.02035325    0.01578073
     atom    4 type  2   force =     0.02020866    0.02035325   -0.01578073
     atom    5 type  2   force =     0.02773076   -0.00732459    0.01578073
     atom    6 type  2   force =    -0.02773076    0.00732459   -0.01578073
     atom    7 type  2   force =    -0.02099051    0.01619038   -0.01304449
     atom    8 type  2   force =     0.02099051   -0.01619038    0.01304449
     atom    9 type  2   force =    -0.00352603   -0.02627351   -0.01304449
     atom   10 type  2   force =     0.00352603    0.02627351    0.01304449
     atom   11 type  2   force =     0.02451654    0.01008313   -0.01304449
     atom   12 type  2   force =    -0.02451654   -0.01008313    0.01304449
     atom   13 type  1   force =     0.01287165   -0.02275436    0.01202944
     atom   14 type  1   force =    -0.01287165    0.02275436   -0.01202944
     atom   15 type  1   force =     0.01327002    0.02252435    0.01202944
     atom   16 type  1   force =    -0.01327002   -0.02252435   -0.01202944
     atom   17 type  1   force =    -0.02614167    0.00023000    0.01202944
     atom   18 type  1   force =     0.02614167   -0.00023000   -0.01202944
     atom   19 type  1   force =    -0.00555306   -0.00534522   -0.02809197
     atom   20 type  1   force =     0.00555306    0.00534522    0.02809197
     atom   21 type  1   force =     0.00740563   -0.00213648   -0.02809197
     atom   22 type  1   force =    -0.00740563    0.00213648    0.02809197
     atom   23 type  1   force =    -0.00185257    0.00748170   -0.02809197
     atom   24 type  1   force =     0.00185257   -0.00748170    0.02809197
     atom   25 type  1   force =    -0.00751777   -0.02843373   -0.00083778
     atom   26 type  1   force =     0.00751777    0.02843373    0.00083778
     atom   27 type  1   force =     0.02838322    0.00770628   -0.00083778
     atom   28 type  1   force =    -0.02838322   -0.00770628    0.00083778
     atom   29 type  1   force =    -0.02086545    0.02072745   -0.00083778
     atom   30 type  1   force =     0.02086545   -0.02072745    0.00083778
     atom   31 type  1   force =    -0.01832032    0.01799049    0.01580464
     atom   32 type  1   force =     0.01832032   -0.01799049   -0.01580464
     atom   33 type  1   force =    -0.00642006   -0.02486110    0.01580464
     atom   34 type  1   force =     0.00642006    0.02486110   -0.01580464
     atom   35 type  1   force =     0.02474038    0.00687061    0.01580464
     atom   36 type  1   force =    -0.02474038   -0.00687061   -0.01580464

     Total force =     0.179934     Total SCF correction =     0.000173


     Computing stress (Cartesian axis) and pressure

          total   stress  (Ry/bohr**3)                   (kbar)     P=      -41.72
  -0.00028587   0.00000000   0.00000000          -42.05        0.00        0.00
  -0.00000000  -0.00028587  -0.00000000           -0.00      -42.05       -0.00
   0.00000000  -0.00000000  -0.00027898            0.00       -0.00      -41.04


     Writing all to output data dir ./iceII/iceII.save/ :
     XML data file, charge density, pseudopotentials, collected wavefunctions

     init_run     :      2.91s CPU      3.02s WALL (       1 calls)
     electrons    :     16.21s CPU     17.39s WALL (       1 calls)
     forces       :      0.14s CPU      0.15s WALL (       1 calls)
     stress       :      1.14s CPU      1.18s WALL (       1 calls)

     Called by init_run:
     wfcinit      :      0.37s CPU      0.37s WALL (       1 calls)
     potinit      :      1.71s CPU      1.77s WALL (       1 calls)
     hinit0       :      0.67s CPU      0.68s WALL (       1 calls)

     Called by electrons:
     c_bands      :     11.63s CPU     11.77s WALL (      15 calls)
     sum_band     :      1.71s CPU      1.73s WALL (      15 calls)
     v_of_rho     :      4.38s CPU      4.95s WALL (      16 calls)
     newd         :      0.07s CPU      0.07s WALL (      16 calls)
     mix_rho      :      0.06s CPU      0.06s WALL (      15 calls)
     vdW_kernel   :      1.52s CPU      1.53s WALL (       1 calls)

     Called by c_bands:
     init_us_2    :      0.21s CPU      0.21s WALL (     132 calls)
     cegterg      :     11.25s CPU     11.36s WALL (      60 calls)

     Called by *egterg:
     cdiaghg      :      0.82s CPU      0.83s WALL (     216 calls)
     h_psi        :      8.82s CPU      8.90s WALL (     220 calls)
     s_psi        :      0.37s CPU      0.39s WALL (     220 calls)
     g_psi        :      0.02s CPU      0.02s WALL (     156 calls)

     Called by h_psi:
     h_psi:calbec :      0.62s CPU      0.63s WALL (     220 calls)
     vloc_psi     :      7.75s CPU      7.82s WALL (     220 calls)
     add_vuspsi   :      0.38s CPU      0.38s WALL (     220 calls)

     General routines
     calbec       :      0.85s CPU      0.85s WALL (     300 calls)
     fft          :      2.16s CPU      2.47s WALL (    1028 calls)
     ffts         :      0.02s CPU      0.02s WALL (      15 calls)
     fftw         :      8.08s CPU      8.14s WALL (   20910 calls)

     Parallel routines

     PWSCF        :     20.71s CPU     23.96s WALL


   This run was terminated on:  14:59: 1  26Mar2026            

=------------------------------------------------------------------------------=
   JOB DONE.
=------------------------------------------------------------------------------=
