
     Program PWSCF v.7.3.1 starts on  1Apr2026 at 15: 5: 9 

     This program is part of the open-source Quantum ESPRESSO suite
     for quantum simulation of materials; please cite
         "P. Giannozzi et al., J. Phys.:Condens. Matter 21 395502 (2009);
         "P. Giannozzi et al., J. Phys.:Condens. Matter 29 465901 (2017);
         "P. Giannozzi et al., J. Chem. Phys. 152 154105 (2020);
          URL http://www.quantum-espresso.org", 
     in publications or presentations arising from this work. More details at
     http://www.quantum-espresso.org/quote

     Parallel version (MPI), running on   128 processors

     MPI processes distributed on     1 nodes
     242565 MiB available memory on the printing compute node when the environment starts

     Waiting for input...
     Reading input from standard input

     Current dimensions of program PWSCF are:
     Max number of different atomic species (ntypx) = 10
     Max number of k-points (npk) =  40000
     Max angular momentum in pseudopotentials (lmaxx) =  4

     IMPORTANT: XC functional enforced from input :
     Exchange-correlation= VDW-DF2
                           (   1   4  13   0   2   0   0)
     Any further DFT definition will be discarded
     Please, verify this is what you really want


     K-points division:     npool     =       4
     R & G space division:  proc/nbgrp/npool/nimage =      32
     Subspace diagonalization in iterative solution of the eigenvalue problem:
     a serial algorithm will be used


     Parallelization info
     --------------------
     sticks:   dense  smooth     PW     G-vecs:    dense   smooth      PW
     Min         185     185     54                 7873     7873    1248
     Max         186     186     55                 7877     7877    1250
     Sum        5935    5935   1739               251989   251989   39967

     Using Slab Decomposition



     bravais-lattice index     =            5
     lattice parameter (alat)  =      15.0108  a.u.
     unit-cell volume          =    2185.2691 (a.u.)^3
     number of atoms/cell      =           36
     number of atomic types    =            2
     number of electrons       =        96.00
     number of Kohn-Sham states=           48
     kinetic-energy cutoff     =      90.0000  Ry
     charge density cutoff     =     360.0000  Ry
     scf convergence threshold =      1.0E-07
     mixing beta               =       0.7000
     number of iterations used =            8  plain     mixing
     energy convergence thresh.=      1.0E-04
     force convergence thresh. =      1.0E-03
     Exchange-correlation= VDW-DF2
                           (   1   4  13   0   2   0   0)
     nstep                     =           50


     celldm(1)=  15.010812  celldm(2)=   0.000000  celldm(3)=   0.000000
     celldm(4)=  -0.392337  celldm(5)=   0.000000  celldm(6)=   0.000000

     crystal axes: (cart. coord. in units of alat)
               a(1) = (   0.834367  -0.481722   0.267909 )  
               a(2) = (   0.000000   0.963444   0.267909 )  
               a(3) = (  -0.834367  -0.481722   0.267909 )  

     reciprocal axes: (cart. coord. in units 2 pi/alat)
               b(1) = (  0.599257 -0.345981  1.244203 )  
               b(2) = (  0.000000  0.691962  1.244203 )  
               b(3) = ( -0.599257 -0.345981  1.244203 )  


     PseudoPot. # 1 for H  read from file:
     ./H.pbe-van_ak.UPF
     MD5 check sum: 077eb6d537518a38cb46c6de387227b7
     Pseudo is Ultrasoft, Zval =  1.0
     Generated by new atomic code, or converted to UPF format
     Using radial grid of  615 points,  1 beta functions with: 
                l(1) =   0
     Q(r) pseudized with  8 coefficients,  rinner =    0.800

     PseudoPot. # 2 for O  read from file:
     ./O.pbe-van_ak.UPF
     MD5 check sum: 78c19812648e8988a0fe644b0f25305e
     Pseudo is Ultrasoft, Zval =  6.0
     Generated by new atomic code, or converted to UPF format
     Using radial grid of  737 points,  4 beta functions with: 
                l(1) =   0
                l(2) =   0
                l(3) =   1
                l(4) =   1
     Q(r) pseudized with  8 coefficients,  rinner =    0.800   0.800   0.800


     atomic species   valence    mass     pseudopotential
     H                 1.00     1.00800     H ( 1.00)
     O                 6.00    16.00000     O ( 1.00)

      6 Sym. Ops., with inversion, found



   Cartesian axes

     site n.     atom                  positions (alat units)
         1        O      tau(   1) = (  -0.4847673  -0.5197781   0.3083633  )
         2        O      tau(   2) = (   0.4847673   0.5197782   0.4953638  )
         3        O      tau(   3) = (   0.6925247  -0.1599317   0.3083633  )
         4        O      tau(   4) = (  -0.6925248   0.1599317   0.4953638  )
         5        O      tau(   5) = (  -0.2077574   0.6797099   0.3083633  )
         6        O      tau(   6) = (   0.2077574  -0.6797099   0.4953638  )
         7        O      tau(   7) = (   0.1218176   0.3323883   0.4179381  )
         8        O      tau(   8) = (  -0.1218176  -0.3323883   0.3857890  )
         9        O      tau(   9) = (  -0.3487655  -0.0606970   0.4179381  )
        10        O      tau(  10) = (   0.3487655   0.0606970   0.3857890  )
        11        O      tau(  11) = (   0.2269479  -0.2716913   0.4179381  )
        12        O      tau(  12) = (  -0.2269479   0.2716912   0.3857890  )
        13        H      tau(  13) = (  -0.5381668  -0.4032014   0.2796970  )
        14        H      tau(  14) = (   0.5381668   0.4032014   0.5240301  )
        15        H      tau(  15) = (   0.6182661  -0.2644654   0.2796970  )
        16        H      tau(  16) = (  -0.6182661   0.2644654   0.5240301  )
        17        H      tau(  17) = (  -0.0800993   0.6676668   0.2796970  )
        18        H      tau(  18) = (   0.0800993  -0.6676668   0.5240301  )
        19        H      tau(  19) = (  -0.4872704  -0.4817221   0.4326731  )
        20        H      tau(  20) = (   0.4872704   0.4817221   0.3710540  )
        21        H      tau(  21) = (   0.6608188  -0.1811275   0.4326731  )
        22        H      tau(  22) = (  -0.6608188   0.1811275   0.3710540  )
        23        H      tau(  23) = (  -0.1735484   0.6628496   0.4326731  )
        24        H      tau(  24) = (   0.1735484  -0.6628496   0.3710540  )
        25        H      tau(  25) = (   0.2703349  -0.1502973   0.4058822  )
        26        H      tau(  26) = (  -0.2703350   0.1502973   0.3978449  )
        27        H      tau(  27) = (  -0.0050062   0.3092656   0.4058822  )
        28        H      tau(  28) = (   0.0050062  -0.3092656   0.3978449  )
        29        H      tau(  29) = (  -0.2653287  -0.1589683   0.4058822  )
        30        H      tau(  30) = (   0.2653287   0.1589683   0.3978449  )
        31        H      tau(  31) = (   0.3178939  -0.3347969   0.3493534  )
        32        H      tau(  32) = (  -0.3178939   0.3347969   0.4543737  )
        33        H      tau(  33) = (   0.1309957   0.4427026   0.3493534  )
        34        H      tau(  34) = (  -0.1309956  -0.4427026   0.4543737  )
        35        H      tau(  35) = (  -0.4488895  -0.1079057   0.3493534  )
        36        H      tau(  36) = (   0.4488895   0.1079057   0.4543737  )

     number of k points=    14
                       cart. coord. in units 2pi/alat
        k(    1) = (   0.0000000   0.0000000   0.0000000), wk =   0.0312500
        k(    2) = (  -0.1498141  -0.0864952   0.3110508), wk =   0.1875000
        k(    3) = (   0.2996283   0.1729905  -0.6221017), wk =   0.0937500
        k(    4) = (  -0.1498141   0.0864952   0.6221017), wk =   0.1875000
        k(    5) = (   0.2996283   0.3459809  -0.3110508), wk =   0.1875000
        k(    6) = (   0.1498141   0.2594857   0.0000000), wk =   0.1875000
        k(    7) = (   0.2996283  -0.1729905  -1.2442034), wk =   0.0937500
        k(    8) = (   0.0000000   0.0000000   0.9331525), wk =   0.0625000
        k(    9) = (   0.4494424   0.2594857   0.0000000), wk =   0.1875000
        k(   10) = (   0.2996283   0.1729905   0.3110508), wk =   0.1875000
        k(   11) = (   0.4494424  -0.2594857  -0.9331525), wk =   0.1875000
        k(   12) = (   0.2996283  -0.3459809  -0.6221017), wk =   0.1875000
        k(   13) = (   0.0000000   0.0000000  -1.8663050), wk =   0.0312500
        k(   14) = (   0.2996283  -0.3459809   0.3110508), wk =   0.1875000

     Dense  grid:   251989 G-vectors     FFT dimensions: (  96,  96,  96)

     Estimated max dynamical RAM per process >      16.52 MB

     Estimated total dynamical RAM >       1.89 GB

     Initial potential from superposition of free atoms

     starting charge      95.9998, renormalised to      96.0000


     %%%%%%%%%%%%%%%%%%%%%%%%%%%%%%%%%%%%%%%%%%%%%%%%%%%%%%%%%%%%%%%%%%%%%%%%
     %                                                                      %
     % You are using vdW-DF, which was implemented by the Thonhauser group. %
     % Please cite the following two papers that made this development      %
     % possible and the two reviews that describe the various versions:     %
     %                                                                      %
     %   T. Thonhauser et al., PRL 115, 136402 (2015).                      %
     %   T. Thonhauser et al., PRB 76, 125112 (2007).                       %
     %   K. Berland et al., Rep. Prog. Phys. 78, 066501 (2015).             %
     %   D.C. Langreth et al., J. Phys.: Condens. Matter 21, 084203 (2009). %
     %                                                                      %
     % If you are calculating stress with vdW-DF, please also cite:         %
     %                                                                      %
     %   R. Sabatini et al., J. Phys.: Condens. Matter 24, 424209 (2012).   %
     %                                                                      %
     %%%%%%%%%%%%%%%%%%%%%%%%%%%%%%%%%%%%%%%%%%%%%%%%%%%%%%%%%%%%%%%%%%%%%%%%

     %%%%%%%%%%%%%%%%%%%%%%%%%%%%%%%%%%%%%%%%%%%%%%%%%%%%%%%%%%%%%%%%%%%%%%%%
     %                                                                      %
     %  vdW-DF NEWS:                                                        %
     %                                                                      %
     %  * vdW-DF3 is now available. DOI: 10.1021/acs.jctc.0c00471           %
     %    use with input_dft = 'vdW-DF3-opt1' or 'vdW-DF3-opt2'             %
     %                                                                      %
     %  * Unscreened and range-separated hybrid vdW-DF-cx functionals       %
     %    DOI: 10.1063/1.4986522 and 10.1088/1361-648X/ac2ad2               %
     %    use with input_dft = 'vdW-DF-cx0'    and 'vdW-DF-ahcx'            %
     %  * Unscreened and range-separated hybrid vdW-DF2-b86r functionals    %
     %    DOI: 10.1063/1.4986522 and DOI: 10.1103/PhysRevX.12.041003        %
     %    use with input_dft = 'vdW-DF2-br0' and 'vdW-DF2-ahbr'             %
     %                                                                      %
     %%%%%%%%%%%%%%%%%%%%%%%%%%%%%%%%%%%%%%%%%%%%%%%%%%%%%%%%%%%%%%%%%%%%%%%%


     Starting wfcs are   72 randomized atomic wfcs

     total cpu time spent up to now is        3.2 secs

     per-process dynamical memory:    21.1 Mb

     Self-consistent Calculation

     iteration #  1     ecut=    90.00 Ry     beta= 0.70
     Davidson diagonalization with overlap
     ethr =  1.00E-02,  avg # of iterations =  2.0

     total cpu time spent up to now is        4.3 secs

     total energy              =    -415.88446952 Ry
     estimated scf accuracy    <       4.41909673 Ry

     iteration #  2     ecut=    90.00 Ry     beta= 0.70
     Davidson diagonalization with overlap
     ethr =  4.60E-03,  avg # of iterations =  3.0

     total cpu time spent up to now is        5.6 secs

     total energy              =    -417.32127931 Ry
     estimated scf accuracy    <       3.55420237 Ry

     iteration #  3     ecut=    90.00 Ry     beta= 0.70
     Davidson diagonalization with overlap
     ethr =  3.70E-03,  avg # of iterations =  2.0

     total cpu time spent up to now is        6.7 secs

     total energy              =    -417.77303445 Ry
     estimated scf accuracy    <       0.17014677 Ry

     iteration #  4     ecut=    90.00 Ry     beta= 0.70
     Davidson diagonalization with overlap
     ethr =  1.77E-04,  avg # of iterations =  4.0

     total cpu time spent up to now is        8.1 secs

     total energy              =    -417.90238158 Ry
     estimated scf accuracy    <       0.18590000 Ry

     iteration #  5     ecut=    90.00 Ry     beta= 0.70
     Davidson diagonalization with overlap
     ethr =  1.77E-04,  avg # of iterations =  1.2

     total cpu time spent up to now is        9.0 secs

     total energy              =    -417.90411094 Ry
     estimated scf accuracy    <       0.03265260 Ry

     iteration #  6     ecut=    90.00 Ry     beta= 0.70
     Davidson diagonalization with overlap
     ethr =  3.40E-05,  avg # of iterations =  2.0

     negative rho (up, down):  5.606E-08 0.000E+00

     total cpu time spent up to now is       10.0 secs

     total energy              =    -417.90860087 Ry
     estimated scf accuracy    <       0.00336839 Ry

     iteration #  7     ecut=    90.00 Ry     beta= 0.70
     Davidson diagonalization with overlap
     ethr =  3.51E-06,  avg # of iterations =  2.0

     negative rho (up, down):  5.481E-08 0.000E+00

     total cpu time spent up to now is       11.1 secs

     total energy              =    -417.90949329 Ry
     estimated scf accuracy    <       0.00013938 Ry

     iteration #  8     ecut=    90.00 Ry     beta= 0.70
     Davidson diagonalization with overlap
     ethr =  1.45E-07,  avg # of iterations =  2.5

     negative rho (up, down):  8.053E-08 0.000E+00

     total cpu time spent up to now is       12.1 secs

     total energy              =    -417.90950596 Ry
     estimated scf accuracy    <       0.00014088 Ry

     iteration #  9     ecut=    90.00 Ry     beta= 0.70
     Davidson diagonalization with overlap
     ethr =  1.45E-07,  avg # of iterations =  1.0

     negative rho (up, down):  2.073E-07 0.000E+00

     total cpu time spent up to now is       12.9 secs

     total energy              =    -417.90978416 Ry
     estimated scf accuracy    <       0.00011336 Ry

     iteration # 10     ecut=    90.00 Ry     beta= 0.70
     Davidson diagonalization with overlap
     ethr =  1.18E-07,  avg # of iterations =  5.0

     negative rho (up, down):  1.607E-07 0.000E+00

     total cpu time spent up to now is       14.6 secs

     total energy              =    -417.90990609 Ry
     estimated scf accuracy    <       0.00265425 Ry

     iteration # 11     ecut=    90.00 Ry     beta= 0.70
     Davidson diagonalization with overlap
     ethr =  1.18E-07,  avg # of iterations =  2.0

     negative rho (up, down):  1.051E-07 0.000E+00

     total cpu time spent up to now is       15.7 secs

     total energy              =    -417.90948465 Ry
     estimated scf accuracy    <       0.00172309 Ry

     iteration # 12     ecut=    90.00 Ry     beta= 0.70
     Davidson diagonalization with overlap
     ethr =  1.18E-07,  avg # of iterations =  4.0

     negative rho (up, down):  6.561E-08 0.000E+00

     total cpu time spent up to now is       17.0 secs

     total energy              =    -417.90948056 Ry
     estimated scf accuracy    <       0.00039278 Ry

     iteration # 13     ecut=    90.00 Ry     beta= 0.70
     Davidson diagonalization with overlap
     ethr =  1.18E-07,  avg # of iterations =  2.0

     negative rho (up, down):  3.091E-08 0.000E+00

     total cpu time spent up to now is       18.1 secs

     total energy              =    -417.90945511 Ry
     estimated scf accuracy    <       0.00009330 Ry

     iteration # 14     ecut=    90.00 Ry     beta= 0.70
     Davidson diagonalization with overlap
     ethr =  9.72E-08,  avg # of iterations =  3.0

     negative rho (up, down):  3.796E-08 0.000E+00

     total cpu time spent up to now is       19.3 secs

     total energy              =    -417.90948665 Ry
     estimated scf accuracy    <       0.00000468 Ry

     iteration # 15     ecut=    90.00 Ry     beta= 0.70
     Davidson diagonalization with overlap
     ethr =  4.87E-09,  avg # of iterations =  2.3

     negative rho (up, down):  4.383E-08 0.000E+00

     total cpu time spent up to now is       20.3 secs

     total energy              =    -417.90948634 Ry
     estimated scf accuracy    <       0.00000272 Ry

     iteration # 16     ecut=    90.00 Ry     beta= 0.70
     Davidson diagonalization with overlap
     ethr =  2.84E-09,  avg # of iterations =  2.0

     negative rho (up, down):  4.358E-08 0.000E+00

     total cpu time spent up to now is       21.4 secs

     End of self-consistent calculation

          k = 0.0000 0.0000 0.0000 ( 31483 PWs)   bands (ev):

   -21.2272 -20.8180 -20.8180 -20.6182 -20.6182 -20.5924 -20.5924 -20.5808
   -20.5783 -20.3094 -20.3094 -20.0297  -8.6477  -8.4600  -8.3957  -8.3957
    -8.3314  -8.3314  -7.9060  -7.7751  -7.7751  -7.5652  -7.5652  -7.4375
    -7.3818  -6.5494  -6.5494  -5.9934  -5.9934  -5.9030  -5.9030  -5.6375
    -5.4546  -4.8355  -4.8355  -4.1905  -3.4465  -3.4465  -3.3570  -3.2738
    -3.2311  -3.2311  -3.0964  -3.0964  -3.0855  -3.0688  -3.0202  -3.0202

          k =-0.1498-0.0865 0.3111 ( 31495 PWs)   bands (ev):

   -21.1608 -20.8549 -20.8075 -20.7471 -20.7242 -20.6589 -20.5316 -20.4928
   -20.4445 -20.3147 -20.2774 -20.0832  -8.5963  -8.5171  -8.4436  -8.4037
    -8.3118  -8.2519  -7.9052  -7.7434  -7.7288  -7.5980  -7.4807  -7.4438
    -7.2575  -6.6860  -6.5643  -6.3037  -5.9908  -5.8777  -5.7376  -5.5259
    -5.4694  -4.8277  -4.7674  -4.3225  -3.5549  -3.4869  -3.3790  -3.3183
    -3.2670  -3.2373  -3.1953  -3.1327  -3.0751  -3.0352  -3.0066  -2.9625

          k = 0.2996 0.1730-0.6221 ( 31518 PWs)   bands (ev):

   -20.9898 -20.9877 -20.8358 -20.8269 -20.7234 -20.7215 -20.4807 -20.4745
   -20.3191 -20.3190 -20.2197 -20.2053  -8.5706  -8.5185  -8.4373  -8.4161
    -8.3144  -8.2546  -7.8565  -7.7435  -7.7031  -7.6072  -7.4034  -7.4025
    -7.0337  -6.8992  -6.6140  -6.4589  -5.9992  -5.9186  -5.7373  -5.5867
    -5.0787  -4.9553  -4.7078  -4.4896  -3.6527  -3.5064  -3.4000  -3.3733
    -3.3048  -3.2864  -3.2011  -3.1463  -3.1227  -3.0019  -2.9900  -2.9196

          k =-0.1498 0.0865 0.6221 ( 31523 PWs)   bands (ev):

   -21.0266 -20.9046 -20.8965 -20.7904 -20.7694 -20.7105 -20.4870 -20.4146
   -20.3830 -20.2780 -20.2615 -20.1812  -8.5782  -8.4947  -8.4799  -8.3763
    -8.3304  -8.2435  -7.8587  -7.7778  -7.7288  -7.5120  -7.4486  -7.3979
    -7.0387  -6.8356  -6.7451  -6.3014  -6.1351  -5.9613  -5.6632  -5.4689
    -5.2687  -4.7938  -4.7720  -4.5003  -3.6321  -3.5457  -3.3896  -3.3480
    -3.3149  -3.2658  -3.2257  -3.1444  -3.1158  -3.0106  -2.9932  -2.9142

          k = 0.2996 0.3460-0.3111 ( 31515 PWs)   bands (ev):

   -21.0737 -20.9336 -20.8410 -20.8144 -20.7451 -20.6818 -20.4907 -20.3989
   -20.3899 -20.3129 -20.2566 -20.1585  -8.5841  -8.5637  -8.4188  -8.3943
    -8.3405  -8.2499  -7.8906  -7.8367  -7.7163  -7.4814  -7.4534  -7.3884
    -7.1537  -6.8713  -6.6450  -6.3130  -6.2843  -5.8113  -5.6358  -5.3799
    -5.1633  -4.9454  -4.7482  -4.4756  -3.5503  -3.4842  -3.4048  -3.3386
    -3.2850  -3.2379  -3.1803  -3.1724  -3.0935  -3.0530  -2.9963  -2.9022

          k = 0.1498 0.2595 0.0000 ( 31514 PWs)   bands (ev):

   -21.1791 -20.8836 -20.8342 -20.7186 -20.6937 -20.6205 -20.5493 -20.4846
   -20.4491 -20.3189 -20.2876 -20.0723  -8.6319  -8.5292  -8.4350  -8.3984
    -8.2865  -8.2808  -7.9564  -7.8312  -7.6537  -7.5694  -7.5096  -7.4003
    -7.3809  -6.6707  -6.5460  -6.2942  -6.1868  -5.7586  -5.6307  -5.5077
    -5.3319  -4.9022  -4.8119  -4.2835  -3.4472  -3.4297  -3.3889  -3.3050
    -3.2663  -3.2405  -3.1338  -3.1176  -3.0894  -3.0772  -2.9814  -2.9683

          k = 0.2996-0.1730-1.2442 ( 31484 PWs)   bands (ev):

   -21.0636 -21.0303 -20.8465 -20.7643 -20.6927 -20.6430 -20.4989 -20.4700
   -20.3666 -20.3500 -20.1891 -20.1759  -8.6098  -8.5750  -8.4476  -8.4176
    -8.2595  -8.2572  -7.9553  -7.8905  -7.6352  -7.5933  -7.4247  -7.3856
    -7.0915  -7.0489  -6.6091  -6.3997  -6.1006  -5.8774  -5.5168  -5.2654
    -5.1691  -5.0881  -4.6676  -4.4893  -3.4614  -3.4157  -3.4030  -3.3407
    -3.2659  -3.2159  -3.1941  -3.1271  -3.1172  -3.0735  -2.9496  -2.9353

          k = 0.0000 0.0000 0.9332 ( 31497 PWs)   bands (ev):

   -20.9773 -20.9773 -20.9053 -20.8683 -20.7095 -20.7095 -20.4231 -20.4231
   -20.3112 -20.2834 -20.2547 -20.2547  -8.5635  -8.5635  -8.4363  -8.3378
    -8.3378  -8.3252  -7.8997  -7.8046  -7.8046  -7.3967  -7.3967  -7.3612
    -6.9678  -6.9604  -6.9604  -6.3350  -6.0575  -6.0575  -5.4382  -5.2502
    -5.2502  -4.8111  -4.8111  -4.6484  -3.4965  -3.4965  -3.3856  -3.3266
    -3.2582  -3.2582  -3.2106  -3.1467  -3.1467  -3.0379  -3.0379  -2.8803

          k = 0.4494 0.2595 0.0000 ( 31508 PWs)   bands (ev):

   -21.0902 -20.9411 -20.9359 -20.7660 -20.6432 -20.6361 -20.5136 -20.5073
   -20.3673 -20.2854 -20.2560 -20.1490  -8.6058  -8.5634  -8.5011  -8.3566
    -8.3008  -8.2391  -7.9715  -7.8442  -7.7223  -7.4956  -7.4497  -7.4036
    -7.1879  -6.8355  -6.7606  -6.3517  -6.1198  -5.8708  -5.4375  -5.4015
    -5.2092  -4.9098  -4.7745  -4.4629  -3.4449  -3.4383  -3.3921  -3.3444
    -3.2820  -3.2276  -3.1641  -3.1422  -3.0951  -3.0527  -2.9964  -2.9187

          k = 0.2996 0.1730 0.3111 ( 31488 PWs)   bands (ev):

   -21.1160 -20.8947 -20.8167 -20.8025 -20.7245 -20.6728 -20.5036 -20.4749
   -20.4139 -20.3034 -20.2570 -20.1171  -8.6050  -8.5478  -8.4691  -8.3502
    -8.3465  -8.2059  -7.9238  -7.8056  -7.6360  -7.5691  -7.5247  -7.4345
    -7.1802  -6.6894  -6.5290  -6.4425  -6.2191  -5.8989  -5.6203  -5.4297
    -5.2712  -4.8958  -4.7561  -4.3661  -3.5681  -3.4941  -3.4255  -3.3708
    -3.2816  -3.2442  -3.1731  -3.1409  -3.0641  -3.0256  -2.9702  -2.9534

          k = 0.4494-0.2595-0.9332 ( 31477 PWs)   bands (ev):

   -20.9993 -20.9982 -20.8745 -20.8291 -20.7140 -20.6451 -20.5386 -20.4625
   -20.3364 -20.2870 -20.2422 -20.1698  -8.6306  -8.5376  -8.4981  -8.3574
    -8.3136  -8.1867  -7.9657  -7.7647  -7.6538  -7.6012  -7.4670  -7.4407
    -6.9374  -6.8963  -6.5952  -6.4548  -6.2761  -5.9831  -5.5796  -5.3119
    -5.0124  -4.9907  -4.7989  -4.4314  -3.5700  -3.5122  -3.4773  -3.3695
    -3.3373  -3.2611  -3.1257  -3.1051  -3.0759  -3.0379  -2.9718  -2.9204

          k = 0.2996-0.3460-0.6221 ( 31498 PWs)   bands (ev):

   -20.9581 -20.9575 -20.8643 -20.8577 -20.7408 -20.7400 -20.4657 -20.4608
   -20.3247 -20.3186 -20.2140 -20.2006  -8.6436  -8.4579  -8.4290  -8.4098
    -8.3764  -8.1907  -7.8839  -7.7762  -7.6335  -7.5901  -7.4475  -7.4424
    -6.9051  -6.7820  -6.6297  -6.5088  -6.2021  -6.1669  -5.5035  -5.4341
    -5.0222  -4.9803  -4.8161  -4.4170  -3.6832  -3.5257  -3.4758  -3.4087
    -3.3578  -3.2324  -3.1681  -3.1297  -3.1102  -2.9941  -2.9778  -2.9035

          k = 0.0000 0.0000-1.8663 ( 31500 PWs)   bands (ev):

   -20.9299 -20.9213 -20.8336 -20.8336 -20.8268 -20.8268 -20.3974 -20.3974
   -20.3722 -20.3722 -20.2004 -20.1904  -8.6882  -8.4224  -8.4224  -8.4032
    -8.4032  -8.1609  -7.9286  -7.7743  -7.5461  -7.5461  -7.5143  -7.5143
    -6.7432  -6.5658  -6.5211  -6.5211  -6.4992  -6.4992  -5.2974  -5.2974
    -5.0540  -5.0540  -4.8427  -4.3683  -3.7136  -3.5272  -3.5272  -3.4410
    -3.4410  -3.1831  -3.1629  -3.0719  -3.0719  -3.0065  -3.0065  -2.8797

          k = 0.2996-0.3460 0.3111 ( 31515 PWs)   bands (ev):

   -21.0736 -20.9337 -20.8430 -20.8136 -20.7427 -20.6825 -20.4912 -20.4100
   -20.3755 -20.3200 -20.2513 -20.1600  -8.6006  -8.5301  -8.4506  -8.3952
    -8.3127  -8.2568  -7.9341  -7.8063  -7.6947  -7.5176  -7.4189  -7.4079
    -7.1476  -6.8059  -6.7345  -6.3679  -6.1378  -5.8716  -5.7114  -5.2986
    -5.1443  -4.9287  -4.8153  -4.4555  -3.5578  -3.4580  -3.4203  -3.3325
    -3.2922  -3.2443  -3.1784  -3.1734  -3.1107  -3.0242  -2.9971  -2.9101

     highest occupied level (ev):    -2.8797

!    total energy              =    -417.90948685 Ry
     estimated scf accuracy    <          5.6E-09 Ry

     The total energy is the sum of the following terms:
     one-electron contribution =    -298.88656916 Ry
     hartree contribution      =     183.44108795 Ry
     xc contribution           =    -105.06479686 Ry
     ewald contribution        =    -197.39920877 Ry

     convergence has been achieved in  16 iterations

     Forces acting on atoms (cartesian axes, Ry/au):

     atom    1 type  2   force =    -0.04437208    0.09926810    0.05451383
     atom    2 type  2   force =     0.04437208   -0.09926810   -0.05451383
     atom    3 type  2   force =    -0.06378265   -0.08806140    0.05451383
     atom    4 type  2   force =     0.06378265    0.08806140   -0.05451383
     atom    5 type  2   force =     0.10815474   -0.01120670    0.05451383
     atom    6 type  2   force =    -0.10815474    0.01120670   -0.05451383
     atom    7 type  2   force =    -0.05868154    0.04472807   -0.04074231
     atom    8 type  2   force =     0.05868154   -0.04472807    0.04074231
     atom    9 type  2   force =    -0.00939488   -0.07318374   -0.04074231
     atom   10 type  2   force =     0.00939488    0.07318374    0.04074231
     atom   11 type  2   force =     0.06807641    0.02845567   -0.04074231
     atom   12 type  2   force =    -0.06807641   -0.02845567    0.04074231
     atom   13 type  1   force =     0.01602095   -0.05288660   -0.04271243
     atom   14 type  1   force =    -0.01602095    0.05288660    0.04271243
     atom   15 type  1   force =     0.03779067    0.04031785   -0.04271243
     atom   16 type  1   force =    -0.03779067   -0.04031785    0.04271243
     atom   17 type  1   force =    -0.05381162    0.01256875   -0.04271243
     atom   18 type  1   force =     0.05381162   -0.01256875    0.04271243
     atom   19 type  1   force =     0.02914813   -0.05282616   -0.02185810
     atom   20 type  1   force =    -0.02914813    0.05282616    0.02185810
     atom   21 type  1   force =     0.03117473    0.05165610   -0.02185810
     atom   22 type  1   force =    -0.03117473   -0.05165610    0.02185810
     atom   23 type  1   force =    -0.06032286    0.00117006   -0.02185810
     atom   24 type  1   force =     0.06032286   -0.00117006    0.02185810
     atom   25 type  1   force =    -0.02383256   -0.03482713    0.01479580
     atom   26 type  1   force =     0.02383256    0.03482713   -0.01479580
     atom   27 type  1   force =     0.04207745   -0.00322603    0.01479580
     atom   28 type  1   force =    -0.04207745    0.00322603   -0.01479580
     atom   29 type  1   force =    -0.01824490    0.03805316    0.01479580
     atom   30 type  1   force =     0.01824490   -0.03805316   -0.01479580
     atom   31 type  1   force =    -0.04928249    0.00738839    0.03182747
     atom   32 type  1   force =     0.04928249   -0.00738839   -0.03182747
     atom   33 type  1   force =     0.01824271   -0.04637408    0.03182747
     atom   34 type  1   force =    -0.01824271    0.04637408   -0.03182747
     atom   35 type  1   force =     0.03103978    0.03898569    0.03182747
     atom   36 type  1   force =    -0.03103978   -0.03898569   -0.03182747

     Total force =     0.467275     Total SCF correction =     0.000049


     Computing stress (Cartesian axis) and pressure

          total   stress  (Ry/bohr**3)                   (kbar)     P=      -57.95
  -0.00047122  -0.00000000   0.00000000          -69.32       -0.00        0.00
   0.00000000  -0.00047122  -0.00000000            0.00      -69.32       -0.00
  -0.00000000  -0.00000000  -0.00023936           -0.00       -0.00      -35.21


     BFGS Geometry Optimization
     Energy error            =      0.0E+00 Ry
     Gradient error          =      1.1E-01 Ry/Bohr

     number of scf cycles    =   1
     number of bfgs steps    =   0

     energy             new  =    -417.9094868504 Ry

     new trust radius        =       0.1216338569 bohr
     new conv_thr            =       0.0000001000 Ry


ATOMIC_POSITIONS (crystal)
O                0.2734590817        0.0330945137        0.8580018664
O                0.7265409183        0.9669054973        0.1419981036
O                0.8580018664        0.2734590817        0.0330945137
O                0.1419981036        0.7265409183        0.9669054973
O                0.0330945137        0.8580018664        0.2734590817
O                0.9669054973        0.1419981036        0.7265409183
O                0.4712493788        0.7486848411        0.3299347099
O                0.5287506212        0.2513151589        0.6700652601
O                0.3299347099        0.4712493788        0.7486848411
O                0.6700652601        0.5287506212        0.2513151589
O                0.7486848411        0.3299347099        0.4712493788
O                0.2513151589        0.6700652601        0.5287506212
H                0.1633182505        0.0630217429        0.8070390795
H                0.8366817355        0.9369782491        0.1929609205
H                0.8070390795        0.1633182505        0.0630217429
H                0.1929609205        0.8366817355        0.9369782491
H                0.0630217429        0.8070390795        0.1633182505
H                0.9369782491        0.1929609205        0.8366817355
H                0.4135694529        0.2007530854        0.9952421606
H                0.5864305471        0.7992469296        0.0047578184
H                0.9952421606        0.4135694529        0.2007530854
H                0.0047578184        0.5864305471        0.7992469296
H                0.2007530854        0.9952421606        0.4135694529
H                0.7992469296        0.0047578184        0.5864305471
H                0.7200776510        0.4006209285        0.3979805505
H                0.2799223490        0.5993790415        0.6020194795
H                0.3979805505        0.7200776510        0.4006209285
H                0.6020194795        0.2799223490        0.5993790415
H                0.4006209285        0.3979805505        0.7200776510
H                0.5993790415        0.6020194795        0.2799223490
H                0.7415003533        0.2059786694        0.3644352481
H                0.2584996467        0.7940213156        0.6355647519
H                0.3644352481        0.7415003533        0.2059786694
H                0.6355647519        0.2584996467        0.7940213156
H                0.2059786694        0.3644352481        0.7415003533
H                0.7940213156        0.6355647519        0.2584996467



     Writing config-only to output data dir ./iceII/iceII.save/ :
     XML data file
     NEW-OLD atomic charge density approx. for the potential

     negative rho (up, down):  7.758E-08 0.000E+00

     total cpu time spent up to now is       23.1 secs

     per-process dynamical memory:    20.4 Mb

     Self-consistent Calculation

     iteration #  1     ecut=    90.00 Ry     beta= 0.70
     Davidson diagonalization with overlap
     ethr =  1.00E-06,  avg # of iterations = 10.0

     negative rho (up, down):  1.144E-07 0.000E+00

     total cpu time spent up to now is       25.8 secs

     total energy              =    -417.99039789 Ry
     estimated scf accuracy    <       0.07225588 Ry

     iteration #  2     ecut=    90.00 Ry     beta= 0.70
     Davidson diagonalization with overlap
     ethr =  7.53E-05,  avg # of iterations =  3.0

     negative rho (up, down):  1.282E-07 0.000E+00

     total cpu time spent up to now is       27.0 secs

     total energy              =    -418.01075705 Ry
     estimated scf accuracy    <       0.03114350 Ry

     iteration #  3     ecut=    90.00 Ry     beta= 0.70
     Davidson diagonalization with overlap
     ethr =  3.24E-05,  avg # of iterations =  2.0

     negative rho (up, down):  1.555E-07 0.000E+00

     total cpu time spent up to now is       28.0 secs

     total energy              =    -418.01572510 Ry
     estimated scf accuracy    <       0.00085489 Ry

     iteration #  4     ecut=    90.00 Ry     beta= 0.70
     Davidson diagonalization with overlap
     ethr =  8.91E-07,  avg # of iterations =  5.0

     negative rho (up, down):  1.717E-07 0.000E+00

     total cpu time spent up to now is       29.4 secs

     total energy              =    -418.01633141 Ry
     estimated scf accuracy    <       0.00122596 Ry

     iteration #  5     ecut=    90.00 Ry     beta= 0.70
     Davidson diagonalization with overlap
     ethr =  8.91E-07,  avg # of iterations =  2.4

     negative rho (up, down):  1.842E-07 0.000E+00

     total cpu time spent up to now is       30.5 secs

     total energy              =    -418.01643999 Ry
     estimated scf accuracy    <       0.00010544 Ry

     iteration #  6     ecut=    90.00 Ry     beta= 0.70
     Davidson diagonalization with overlap
     ethr =  1.10E-07,  avg # of iterations =  4.1

     negative rho (up, down):  1.829E-07 0.000E+00

     total cpu time spent up to now is       31.9 secs

     total energy              =    -418.01649323 Ry
     estimated scf accuracy    <       0.00013941 Ry

     iteration #  7     ecut=    90.00 Ry     beta= 0.70
     Davidson diagonalization with overlap
     ethr =  1.10E-07,  avg # of iterations =  2.0

     negative rho (up, down):  1.812E-07 0.000E+00

     total cpu time spent up to now is       32.9 secs

     total energy              =    -418.01650981 Ry
     estimated scf accuracy    <       0.00000722 Ry

     iteration #  8     ecut=    90.00 Ry     beta= 0.70
     Davidson diagonalization with overlap
     ethr =  7.52E-09,  avg # of iterations =  3.1

     negative rho (up, down):  1.811E-07 0.000E+00

     total cpu time spent up to now is       34.2 secs

     End of self-consistent calculation

          k = 0.0000 0.0000 0.0000 ( 31483 PWs)   bands (ev):

   -21.7127 -21.3531 -21.3531 -21.1453 -21.1453 -21.1447 -21.1447 -21.1246
   -21.1229 -20.8766 -20.8766 -20.6412  -9.2426  -9.0662  -9.0062  -9.0062
    -8.9964  -8.9964  -8.5329  -8.5329  -8.4412  -8.4274  -8.4274  -8.2956
    -7.4295  -6.4450  -6.4450  -5.8636  -5.8636  -5.8288  -5.8288  -5.5634
    -5.4929  -4.8630  -4.8630  -4.2548  -3.5795  -3.5795  -3.5520  -3.3742
    -3.3742  -3.3612  -3.2225  -3.2026  -3.2026  -3.1843  -3.1165  -3.1165

          k =-0.1498-0.0865 0.3111 ( 31495 PWs)   bands (ev):

   -21.6524 -21.3804 -21.3479 -21.2649 -21.2534 -21.2030 -21.0777 -21.0394
   -21.0036 -20.8849 -20.8524 -20.6859  -9.2045  -9.0922  -9.0461  -9.0352
    -8.9752  -8.9227  -8.5500  -8.5207  -8.4473  -8.3908  -8.3710  -8.3392
    -7.2584  -6.5820  -6.4791  -6.1815  -5.9566  -5.7460  -5.6695  -5.4638
    -5.4039  -4.8606  -4.7916  -4.3698  -3.6759  -3.6131  -3.5494  -3.4162
    -3.4085  -3.3745  -3.3204  -3.2408  -3.1805  -3.1408  -3.1134  -3.0702

          k = 0.2996 0.1730-0.6221 ( 31518 PWs)   bands (ev):

   -21.5129 -21.4787 -21.3782 -21.3251 -21.2732 -21.2502 -21.0399 -21.0082
   -20.9088 -20.8799 -20.8193 -20.7763  -9.1411  -9.1275  -9.0694  -9.0340
    -8.9688  -8.9074  -8.5380  -8.5028  -8.4396  -8.4264  -8.3330  -8.3217
    -6.9439  -6.8099  -6.5319  -6.3860  -5.9577  -5.8640  -5.5942  -5.4371
    -5.0630  -4.9475  -4.7343  -4.5325  -3.7598  -3.6302  -3.5410  -3.4827
    -3.4398  -3.4266  -3.3115  -3.2565  -3.2496  -3.1043  -3.0936  -3.0293

          k =-0.1498 0.0865 0.6221 ( 31523 PWs)   bands (ev):

   -21.5326 -21.4214 -21.4131 -21.3183 -21.2931 -21.2493 -21.0340 -20.9771
   -20.9433 -20.8588 -20.8446 -20.7653  -9.1467  -9.1106  -9.0954  -9.0080
    -8.9806  -8.9057  -8.5312  -8.5114  -8.4700  -8.3763  -8.3479  -8.3258
    -6.9737  -6.7049  -6.6664  -6.2466  -6.0597  -5.9073  -5.5306  -5.3592
    -5.2034  -4.8213  -4.7949  -4.5378  -3.7407  -3.6650  -3.5269  -3.4800
    -3.4535  -3.3775  -3.3504  -3.2622  -3.2302  -3.1130  -3.0974  -3.0238

          k = 0.2996 0.3460-0.3111 ( 31515 PWs)   bands (ev):

   -21.5744 -21.4570 -21.3658 -21.3317 -21.2635 -21.2208 -21.0396 -20.9836
   -20.9471 -20.8800 -20.8367 -20.7454  -9.1702  -9.1400  -9.0526  -9.0186
    -8.9769  -8.8994  -8.5995  -8.5737  -8.4896  -8.3580  -8.3298  -8.3070
    -7.0121  -6.7313  -6.5064  -6.2784  -6.2298  -5.7811  -5.4693  -5.3554
    -5.1575  -4.9365  -4.7670  -4.5034  -3.6755  -3.6154  -3.5505  -3.4873
    -3.3997  -3.3509  -3.3092  -3.2871  -3.2095  -3.1548  -3.1002  -3.0080

          k = 0.1498 0.2595 0.0000 ( 31514 PWs)   bands (ev):

   -21.6695 -21.4120 -21.3676 -21.2424 -21.2155 -21.1499 -21.1077 -21.0448
   -21.0166 -20.8850 -20.8538 -20.6759  -9.2222  -9.1034  -9.0452  -9.0342
    -8.9478  -8.9350  -8.6208  -8.5732  -8.4454  -8.4133  -8.3650  -8.2952
    -7.2719  -6.5349  -6.4320  -6.2156  -6.1036  -5.7130  -5.5649  -5.4218
    -5.3491  -4.9107  -4.8365  -4.3310  -3.5838  -3.5679  -3.5626  -3.4441
    -3.3818  -3.3583  -3.2470  -3.2274  -3.2225  -3.1798  -3.0825  -3.0702

          k = 0.2996-0.1730-1.2442 ( 31484 PWs)   bands (ev):

   -21.5635 -21.5418 -21.3800 -21.2797 -21.2235 -21.1616 -21.0753 -21.0253
   -20.9547 -20.9019 -20.7789 -20.7539  -9.1829  -9.1536  -9.0554  -9.0425
    -8.9214  -8.9034  -8.6751  -8.6098  -8.4579  -8.4067  -8.3185  -8.3008
    -6.9052  -6.8798  -6.4544  -6.3843  -6.0454  -5.8357  -5.4584  -5.2825
    -5.1359  -5.0663  -4.6867  -4.5067  -3.6015  -3.5623  -3.5535  -3.4916
    -3.3905  -3.3254  -3.3005  -3.2568  -3.2216  -3.1780  -3.0529  -3.0419

          k = 0.0000 0.0000 0.9332 ( 31497 PWs)   bands (ev):

   -21.4869 -21.4869 -21.4508 -21.3551 -21.2400 -21.2400 -20.9864 -20.9864
   -20.9198 -20.8343 -20.8343 -20.8246  -9.1456  -9.1456  -9.0901  -8.9675
    -8.9675  -8.9480  -8.6234  -8.5466  -8.5466  -8.3157  -8.3157  -8.2926
    -6.7879  -6.7879  -6.7696  -6.3120  -6.0316  -6.0316  -5.2794  -5.2259
    -5.2259  -4.8169  -4.8169  -4.6740  -3.6293  -3.6293  -3.5386  -3.4848
    -3.3744  -3.3744  -3.3350  -3.2602  -3.2602  -3.1335  -3.1335  -2.9846

          k = 0.4494 0.2595 0.0000 ( 31508 PWs)   bands (ev):

   -21.5899 -21.4605 -21.4565 -21.2722 -21.1942 -21.1622 -21.0755 -21.0535
   -20.9575 -20.8561 -20.8251 -20.7373  -9.1870  -9.1340  -9.0984  -8.9982
    -8.9541  -8.8878  -8.6863  -8.5755  -8.5080  -8.3580  -8.3355  -8.3044
    -7.0089  -6.6690  -6.6039  -6.3440  -6.0534  -5.8126  -5.4232  -5.3857
    -5.1701  -4.8980  -4.7883  -4.4854  -3.5889  -3.5758  -3.5475  -3.4974
    -3.4004  -3.3362  -3.2891  -3.2556  -3.2062  -3.1571  -3.0974  -3.0244

          k = 0.2996 0.1730 0.3111 ( 31488 PWs)   bands (ev):

   -21.6125 -21.4208 -21.3497 -21.3172 -21.2477 -21.2112 -21.0533 -21.0436
   -20.9574 -20.8894 -20.8303 -20.7123  -9.1889  -9.1159  -9.0677  -9.0165
    -8.9827  -8.8789  -8.6167  -8.5071  -8.4452  -8.4245  -8.3421  -8.3388
    -7.1186  -6.5955  -6.4700  -6.3190  -6.1236  -5.7821  -5.5756  -5.3971
    -5.2341  -4.9047  -4.7763  -4.4033  -3.6916  -3.6200  -3.5716  -3.4778
    -3.4179  -3.3646  -3.3030  -3.2524  -3.1741  -3.1444  -3.0749  -3.0620

          k = 0.4494-0.2595-0.9332 ( 31477 PWs)   bands (ev):

   -21.5139 -21.5060 -21.4005 -21.3333 -21.2443 -21.1928 -21.0790 -21.0272
   -20.8942 -20.8818 -20.8228 -20.7496  -9.1627  -9.1386  -9.0928  -9.0110
    -8.9696  -8.8483  -8.6587  -8.5254  -8.4483  -8.4298  -8.3395  -8.3277
    -6.8558  -6.7416  -6.4836  -6.4442  -6.1714  -5.8353  -5.5697  -5.3199
    -4.9959  -4.9671  -4.8041  -4.4556  -3.6971  -3.6366  -3.6007  -3.4869
    -3.4452  -3.4027  -3.2534  -3.2233  -3.1934  -3.1483  -3.0805  -3.0302

          k = 0.2996-0.3460-0.6221 ( 31498 PWs)   bands (ev):

   -21.4916 -21.4467 -21.3943 -21.3637 -21.2785 -21.2681 -21.0277 -21.0093
   -20.8965 -20.8819 -20.8257 -20.7666  -9.1672  -9.0910  -9.0667  -9.0322
    -9.0107  -8.8546  -8.5593  -8.5245  -8.4240  -8.4158  -8.3511  -8.3457
    -6.8356  -6.7127  -6.5331  -6.4720  -6.0703  -6.0298  -5.4424  -5.3716
    -5.0093  -4.9661  -4.8218  -4.4602  -3.7855  -3.6457  -3.6022  -3.5142
    -3.4798  -3.3416  -3.3098  -3.2534  -3.2320  -3.1048  -3.0908  -3.0117

          k = 0.0000 0.0000-1.8663 ( 31500 PWs)   bands (ev):

   -21.4734 -21.3956 -21.3766 -21.3766 -21.3309 -21.3309 -20.9848 -20.9848
   -20.9114 -20.9114 -20.8174 -20.7563  -9.1801  -9.0649  -9.0649  -9.0325
    -9.0325  -8.8200  -8.5796  -8.5421  -8.3964  -8.3964  -8.3822  -8.3822
    -6.7436  -6.6383  -6.3829  -6.3829  -6.3198  -6.3198  -5.2740  -5.2740
    -5.0382  -5.0382  -4.8246  -4.4107  -3.8108  -3.6435  -3.6435  -3.5412
    -3.5412  -3.3264  -3.2880  -3.1934  -3.1934  -3.1251  -3.1251  -2.9893

          k = 0.2996-0.3460 0.3111 ( 31515 PWs)   bands (ev):

   -21.5751 -21.4501 -21.3828 -21.3237 -21.2585 -21.2203 -21.0451 -20.9898
   -20.9155 -20.9117 -20.8252 -20.7477  -9.1783  -9.1190  -9.0634  -9.0373
    -8.9488  -8.9102  -8.6172  -8.5585  -8.4849  -8.3573  -8.3320  -8.3084
    -7.0191  -6.6583  -6.6094  -6.3115  -6.0990  -5.8349  -5.5763  -5.2463
    -5.1207  -4.9499  -4.8152  -4.4877  -3.6799  -3.6029  -3.5601  -3.4764
    -3.3957  -3.3655  -3.3007  -3.2992  -3.2232  -3.1257  -3.1036  -3.0150

     highest occupied level (ev):    -2.9846

!    total energy              =    -418.01651302 Ry
     estimated scf accuracy    <       0.00000009 Ry

     The total energy is the sum of the following terms:
     one-electron contribution =    -308.42685578 Ry
     hartree contribution      =     187.73300933 Ry
     xc contribution           =    -106.11255275 Ry
     ewald contribution        =    -191.21011383 Ry

     convergence has been achieved in   8 iterations

     Forces acting on atoms (cartesian axes, Ry/au):

     atom    1 type  2   force =     0.00061870   -0.01053218   -0.00465003
     atom    2 type  2   force =    -0.00061870    0.01053218    0.00465003
     atom    3 type  2   force =     0.00881179    0.00580190   -0.00465003
     atom    4 type  2   force =    -0.00881179   -0.00580190    0.00465003
     atom    5 type  2   force =    -0.00943049    0.00473028   -0.00465003
     atom    6 type  2   force =     0.00943049   -0.00473028    0.00465003
     atom    7 type  2   force =     0.00813357   -0.01282604    0.00606038
     atom    8 type  2   force =    -0.00813357    0.01282604   -0.00606038
     atom    9 type  2   force =     0.00704089    0.01345690    0.00606038
     atom   10 type  2   force =    -0.00704089   -0.01345690   -0.00606038
     atom   11 type  2   force =    -0.01517446   -0.00063086    0.00606038
     atom   12 type  2   force =     0.01517446    0.00063086   -0.00606038
     atom   13 type  1   force =    -0.01766551    0.02371530   -0.04421604
     atom   14 type  1   force =     0.01766551   -0.02371530    0.04421604
     atom   15 type  1   force =    -0.01170529   -0.02715643   -0.04421604
     atom   16 type  1   force =     0.01170529    0.02715643    0.04421604
     atom   17 type  1   force =     0.02937080    0.00344113   -0.04421604
     atom   18 type  1   force =    -0.02937080   -0.00344113    0.04421604
     atom   19 type  1   force =     0.02064833   -0.01728048    0.04233459
     atom   20 type  1   force =    -0.02064833    0.01728048   -0.04233459
     atom   21 type  1   force =     0.00464117    0.02652222    0.04233459
     atom   22 type  1   force =    -0.00464117   -0.02652222   -0.04233459
     atom   23 type  1   force =    -0.02528950   -0.00924174    0.04233459
     atom   24 type  1   force =     0.02528950    0.00924174   -0.04233459
     atom   25 type  1   force =     0.00596601    0.01994799    0.00354127
     atom   26 type  1   force =    -0.00596601   -0.01994799   -0.00354127
     atom   27 type  1   force =    -0.02025847   -0.00480728    0.00354127
     atom   28 type  1   force =     0.02025847    0.00480728   -0.00354127
     atom   29 type  1   force =     0.01429246   -0.01514071    0.00354127
     atom   30 type  1   force =    -0.01429246    0.01514071   -0.00354127
     atom   31 type  1   force =     0.00750588   -0.01833130   -0.00853384
     atom   32 type  1   force =    -0.00750588    0.01833130    0.00853384
     atom   33 type  1   force =     0.01212243    0.01566594   -0.00853384
     atom   34 type  1   force =    -0.01212243   -0.01566594    0.00853384
     atom   35 type  1   force =    -0.01962831    0.00266536   -0.00853384
     atom   36 type  1   force =     0.01962831   -0.00266536    0.00853384

     Total force =     0.199875     Total SCF correction =     0.000228


     Computing stress (Cartesian axis) and pressure

          total   stress  (Ry/bohr**3)                   (kbar)     P=       24.41
   0.00011325   0.00000000  -0.00000000           16.66        0.00       -0.00
  -0.00000000   0.00011325   0.00000000           -0.00       16.66        0.00
  -0.00000000   0.00000000   0.00027135           -0.00        0.00       39.92

     Energy error            =      1.1E-01 Ry
     Gradient error          =      4.4E-02 Ry/Bohr

     number of scf cycles    =   2
     number of bfgs steps    =   1

     energy             old  =    -417.9094868504 Ry
     energy             new  =    -418.0165130241 Ry

     CASE: energy            _new < energy            _old

     new trust radius        =       0.0508579631 bohr
     new conv_thr            =       0.0000000442 Ry


ATOMIC_POSITIONS (crystal)
O                0.2734184939        0.0336365902        0.8584385927
O                0.7265815061        0.9663634208        0.1415613773
O                0.8584385927        0.2734184939        0.0336365902
O                0.1415613773        0.7265815061        0.9663634208
O                0.0336365902        0.8584385927        0.2734184939
O                0.9663634208        0.1415613773        0.7265815061
O                0.4712842099        0.7484091749        0.3300645216
O                0.5287157901        0.2515908251        0.6699354484
O                0.3300645216        0.4712842099        0.7484091749
O                0.6699354484        0.5287157901        0.2515908251
O                0.7484091749        0.3300645216        0.4712842099
O                0.2515908251        0.6699354484        0.5287157901
H                0.1585559059        0.0597786054        0.8033830145
H                0.8414440801        0.9402213866        0.1966169855
H                0.8033830145        0.1585559059        0.0597786054
H                0.1966169855        0.8414440801        0.9402213866
H                0.0597786054        0.8033830145        0.1585559059
H                0.9402213866        0.1966169855        0.8414440801
H                0.4179976800        0.2026168753        0.9978133919
H                0.5820023200        0.7973831397        0.0021865871
H                0.9978133919        0.4179976800        0.2026168753
H                0.0021865871        0.5820023200        0.7973831397
H                0.2026168753        0.9978133919        0.4179976800
H                0.7973831397        0.0021865871        0.5820023200
H                0.7203026719        0.4016787670        0.3980489543
H                0.2796973281        0.5983212030        0.6019510757
H                0.3980489543        0.7203026719        0.4016787670
H                0.6019510757        0.2796973281        0.5983212030
H                0.4016787670        0.3980489543        0.7203026719
H                0.5983212030        0.6019510757        0.2796973281
H                0.7415877735        0.2049928344        0.3645529487
H                0.2584122265        0.7950071506        0.6354470513
H                0.3645529487        0.7415877735        0.2049928344
H                0.6354470513        0.2584122265        0.7950071506
H                0.2049928344        0.3645529487        0.7415877735
H                0.7950071506        0.6354470513        0.2584122265



     Writing config-only to output data dir ./iceII/iceII.save/ :
     XML data file
     NEW-OLD atomic charge density approx. for the potential

     negative rho (up, down):  1.707E-07 0.000E+00

     total cpu time spent up to now is       35.8 secs

     per-process dynamical memory:    24.4 Mb

     Self-consistent Calculation

     iteration #  1     ecut=    90.00 Ry     beta= 0.70
     Davidson diagonalization with overlap
     ethr =  1.00E-06,  avg # of iterations =  5.5

     negative rho (up, down):  1.648E-07 0.000E+00

     total cpu time spent up to now is       37.4 secs

     total energy              =    -418.04160336 Ry
     estimated scf accuracy    <       0.00179145 Ry

     iteration #  2     ecut=    90.00 Ry     beta= 0.70
     Davidson diagonalization with overlap
     ethr =  1.87E-06,  avg # of iterations =  3.0

     negative rho (up, down):  1.726E-07 0.000E+00

     total cpu time spent up to now is       38.5 secs

     total energy              =    -418.04204060 Ry
     estimated scf accuracy    <       0.00065695 Ry

     iteration #  3     ecut=    90.00 Ry     beta= 0.70
     Davidson diagonalization with overlap
     ethr =  6.84E-07,  avg # of iterations =  2.1

     negative rho (up, down):  1.788E-07 0.000E+00

     total cpu time spent up to now is       39.5 secs

     total energy              =    -418.04215889 Ry
     estimated scf accuracy    <       0.00002072 Ry

     iteration #  4     ecut=    90.00 Ry     beta= 0.70
     Davidson diagonalization with overlap
     ethr =  2.16E-08,  avg # of iterations =  5.0

     negative rho (up, down):  1.773E-07 0.000E+00

     total cpu time spent up to now is       41.0 secs

     total energy              =    -418.04216921 Ry
     estimated scf accuracy    <       0.00003029 Ry

     iteration #  5     ecut=    90.00 Ry     beta= 0.70
     Davidson diagonalization with overlap
     ethr =  2.16E-08,  avg # of iterations =  2.0

     negative rho (up, down):  1.759E-07 0.000E+00

     total cpu time spent up to now is       42.0 secs

     total energy              =    -418.04217040 Ry
     estimated scf accuracy    <       0.00000409 Ry

     iteration #  6     ecut=    90.00 Ry     beta= 0.70
     Davidson diagonalization with overlap
     ethr =  4.26E-09,  avg # of iterations =  3.1

     negative rho (up, down):  1.765E-07 0.000E+00

     total cpu time spent up to now is       43.3 secs

     total energy              =    -418.04217234 Ry
     estimated scf accuracy    <       0.00000177 Ry

     iteration #  7     ecut=    90.00 Ry     beta= 0.70
     Davidson diagonalization with overlap
     ethr =  1.84E-09,  avg # of iterations =  2.0

     negative rho (up, down):  1.767E-07 0.000E+00

     total cpu time spent up to now is       44.3 secs

     total energy              =    -418.04217255 Ry
     estimated scf accuracy    <       0.00000014 Ry

     iteration #  8     ecut=    90.00 Ry     beta= 0.70
     Davidson diagonalization with overlap
     ethr =  1.41E-10,  avg # of iterations =  3.7

     negative rho (up, down):  1.768E-07 0.000E+00

     total cpu time spent up to now is       45.4 secs

     End of self-consistent calculation

          k = 0.0000 0.0000 0.0000 ( 31483 PWs)   bands (ev):

   -21.5805 -21.2027 -21.2027 -21.0137 -21.0137 -20.9972 -20.9972 -20.9843
   -20.9701 -20.7288 -20.7288 -20.4909  -9.2006  -9.0327  -8.9706  -8.9706
    -8.9674  -8.9674  -8.5297  -8.5297  -8.4523  -8.4306  -8.4306  -8.3000
    -7.3593  -6.3268  -6.3268  -5.8265  -5.8265  -5.7144  -5.7144  -5.4410
    -5.4137  -4.7829  -4.7829  -4.1664  -3.5567  -3.5567  -3.5120  -3.3378
    -3.3378  -3.3182  -3.2033  -3.1578  -3.1578  -3.1539  -3.0927  -3.0927

          k =-0.1498-0.0865 0.3111 ( 31495 PWs)   bands (ev):

   -21.5189 -21.2334 -21.1937 -21.1341 -21.1125 -21.0541 -20.9362 -20.8994
   -20.8569 -20.7363 -20.7041 -20.5365  -9.1635  -9.0568  -9.0139  -9.0006
    -8.9438  -8.8910  -8.5505  -8.5215  -8.4504  -8.3946  -8.3710  -8.3422
    -7.1826  -6.4829  -6.3684  -6.1029  -5.9231  -5.6515  -5.5523  -5.3799
    -5.2824  -4.7791  -4.7114  -4.2926  -3.6485  -3.5894  -3.5119  -3.3876
    -3.3733  -3.3327  -3.2957  -3.1986  -3.1545  -3.0988  -3.0888  -3.0421

          k = 0.2996 0.1730-0.6221 ( 31518 PWs)   bands (ev):

   -21.3738 -21.3440 -21.2203 -21.1976 -21.1241 -21.1046 -20.8955 -20.8704
   -20.7653 -20.7278 -20.6622 -20.6356  -9.1018  -9.0886  -9.0353  -9.0028
    -8.9397  -8.8734  -8.5371  -8.5057  -8.4422  -8.4288  -8.3323  -8.3212
    -6.8419  -6.7345  -6.4258  -6.3328  -5.8922  -5.8191  -5.4428  -5.3122
    -4.9427  -4.8711  -4.6601  -4.4811  -3.7294  -3.6078  -3.5143  -3.4401
    -3.3982  -3.3973  -3.2808  -3.2435  -3.2051  -3.0806  -3.0485  -3.0008

          k =-0.1498 0.0865 0.6221 ( 31523 PWs)   bands (ev):

   -21.3963 -21.2801 -21.2697 -21.1746 -21.1528 -21.1014 -20.8937 -20.8297
   -20.8009 -20.7106 -20.6927 -20.6188  -9.1066  -9.0724  -9.0603  -8.9824
    -8.9459  -8.8724  -8.5312  -8.5137  -8.4733  -8.3765  -8.3484  -8.3256
    -6.8775  -6.6189  -6.5831  -6.1722  -5.9986  -5.8443  -5.4043  -5.2171
    -5.0994  -4.7471  -4.7110  -4.4871  -3.7119  -3.6381  -3.5028  -3.4292
    -3.4216  -3.3484  -3.3226  -3.2263  -3.2052  -3.0863  -3.0555  -2.9938

          k = 0.2996 0.3460-0.3111 ( 31515 PWs)   bands (ev):

   -21.4387 -21.3065 -21.2390 -21.1838 -21.1238 -21.0709 -20.9026 -20.8345
   -20.7755 -20.7594 -20.6803 -20.6006  -9.1297  -9.1003  -9.0159  -8.9833
    -8.9490  -8.8690  -8.6052  -8.5779  -8.4936  -8.3588  -8.3309  -8.3063
    -6.9311  -6.6299  -6.4069  -6.2026  -6.1782  -5.6977  -5.3208  -5.2448
    -5.0853  -4.8460  -4.6896  -4.4413  -3.6466  -3.5899  -3.5209  -3.4483
    -3.3630  -3.3151  -3.2777  -3.2563  -3.1895  -3.1285  -3.0557  -2.9765

          k = 0.1498 0.2595 0.0000 ( 31514 PWs)   bands (ev):

   -21.5359 -21.2654 -21.2198 -21.1039 -21.0779 -21.0126 -20.9577 -20.8995
   -20.8630 -20.7391 -20.7087 -20.5271  -9.1801  -9.0667  -9.0098  -8.9971
    -8.9175  -8.9073  -8.6267  -8.5751  -8.4527  -8.4136  -8.3665  -8.2982
    -7.1988  -6.4152  -6.3273  -6.1429  -6.0452  -5.6140  -5.4573  -5.3161
    -5.2675  -4.8303  -4.7624  -4.2460  -3.5578  -3.5441  -3.5297  -3.4075
    -3.3428  -3.3169  -3.2182  -3.2045  -3.1878  -3.1474  -3.0493  -3.0385

          k = 0.2996-0.1730-1.2442 ( 31484 PWs)   bands (ev):

   -21.4273 -21.4015 -21.2336 -21.1430 -21.0797 -21.0290 -20.9154 -20.8823
   -20.7921 -20.7646 -20.6316 -20.6100  -9.1415  -9.1122  -9.0183  -9.0053
    -8.8902  -8.8763  -8.6854  -8.6164  -8.4655  -8.4056  -8.3206  -8.3007
    -6.8118  -6.8031  -6.3529  -6.3113  -5.9688  -5.7273  -5.3325  -5.1961
    -5.0222  -5.0128  -4.6002  -4.4397  -3.5714  -3.5344  -3.5289  -3.4551
    -3.3499  -3.2853  -3.2688  -3.2319  -3.1944  -3.1518  -3.0187  -3.0047

          k = 0.0000 0.0000 0.9332 ( 31497 PWs)   bands (ev):

   -21.3474 -21.3474 -21.3034 -21.2270 -21.0942 -21.0942 -20.8412 -20.8412
   -20.7522 -20.6908 -20.6884 -20.6884  -9.1063  -9.1063  -9.0497  -8.9329
    -8.9329  -8.9277  -8.6298  -8.5507  -8.5507  -8.3158  -8.3158  -8.2906
    -6.7086  -6.7086  -6.6339  -6.2931  -5.9456  -5.9456  -5.1124  -5.1124
    -5.1102  -4.7484  -4.7484  -4.6398  -3.6020  -3.6020  -3.5037  -3.4599
    -3.3337  -3.3337  -3.2974  -3.2383  -3.2383  -3.0977  -3.0977  -2.9528

          k = 0.4494 0.2595 0.0000 ( 31508 PWs)   bands (ev):

   -21.4536 -21.3159 -21.3155 -21.1430 -21.0397 -21.0231 -20.9270 -20.9110
   -20.7954 -20.7133 -20.6813 -20.5914  -9.1451  -9.0942  -9.0580  -8.9637
    -8.9229  -8.8606  -8.6964  -8.5812  -8.5149  -8.3589  -8.3355  -8.3058
    -6.9282  -6.5614  -6.5170  -6.2929  -5.9504  -5.6984  -5.3320  -5.3039
    -5.0440  -4.8239  -4.7153  -4.4125  -3.5570  -3.5480  -3.5249  -3.4605
    -3.3621  -3.2995  -3.2564  -3.2280  -3.1746  -3.1302  -3.0688  -2.9849

          k = 0.2996 0.1730 0.3111 ( 31488 PWs)   bands (ev):

   -21.4775 -21.2725 -21.2029 -21.1853 -21.1049 -21.0665 -20.9095 -20.8908
   -20.8220 -20.7364 -20.6831 -20.5642  -9.1474  -9.0768  -9.0333  -8.9796
    -8.9539  -8.8482  -8.6219  -8.5087  -8.4479  -8.4298  -8.3422  -8.3405
    -7.0407  -6.4947  -6.3966  -6.1931  -6.0808  -5.6901  -5.4515  -5.2940
    -5.1714  -4.8027  -4.6986  -4.3304  -3.6639  -3.5913  -3.5399  -3.4418
    -3.3785  -3.3317  -3.2710  -3.2247  -3.1553  -3.1149  -3.0456  -3.0161

          k = 0.4494-0.2595-0.9332 ( 31477 PWs)   bands (ev):

   -21.3710 -21.3684 -21.2571 -21.2024 -21.0991 -21.0427 -20.9385 -20.8738
   -20.7576 -20.7244 -20.6777 -20.6026  -9.1196  -9.0985  -9.0543  -8.9768
    -8.9390  -8.8174  -8.6672  -8.5315  -8.4537  -8.4320  -8.3409  -8.3275
    -6.7687  -6.6605  -6.4169  -6.3471  -6.0749  -5.7108  -5.4882  -5.2369
    -4.9316  -4.8371  -4.7253  -4.3899  -3.6688  -3.6046  -3.5696  -3.4480
    -3.4078  -3.3702  -3.2279  -3.1944  -3.1758  -3.1244  -3.0486  -2.9800

          k = 0.2996-0.3460-0.6221 ( 31498 PWs)   bands (ev):

   -21.3463 -21.3138 -21.2435 -21.2357 -21.1311 -21.1215 -20.8792 -20.8662
   -20.7528 -20.7412 -20.6696 -20.6199  -9.1241  -9.0529  -9.0302  -9.0008
    -8.9792  -8.8230  -8.5601  -8.5301  -8.4268  -8.4183  -8.3516  -8.3464
    -6.7281  -6.6516  -6.4363  -6.3995  -5.9850  -5.9527  -5.3183  -5.2575
    -4.9386  -4.8970  -4.7039  -4.4103  -3.7525  -3.6170  -3.5722  -3.4757
    -3.4382  -3.3232  -3.2716  -3.2265  -3.2106  -3.0801  -3.0597  -2.9652

          k = 0.0000 0.0000-1.8663 ( 31500 PWs)   bands (ev):

   -21.3150 -21.2776 -21.2400 -21.2400 -21.1829 -21.1829 -20.8199 -20.8199
   -20.7864 -20.7864 -20.6651 -20.6044  -9.1345  -9.0251  -9.0251  -9.0017
    -9.0017  -8.7889  -8.5818  -8.5506  -8.3986  -8.3986  -8.3849  -8.3849
    -6.6303  -6.6099  -6.2629  -6.2629  -6.2482  -6.2482  -5.1435  -5.1435
    -5.0056  -5.0056  -4.6786  -4.3613  -3.7720  -3.6129  -3.6129  -3.5039
    -3.5039  -3.2803  -3.2793  -3.1752  -3.1752  -3.0945  -3.0945  -2.9365

          k = 0.2996-0.3460 0.3111 ( 31515 PWs)   bands (ev):

   -21.4380 -21.3131 -21.2196 -21.1984 -21.1222 -21.0727 -20.8977 -20.8297
   -20.8049 -20.7311 -20.6878 -20.6005  -9.1371  -9.0814  -9.0249  -9.0020
    -8.9238  -8.8774  -8.6231  -8.5625  -8.4890  -8.3580  -8.3331  -8.3077
    -6.9363  -6.5823  -6.4902  -6.2239  -6.0673  -5.7471  -5.4348  -5.1300
    -5.0159  -4.8817  -4.7431  -4.4218  -3.6523  -3.5717  -3.5338  -3.4399
    -3.3601  -3.3276  -3.2739  -3.2591  -3.2081  -3.1010  -3.0577  -2.9829

     highest occupied level (ev):    -2.9365

!    total energy              =    -418.04217257 Ry
     estimated scf accuracy    <       0.00000001 Ry

     The total energy is the sum of the following terms:
     one-electron contribution =    -306.18679109 Ry
     hartree contribution      =     186.73151340 Ry
     xc contribution           =    -105.92025389 Ry
     ewald contribution        =    -192.66664098 Ry

     convergence has been achieved in   8 iterations

     Forces acting on atoms (cartesian axes, Ry/au):

     atom    1 type  2   force =    -0.00403970    0.00464018    0.00549901
     atom    2 type  2   force =     0.00403970   -0.00464018   -0.00549901
     atom    3 type  2   force =    -0.00199867   -0.00581857    0.00549901
     atom    4 type  2   force =     0.00199867    0.00581857   -0.00549901
     atom    5 type  2   force =     0.00603836    0.00117839    0.00549901
     atom    6 type  2   force =    -0.00603836   -0.00117839   -0.00549901
     atom    7 type  2   force =     0.00374014   -0.00544071   -0.00002747
     atom    8 type  2   force =    -0.00374014    0.00544071    0.00002747
     atom    9 type  2   force =     0.00284172    0.00595942   -0.00002747
     atom   10 type  2   force =    -0.00284172   -0.00595942    0.00002747
     atom   11 type  2   force =    -0.00658187   -0.00051870   -0.00002747
     atom   12 type  2   force =     0.00658187    0.00051870    0.00002747
     atom   13 type  1   force =    -0.00789153    0.00428771   -0.02543807
     atom   14 type  1   force =     0.00789153   -0.00428771    0.02543807
     atom   15 type  1   force =     0.00023250   -0.00897811   -0.02543807
     atom   16 type  1   force =    -0.00023250    0.00897811    0.02543807
     atom   17 type  1   force =     0.00765903    0.00469041   -0.02543807
     atom   18 type  1   force =    -0.00765903   -0.00469041    0.02543807
     atom   19 type  1   force =     0.01531889   -0.01260769    0.01391710
     atom   20 type  1   force =    -0.01531889    0.01260769   -0.01391710
     atom   21 type  1   force =     0.00325913    0.01957039    0.01391710
     atom   22 type  1   force =    -0.00325913   -0.01957039   -0.01391710
     atom   23 type  1   force =    -0.01857802   -0.00696270    0.01391710
     atom   24 type  1   force =     0.01857802    0.00696270   -0.01391710
     atom   25 type  1   force =     0.00439168    0.01078320    0.00368039
     atom   26 type  1   force =    -0.00439168   -0.01078320   -0.00368039
     atom   27 type  1   force =    -0.01153437   -0.00158830    0.00368039
     atom   28 type  1   force =     0.01153437    0.00158830   -0.00368039
     atom   29 type  1   force =     0.00714269   -0.00919491    0.00368039
     atom   30 type  1   force =    -0.00714269    0.00919491   -0.00368039
     atom   31 type  1   force =     0.00056685   -0.01016228   -0.00268796
     atom   32 type  1   force =    -0.00056685    0.01016228    0.00268796
     atom   33 type  1   force =     0.00851737    0.00557204   -0.00268796
     atom   34 type  1   force =    -0.00851737   -0.00557204    0.00268796
     atom   35 type  1   force =    -0.00908422    0.00459024   -0.00268796
     atom   36 type  1   force =     0.00908422   -0.00459024    0.00268796

     Total force =     0.100598     Total SCF correction =     0.000113


     Computing stress (Cartesian axis) and pressure

          total   stress  (Ry/bohr**3)                   (kbar)     P=        5.21
   0.00000639   0.00000000  -0.00000000            0.94        0.00       -0.00
  -0.00000000   0.00000639   0.00000000           -0.00        0.94        0.00
   0.00000000   0.00000000   0.00009340            0.00        0.00       13.74

     Energy error            =      2.6E-02 Ry
     Gradient error          =      2.5E-02 Ry/Bohr

     number of scf cycles    =   3
     number of bfgs steps    =   2

     energy             old  =    -418.0165130241 Ry
     energy             new  =    -418.0421725660 Ry

     CASE: energy            _new < energy            _old

     new trust radius        =       0.0559437594 bohr
     new conv_thr            =       0.0000000254 Ry


ATOMIC_POSITIONS (crystal)
O                0.2737346873        0.0357970188        0.8597554035
O                0.7262653127        0.9642029922        0.1402445665
O                0.8597554035        0.2737346873        0.0357970188
O                0.1402445665        0.7262653127        0.9642029922
O                0.0357970188        0.8597554035        0.2737346873
O                0.9642029922        0.1402445665        0.7262653127
O                0.4709184154        0.7478173522        0.3298233732
O                0.5290815846        0.2521826478        0.6701765968
O                0.3298233732        0.4709184154        0.7478173522
O                0.6701765968        0.5290815846        0.2521826478
O                0.7478173522        0.3298233732        0.4709184154
O                0.2521826478        0.6701765968        0.5290815846
H                0.1534441244        0.0554618695        0.7993320053
H                0.8465558616        0.9445381225        0.2006679947
H                0.7993320053        0.1534441244        0.0554618695
H                0.2006679947        0.8465558616        0.9445381225
H                0.0554618695        0.7993320053        0.1534441244
H                0.9445381225        0.2006679947        0.8465558616
H                0.4222135935        0.2034495776        0.9994945501
H                0.5777864065        0.7965504374        0.0005054289
H                0.9994945501        0.4222135935        0.2034495776
H                0.0005054289        0.5777864065        0.7965504374
H                0.2034495776        0.9994945501        0.4222135935
H                0.7965504374        0.0005054289        0.5777864065
H                0.7208231487        0.4030815098        0.3982343153
H                0.2791768513        0.5969184602        0.6017657147
H                0.3982343153        0.7208231487        0.4030815098
H                0.6017657147        0.2791768513        0.5969184602
H                0.4030815098        0.3982343153        0.7208231487
H                0.5969184602        0.6017657147        0.2791768513
H                0.7417174752        0.2040684478        0.3650749035
H                0.2582825248        0.7959315372        0.6349250965
H                0.3650749035        0.7417174752        0.2040684478
H                0.6349250965        0.2582825248        0.7959315372
H                0.2040684478        0.3650749035        0.7417174752
H                0.7959315372        0.6349250965        0.2582825248



     Writing config-only to output data dir ./iceII/iceII.save/ :
     XML data file
     NEW-OLD atomic charge density approx. for the potential

     negative rho (up, down):  1.857E-07 0.000E+00

     total cpu time spent up to now is       47.0 secs

     per-process dynamical memory:    24.4 Mb

     Self-consistent Calculation

     iteration #  1     ecut=    90.00 Ry     beta= 0.70
     Davidson diagonalization with overlap
     ethr =  1.00E-06,  avg # of iterations =  7.0

     negative rho (up, down):  1.800E-07 0.000E+00

     total cpu time spent up to now is       48.8 secs

     total energy              =    -418.05531724 Ry
     estimated scf accuracy    <       0.00101111 Ry

     iteration #  2     ecut=    90.00 Ry     beta= 0.70
     Davidson diagonalization with overlap
     ethr =  1.05E-06,  avg # of iterations =  2.3

     negative rho (up, down):  1.830E-07 0.000E+00

     total cpu time spent up to now is       49.8 secs

     total energy              =    -418.05549411 Ry
     estimated scf accuracy    <       0.00015064 Ry

     iteration #  3     ecut=    90.00 Ry     beta= 0.70
     Davidson diagonalization with overlap
     ethr =  1.57E-07,  avg # of iterations =  2.6

     negative rho (up, down):  1.844E-07 0.000E+00

     total cpu time spent up to now is       50.9 secs

     total energy              =    -418.05552813 Ry
     estimated scf accuracy    <       0.00001414 Ry

     iteration #  4     ecut=    90.00 Ry     beta= 0.70
     Davidson diagonalization with overlap
     ethr =  1.47E-08,  avg # of iterations =  2.0

     negative rho (up, down):  1.843E-07 0.000E+00

     total cpu time spent up to now is       51.9 secs

     total energy              =    -418.05552935 Ry
     estimated scf accuracy    <       0.00000102 Ry

     iteration #  5     ecut=    90.00 Ry     beta= 0.70
     Davidson diagonalization with overlap
     ethr =  1.06E-09,  avg # of iterations =  3.3

     negative rho (up, down):  1.843E-07 0.000E+00

     total cpu time spent up to now is       53.0 secs

     total energy              =    -418.05552969 Ry
     estimated scf accuracy    <       0.00000007 Ry

     iteration #  6     ecut=    90.00 Ry     beta= 0.70
     Davidson diagonalization with overlap
     ethr =  7.21E-11,  avg # of iterations =  3.0

     negative rho (up, down):  1.844E-07 0.000E+00

     total cpu time spent up to now is       54.1 secs

     End of self-consistent calculation

          k = 0.0000 0.0000 0.0000 ( 31483 PWs)   bands (ev):

   -21.5038 -21.1281 -21.1281 -20.9168 -20.9168 -20.9168 -20.9168 -20.8949
   -20.8838 -20.6290 -20.6290 -20.3940  -9.1812  -9.0190  -9.0071  -9.0071
    -8.9580  -8.9580  -8.6141  -8.6141  -8.5987  -8.5752  -8.5752  -8.4565
    -7.2479  -6.2011  -6.2011  -5.7615  -5.7615  -5.5795  -5.5795  -5.3344
    -5.2992  -4.6853  -4.6853  -4.0695  -3.5354  -3.5354  -3.4969  -3.3225
    -3.3225  -3.2880  -3.1940  -3.1344  -3.1344  -3.1193  -3.0707  -3.0707

          k =-0.1498-0.0865 0.3111 ( 31495 PWs)   bands (ev):

   -21.4424 -21.1574 -21.1251 -21.0420 -21.0175 -20.9676 -20.8503 -20.8102
   -20.7709 -20.6362 -20.6049 -20.4387  -9.1461  -9.0602  -9.0201  -8.9959
    -8.9498  -8.8988  -8.6630  -8.6331  -8.5945  -8.5255  -8.5036  -8.4864
    -7.0747  -6.3714  -6.2457  -6.0041  -5.8585  -5.5606  -5.3961  -5.2908
    -5.1366  -4.6839  -4.6160  -4.2021  -3.6212  -3.5659  -3.4952  -3.3696
    -3.3587  -3.3083  -3.2751  -3.1720  -3.1363  -3.0788  -3.0649  -3.0234

          k = 0.2996 0.1730-0.6221 ( 31518 PWs)   bands (ev):

   -21.3076 -21.2563 -21.1512 -21.1011 -21.0421 -21.0104 -20.8162 -20.7745
   -20.6840 -20.6255 -20.5732 -20.5268  -9.0902  -9.0827  -9.0266  -9.0067
    -8.9434  -8.8749  -8.6636  -8.6422  -8.5778  -8.5580  -8.4665  -8.4513
    -6.7107  -6.6510  -6.2877  -6.2689  -5.7978  -5.7576  -5.2657  -5.1849
    -4.8109  -4.7731  -4.5724  -4.4153  -3.6953  -3.5844  -3.4944  -3.4175
    -3.3820  -3.3724  -3.2609  -3.2312  -3.1809  -3.0665  -3.0207  -2.9846

          k =-0.1498 0.0865 0.6221 ( 31523 PWs)   bands (ev):

   -21.3237 -21.2032 -21.1887 -21.0913 -21.0593 -21.0133 -20.8070 -20.7473
   -20.7084 -20.6152 -20.5961 -20.5151  -9.0954  -9.0624  -9.0575  -8.9882
    -8.9455  -8.8730  -8.6601  -8.6473  -8.6090  -8.5043  -8.4820  -8.4593
    -6.7639  -6.5132  -6.4782  -6.0771  -5.9181  -5.7587  -5.2626  -5.0557
    -4.9788  -4.6654  -4.6072  -4.4220  -3.6782  -3.6117  -3.4853  -3.4110
    -3.3931  -3.3318  -3.3048  -3.2053  -3.1876  -3.0697  -3.0312  -2.9756

          k = 0.2996 0.3460-0.3111 ( 31515 PWs)   bands (ev):

   -21.3625 -21.2302 -21.1699 -21.0893 -21.0302 -20.9847 -20.8167 -20.7543
   -20.6813 -20.6645 -20.5793 -20.5001  -9.1145  -9.0900  -9.0084  -8.9864
    -8.9544  -8.8727  -8.7294  -8.7058  -8.6357  -8.4912  -8.4680  -8.4410
    -6.8206  -6.4995  -6.3115  -6.1240  -6.0747  -5.5985  -5.1772  -5.0962
    -5.0097  -4.7368  -4.5969  -4.3591  -3.6187  -3.5690  -3.5007  -3.4316
    -3.3413  -3.2896  -3.2624  -3.2357  -3.1743  -3.1110  -3.0270  -2.9561

          k = 0.1498 0.2595 0.0000 ( 31514 PWs)   bands (ev):

   -21.4590 -21.1906 -21.1447 -21.0158 -20.9874 -20.9193 -20.8751 -20.8113
   -20.7778 -20.6396 -20.6072 -20.4296  -9.1610  -9.0600  -9.0213  -8.9891
    -8.9285  -8.9226  -8.7393  -8.6839  -8.5997  -8.5401  -8.4969  -8.4484
    -7.0872  -6.2706  -6.2295  -6.0407  -5.9680  -5.4974  -5.3390  -5.1912
    -5.1761  -4.7290  -4.6695  -4.1479  -3.5378  -3.5229  -3.5143  -3.3920
    -3.3246  -3.2891  -3.2077  -3.1800  -3.1664  -3.1227  -3.0245  -3.0140

          k = 0.2996-0.1730-1.2442 ( 31484 PWs)   bands (ev):

   -21.3486 -21.3267 -21.1588 -21.0549 -20.9927 -20.9335 -20.8371 -20.7917
   -20.7076 -20.6617 -20.5363 -20.5073  -9.1246  -9.0962  -9.0219  -8.9920
    -8.8991  -8.8809  -8.8163  -8.7420  -8.6147  -8.5283  -8.4621  -8.4374
    -6.6945  -6.6876  -6.2349  -6.2305  -5.8705  -5.6053  -5.1959  -5.1070
    -4.9474  -4.8779  -4.5046  -4.3472  -3.5519  -3.5157  -3.5091  -3.4404
    -3.3293  -3.2565  -3.2461  -3.2213  -3.1754  -3.1302  -2.9925  -2.9802

          k = 0.0000 0.0000 0.9332 ( 31497 PWs)   bands (ev):

   -21.2686 -21.2686 -21.2435 -21.1203 -21.0089 -21.0089 -20.7521 -20.7521
   -20.6839 -20.5907 -20.5907 -20.5745  -9.0933  -9.0933  -9.0370  -8.9426
    -8.9345  -8.9345  -8.7583  -8.6854  -8.6854  -8.4483  -8.4483  -8.4269
    -6.5986  -6.5986  -6.4660  -6.2680  -5.8468  -5.8468  -4.9878  -4.9878
    -4.9189  -4.6660  -4.6660  -4.5854  -3.5774  -3.5774  -3.4811  -3.4492
    -3.3090  -3.3090  -3.2748  -3.2253  -3.2253  -3.0727  -3.0727  -2.9320

          k = 0.4494 0.2595 0.0000 ( 31508 PWs)   bands (ev):

   -21.3764 -21.2417 -21.2377 -21.0488 -20.9628 -20.9318 -20.8409 -20.8148
   -20.7149 -20.6156 -20.5799 -20.4917  -9.1267  -9.0801  -9.0505  -8.9616
    -8.9321  -8.8635  -8.8260  -8.7084  -8.6576  -8.4949  -8.4650  -8.4483
    -6.8142  -6.4265  -6.4059  -6.2312  -5.8363  -5.5734  -5.2322  -5.2027
    -4.9088  -4.7292  -4.6253  -4.3183  -3.5372  -3.5273  -3.5072  -3.4454
    -3.3418  -3.2758  -3.2386  -3.2090  -3.1527  -3.1091  -3.0462  -2.9581

          k = 0.2996 0.1730 0.3111 ( 31488 PWs)   bands (ev):

   -21.4011 -21.1978 -21.1340 -21.0932 -21.0102 -20.9764 -20.8264 -20.8082
   -20.7218 -20.6474 -20.5818 -20.4646  -9.1300  -9.0723  -9.0304  -8.9709
    -8.9622  -8.8568  -8.7396  -8.6276  -8.5852  -8.5744  -8.4874  -8.4694
    -6.9328  -6.3833  -6.3074  -6.0349  -6.0204  -5.5894  -5.2976  -5.1872
    -5.0905  -4.6876  -4.6052  -4.2404  -3.6345  -3.5691  -3.5204  -3.4209
    -3.3616  -3.3102  -3.2511  -3.2049  -3.1409  -3.0956  -3.0269  -2.9877

          k = 0.4494-0.2595-0.9332 ( 31477 PWs)   bands (ev):

   -21.2973 -21.2905 -21.1826 -21.1103 -21.0106 -20.9552 -20.8506 -20.7865
   -20.6576 -20.6427 -20.5818 -20.4968  -9.1030  -9.0855  -9.0455  -8.9708
    -8.9379  -8.8195  -8.7906  -8.6709  -8.6015  -8.5649  -8.4809  -8.4619
    -6.6629  -6.5520  -6.3328  -6.2382  -5.9483  -5.5754  -5.3842  -5.1468
    -4.8425  -4.7051  -4.6315  -4.3017  -3.6378  -3.5816  -3.5463  -3.4284
    -3.3863  -3.3542  -3.2118  -3.1761  -3.1614  -3.1073  -3.0281  -2.9507

          k = 0.2996-0.3460-0.6221 ( 31498 PWs)   bands (ev):

   -21.2820 -21.2258 -21.1717 -21.1462 -21.0424 -21.0274 -20.7986 -20.7767
   -20.6591 -20.6401 -20.5904 -20.5078  -9.1091  -9.0438  -9.0202  -9.0013
    -8.9781  -8.8208  -8.6872  -8.6680  -8.5667  -8.5523  -8.4884  -8.4813
    -6.6035  -6.5793  -6.3289  -6.2972  -5.8772  -5.8428  -5.1820  -5.1322
    -4.8461  -4.8165  -4.5684  -4.3489  -3.7104  -3.5931  -3.5494  -3.4536
    -3.4149  -3.3112  -3.2504  -3.2106  -3.1947  -3.0655  -3.0420  -2.9383

          k = 0.0000 0.0000-1.8663 ( 31500 PWs)   bands (ev):

   -21.2527 -21.1754 -21.1754 -21.1734 -21.0826 -21.0826 -20.7450 -20.7450
   -20.6767 -20.6767 -20.5911 -20.4914  -9.1149  -9.0152  -9.0152  -8.9958
    -8.9958  -8.7786  -8.7096  -8.6937  -8.5419  -8.5419  -8.5231  -8.5231
    -6.5831  -6.4812  -6.1963  -6.1963  -6.0774  -6.0774  -4.9924  -4.9924
    -4.9604  -4.9604  -4.5316  -4.3009  -3.7189  -3.5890  -3.5890  -3.4831
    -3.4831  -3.2730  -3.2576  -3.1608  -3.1608  -3.0784  -3.0784  -2.9069

          k = 0.2996-0.3460 0.3111 ( 31515 PWs)   bands (ev):

   -21.3614 -21.2402 -21.1505 -21.0992 -21.0309 -20.9871 -20.8071 -20.7548
   -20.7106 -20.6322 -20.5896 -20.4994  -9.1199  -9.0756  -9.0205  -8.9945
    -8.9314  -8.8843  -8.7493  -8.6892  -8.6304  -8.4866  -8.4718  -8.4436
    -6.8218  -6.4927  -6.3471  -6.1066  -6.0256  -5.6447  -5.2749  -5.0021
    -4.9205  -4.7760  -4.6559  -4.3374  -3.6243  -3.5508  -3.5119  -3.4255
    -3.3382  -3.3024  -3.2568  -3.2376  -3.1949  -3.0836  -3.0290  -2.9620

     highest occupied level (ev):    -2.9069

!    total energy              =    -418.05552971 Ry
     estimated scf accuracy    <          6.2E-09 Ry

     The total energy is the sum of the following terms:
     one-electron contribution =    -304.85302471 Ry
     hartree contribution      =     186.13573946 Ry
     xc contribution           =    -105.83081143 Ry
     ewald contribution        =    -193.50743303 Ry

     convergence has been achieved in   6 iterations

     Forces acting on atoms (cartesian axes, Ry/au):

     atom    1 type  2   force =    -0.00192064   -0.00036003   -0.00118930
     atom    2 type  2   force =     0.00192064    0.00036003    0.00118930
     atom    3 type  2   force =     0.00127212   -0.00148330   -0.00118930
     atom    4 type  2   force =    -0.00127212    0.00148330    0.00118930
     atom    5 type  2   force =     0.00064852    0.00184334   -0.00118930
     atom    6 type  2   force =    -0.00064852   -0.00184334    0.00118930
     atom    7 type  2   force =    -0.00160004   -0.00268847   -0.00358045
     atom    8 type  2   force =     0.00160004    0.00268847    0.00358045
     atom    9 type  2   force =     0.00312830   -0.00004144   -0.00358045
     atom   10 type  2   force =    -0.00312830    0.00004144    0.00358045
     atom   11 type  2   force =    -0.00152826    0.00272991   -0.00358045
     atom   12 type  2   force =     0.00152826   -0.00272991    0.00358045
     atom   13 type  1   force =    -0.00398645   -0.00130113   -0.00801460
     atom   14 type  1   force =     0.00398645    0.00130113    0.00801460
     atom   15 type  1   force =     0.00312004   -0.00280180   -0.00801460
     atom   16 type  1   force =    -0.00312004    0.00280180    0.00801460
     atom   17 type  1   force =     0.00086641    0.00410293   -0.00801460
     atom   18 type  1   force =    -0.00086641   -0.00410293    0.00801460
     atom   19 type  1   force =     0.00902700   -0.00126545    0.00400904
     atom   20 type  1   force =    -0.00902700    0.00126545   -0.00400904
     atom   21 type  1   force =    -0.00341759    0.00845033    0.00400904
     atom   22 type  1   force =     0.00341759   -0.00845033   -0.00400904
     atom   23 type  1   force =    -0.00560941   -0.00718489    0.00400904
     atom   24 type  1   force =     0.00560941    0.00718489   -0.00400904
     atom   25 type  1   force =     0.00284686    0.00021445    0.00338826
     atom   26 type  1   force =    -0.00284686   -0.00021445   -0.00338826
     atom   27 type  1   force =    -0.00160915    0.00235823    0.00338826
     atom   28 type  1   force =     0.00160915   -0.00235823   -0.00338826
     atom   29 type  1   force =    -0.00123772   -0.00257268    0.00338826
     atom   30 type  1   force =     0.00123772    0.00257268   -0.00338826
     atom   31 type  1   force =    -0.00248245   -0.00363021    0.00024082
     atom   32 type  1   force =     0.00248245    0.00363021   -0.00024082
     atom   33 type  1   force =     0.00438508   -0.00033476    0.00024082
     atom   34 type  1   force =    -0.00438508    0.00033476   -0.00024082
     atom   35 type  1   force =    -0.00190263    0.00396497    0.00024082
     atom   36 type  1   force =     0.00190263   -0.00396497   -0.00024082

     Total force =     0.038563     Total SCF correction =     0.000176


     Computing stress (Cartesian axis) and pressure

          total   stress  (Ry/bohr**3)                   (kbar)     P=       -4.76
  -0.00005735  -0.00000000  -0.00000000           -8.44       -0.00       -0.00
   0.00000000  -0.00005735  -0.00000000            0.00       -8.44       -0.00
  -0.00000000  -0.00000000   0.00001763           -0.00       -0.00        2.59

     Energy error            =      1.3E-02 Ry
     Gradient error          =      9.0E-03 Ry/Bohr

     number of scf cycles    =   4
     number of bfgs steps    =   3

     energy             old  =    -418.0421725660 Ry
     energy             new  =    -418.0555297145 Ry

     CASE: energy            _new < energy            _old

     new trust radius        =       0.0300804617 bohr
     new conv_thr            =       0.0000000090 Ry


ATOMIC_POSITIONS (crystal)
O                0.2735638879        0.0364160679        0.8601737077
O                0.7264361121        0.9635839431        0.1398262623
O                0.8601737077        0.2735638879        0.0364160679
O                0.1398262623        0.7264361121        0.9635839431
O                0.0364160679        0.8601737077        0.2735638879
O                0.9635839431        0.1398262623        0.7264361121
O                0.4701840474        0.7470144261        0.3294697659
O                0.5298159526        0.2529855739        0.6705302041
O                0.3294697659        0.4701840474        0.7470144261
O                0.6705302041        0.5298159526        0.2529855739
O                0.7470144261        0.3294697659        0.4701840474
O                0.2529855739        0.6705302041        0.5298159526
H                0.1507400216        0.0530241084        0.7973699667
H                0.8492599644        0.9469758836        0.2026300333
H                0.7973699667        0.1507400216        0.0530241084
H                0.2026300333        0.8492599644        0.9469758836
[...]
H                0.9623973746        0.2093456108        0.8555733834
H                0.4212965384        0.1951617520        0.9826763465
H                0.5787034616        0.8048382630        0.0173236325
H                0.9826763465        0.4212965384        0.1951617520
H                0.0173236325        0.5787034616        0.8048382630
H                0.1951617520        0.9826763465        0.4212965384
H                0.8048382630        0.0173236325        0.5787034616
H                0.7299480102        0.4054990295        0.4062399286
H                0.2700519898        0.5945009405        0.5937601014
H                0.4062399286        0.7299480102        0.4054990295
H                0.5937601014        0.2700519898        0.5945009405
H                0.4054990295        0.4062399286        0.7299480102
H                0.5945009405        0.5937601014        0.2700519898
H                0.7431033944        0.2018796737        0.3705827054
H                0.2568966056        0.7981203113        0.6294172946
H                0.3705827054        0.7431033944        0.2018796737
H                0.6294172946        0.2568966056        0.7981203113
H                0.2018796737        0.3705827054        0.7431033944
H                0.7981203113        0.6294172946        0.2568966056



     Writing config-only to output data dir ./iceII/iceII.save/ :
     XML data file
     NEW-OLD atomic charge density approx. for the potential

     total cpu time spent up to now is      250.2 secs

     per-process dynamical memory:    24.4 Mb

     Self-consistent Calculation

     iteration #  1     ecut=    90.00 Ry     beta= 0.70
     Davidson diagonalization with overlap
     ethr =  1.00E-06,  avg # of iterations =  3.0

     Threshold (ethr) on eigenvalues was too large:
     Diagonalizing with lowered threshold

     Davidson diagonalization with overlap
     ethr =  4.68E-08,  avg # of iterations =  2.0

     total cpu time spent up to now is      252.3 secs

     total energy              =    -418.06561210 Ry
     estimated scf accuracy    <       0.00004870 Ry

     iteration #  2     ecut=    90.00 Ry     beta= 0.70
     Davidson diagonalization with overlap
     ethr =  5.07E-08,  avg # of iterations =  2.0

     total cpu time spent up to now is      253.3 secs

     total energy              =    -418.06562014 Ry
     estimated scf accuracy    <       0.00000431 Ry

     iteration #  3     ecut=    90.00 Ry     beta= 0.70
     Davidson diagonalization with overlap
     ethr =  4.49E-09,  avg # of iterations =  2.1

     total cpu time spent up to now is      254.4 secs

     total energy              =    -418.06562113 Ry
     estimated scf accuracy    <       0.00000070 Ry

     iteration #  4     ecut=    90.00 Ry     beta= 0.70
     Davidson diagonalization with overlap
     ethr =  7.30E-10,  avg # of iterations =  2.2

     total cpu time spent up to now is      255.4 secs

     total energy              =    -418.06562128 Ry
     estimated scf accuracy    <       0.00000003 Ry

     iteration #  5     ecut=    90.00 Ry     beta= 0.70
     Davidson diagonalization with overlap
     ethr =  3.43E-11,  avg # of iterations =  3.6

     total cpu time spent up to now is      256.5 secs

     total energy              =    -418.06562128 Ry
     estimated scf accuracy    <          5.0E-09 Ry

     iteration #  6     ecut=    90.00 Ry     beta= 0.70
     Davidson diagonalization with overlap
     ethr =  5.22E-12,  avg # of iterations =  2.5

     total cpu time spent up to now is      257.6 secs

     End of self-consistent calculation

          k = 0.0000 0.0000 0.0000 ( 31483 PWs)   bands (ev):

   -21.4653 -21.0694 -21.0694 -20.8987 -20.8987 -20.8784 -20.8660 -20.8660
   -20.8588 -20.6216 -20.6216 -20.3590  -9.0535  -8.9929  -8.9929  -8.9582
    -8.8991  -8.8991  -8.6488  -8.6488  -8.6363  -8.6358  -8.6004  -8.6004
    -7.1455  -6.2172  -6.2172  -5.6572  -5.6572  -5.5070  -5.5070  -5.3525
    -5.2701  -4.6503  -4.6503  -3.9759  -3.4998  -3.4998  -3.4740  -3.3448
    -3.3448  -3.3062  -3.1991  -3.1991  -3.1757  -3.1163  -3.0674  -3.0674

          k =-0.1498-0.0865 0.3111 ( 31495 PWs)   bands (ev):

   -21.4030 -21.1061 -21.0626 -21.0151 -20.9824 -20.9303 -20.8269 -20.7907
   -20.7415 -20.6231 -20.5888 -20.4077  -9.0241  -9.0033  -8.9826  -8.9456
    -8.8903  -8.8665  -8.6959  -8.6732  -8.6680  -8.6056  -8.5651  -8.5493
    -7.0002  -6.3670  -6.2477  -5.9475  -5.7275  -5.5146  -5.3585  -5.2525
    -5.0932  -4.6424  -4.5859  -4.1111  -3.5745  -3.5141  -3.4815  -3.3987
    -3.3888  -3.3424  -3.2524  -3.1921  -3.1436  -3.1281  -3.0758  -3.0575

          k = 0.2996 0.1730-0.6221 ( 31518 PWs)   bands (ev):

   -21.2423 -21.2410 -21.0877 -21.0823 -20.9810 -20.9789 -20.7869 -20.7831
   -20.6333 -20.6166 -20.5273 -20.5235  -9.0116  -8.9948  -8.9486  -8.9479
    -8.8882  -8.8330  -8.7214  -8.7163  -8.6679  -8.6002  -8.5264  -8.5140
    -6.6936  -6.6182  -6.2423  -6.2280  -5.7087  -5.6556  -5.2456  -5.1817
    -4.7556  -4.6944  -4.5464  -4.3387  -3.6436  -3.5322  -3.4654  -3.4586
    -3.4080  -3.3856  -3.2912  -3.1965  -3.1930  -3.1020  -3.0585  -3.0439

          k =-0.1498 0.0865 0.6221 ( 31523 PWs)   bands (ev):

   -21.2783 -21.1615 -21.1470 -21.0485 -21.0225 -20.9716 -20.7906 -20.7268
   -20.6838 -20.5852 -20.5722 -20.4959  -9.0125  -8.9891  -8.9546  -8.9531
    -8.8811  -8.8294  -8.7185  -8.7108  -8.6969  -8.5613  -8.5428  -8.5205
    -6.7420  -6.4820  -6.4411  -6.0325  -5.8325  -5.6705  -5.2437  -5.0276
    -4.9161  -4.6202  -4.5543  -4.3519  -3.6289  -3.5575  -3.4587  -3.4455
    -3.4051  -3.3801  -3.3089  -3.1977  -3.1753  -3.1090  -3.0747  -3.0308

          k = 0.2996 0.3460-0.3111 ( 31515 PWs)   bands (ev):

   -21.3201 -21.1814 -21.1060 -21.0630 -21.0109 -20.9565 -20.7859 -20.7034
   -20.6823 -20.6243 -20.5647 -20.4793  -9.0121  -9.0063  -8.9670  -8.9302
    -8.8830  -8.8579  -8.7642  -8.7291  -8.7032  -8.5741  -8.5510  -8.5170
    -6.7483  -6.4617  -6.2982  -6.0799  -5.9943  -5.5452  -5.1637  -5.0708
    -4.9301  -4.6635  -4.5558  -4.3030  -3.5757  -3.5257  -3.4725  -3.4364
    -3.3804  -3.3309  -3.2681  -3.2407  -3.1545  -3.1480  -3.0610  -2.9982

          k = 0.1498 0.2595 0.0000 ( 31514 PWs)   bands (ev):

   -21.4195 -21.1316 -21.0832 -20.9916 -20.9743 -20.9065 -20.8269 -20.7685
   -20.7402 -20.6284 -20.6024 -20.3990  -9.0375  -8.9951  -8.9900  -8.9461
    -8.8993  -8.8904  -8.7274  -8.6976  -8.6721  -8.6055  -8.5829  -8.5507
    -6.9896  -6.2652  -6.1820  -5.9735  -5.9506  -5.4494  -5.2696  -5.1506
    -5.1299  -4.6787  -4.6403  -4.0726  -3.5028  -3.4888  -3.4839  -3.3907
    -3.3456  -3.3243  -3.2406  -3.2223  -3.1644  -3.1327  -3.0409  -3.0249

          k = 0.2996-0.1730-1.2442 ( 31484 PWs)   bands (ev):

   -21.3146 -21.2690 -21.0924 -21.0365 -20.9713 -20.9279 -20.7752 -20.7609
   -20.6612 -20.6579 -20.5031 -20.5020  -9.0154  -8.9995  -8.9794  -8.9342
    -8.8945  -8.8908  -8.7853  -8.7358  -8.6914  -8.5833  -8.5788  -8.5332
    -6.6197  -6.5719  -6.2744  -6.1172  -5.9058  -5.5782  -5.0949  -5.0792
    -4.9295  -4.7765  -4.4454  -4.3216  -3.5120  -3.4843  -3.4750  -3.4262
    -3.3451  -3.3193  -3.2843  -3.2245  -3.2018  -3.1223  -3.0122  -3.0018

          k = 0.0000 0.0000 0.9332 ( 31497 PWs)   bands (ev):

   -21.2293 -21.2293 -21.1444 -21.1341 -20.9778 -20.9778 -20.7205 -20.7205
   -20.6188 -20.5980 -20.5637 -20.5637  -9.0061  -9.0061  -8.9699  -8.8938
    -8.8938  -8.8807  -8.8071  -8.7308  -8.7308  -8.5299  -8.5299  -8.5088
    -6.5282  -6.5282  -6.4804  -6.1434  -5.8339  -5.8339  -4.9455  -4.9455
    -4.8537  -4.6099  -4.6099  -4.5345  -3.5325  -3.5325  -3.4559  -3.4217
    -3.3581  -3.3581  -3.3242  -3.2042  -3.2042  -3.1057  -3.1057  -2.9762

          k = 0.4494 0.2595 0.0000 ( 31508 PWs)   bands (ev):

   -21.3354 -21.1943 -21.1761 -21.0387 -20.9228 -20.9160 -20.8020 -20.7882
   -20.6579 -20.5953 -20.5738 -20.4715  -9.0138  -8.9926  -8.9896  -8.9283
    -8.9106  -8.8756  -8.7859  -8.7326  -8.7065  -8.5797  -8.5643  -8.5419
    -6.7195  -6.3429  -6.3065  -6.2502  -5.8672  -5.5657  -5.1836  -5.1008
    -4.8227  -4.6851  -4.5946  -4.2755  -3.4992  -3.4921  -3.4779  -3.4149
    -3.3765  -3.3258  -3.2620  -3.2317  -3.1940  -3.1012  -3.0446  -2.9891

          k = 0.2996 0.1730 0.3111 ( 31488 PWs)   bands (ev):

   -21.3600 -21.1403 -21.0756 -21.0622 -20.9996 -20.9401 -20.8036 -20.7579
   -20.7186 -20.6092 -20.5701 -20.4406  -9.0195  -9.0004  -8.9734  -8.9252
    -8.8936  -8.8510  -8.7293  -8.6974  -8.6568  -8.6240  -8.5968  -8.5344
    -6.8575  -6.3481  -6.3040  -6.0213  -5.9161  -5.5198  -5.2782  -5.1042
    -5.0646  -4.6211  -4.5720  -4.1779  -3.5975  -3.5197  -3.4887  -3.4447
    -3.4042  -3.3126  -3.2743  -3.2125  -3.1350  -3.1292  -3.0484  -3.0344

          k = 0.4494-0.2595-0.9332 ( 31477 PWs)   bands (ev):

   -21.2541 -21.2371 -21.1289 -21.0888 -20.9890 -20.9139 -20.8352 -20.7482
   -20.6440 -20.5919 -20.5521 -20.4944  -9.0148  -8.9872  -8.9716  -8.9083
    -8.8797  -8.8467  -8.7511  -8.7242  -8.6918  -8.6262  -8.5845  -8.5466
    -6.5769  -6.4828  -6.3577  -6.1436  -5.9478  -5.5454  -5.3309  -5.0517
    -4.8197  -4.6125  -4.5730  -4.2891  -3.6052  -3.5367  -3.5077  -3.4579
    -3.4268  -3.3278  -3.2416  -3.2221  -3.1513  -3.1176  -3.0431  -3.0060

          k = 0.2996-0.3460-0.6221 ( 31498 PWs)   bands (ev):

   -21.2098 -21.2093 -21.1193 -21.1131 -21.0027 -21.0015 -20.7661 -20.7646
   -20.6280 -20.6217 -20.5313 -20.5160  -9.0192  -8.9614  -8.9441  -8.9286
    -8.9094  -8.7956  -8.7368  -8.7209  -8.6694  -8.6163  -8.5569  -8.5479
    -6.5848  -6.5516  -6.2930  -6.2454  -5.7877  -5.7544  -5.1674  -5.1105
    -4.7759  -4.7446  -4.4944  -4.3228  -3.6665  -3.5429  -3.5083  -3.4990
    -3.4518  -3.3365  -3.2337  -3.2256  -3.1808  -3.0913  -3.0778  -3.0089

          k = 0.0000 0.0000-1.8663 ( 31500 PWs)   bands (ev):

   -21.1736 -21.1649 -21.0999 -21.0999 -21.0895 -21.0895 -20.6872 -20.6872
   -20.6816 -20.6816 -20.5255 -20.5026  -9.0195  -8.9251  -8.9251  -8.9239
    -8.9239  -8.7941  -8.7324  -8.7079  -8.6543  -8.6543  -8.5904  -8.5904
    -6.5819  -6.4362  -6.1286  -6.1286  -6.0303  -6.0303  -4.9196  -4.9196
    -4.9178  -4.9178  -4.4421  -4.3027  -3.6736  -3.5414  -3.5414  -3.5302
    -3.5302  -3.2866  -3.2447  -3.1533  -3.1533  -3.1182  -3.1182  -2.9781

          k = 0.2996-0.3460 0.3111 ( 31515 PWs)   bands (ev):

   -21.3201 -21.1814 -21.1060 -21.0643 -21.0096 -20.9563 -20.7840 -20.7023
   -20.6922 -20.6154 -20.5665 -20.4800  -9.0167  -8.9972  -8.9721  -8.9184
    -8.8936  -8.8604  -8.7700  -8.7238  -8.7024  -8.5685  -8.5470  -8.5250
    -6.7497  -6.4502  -6.3342  -6.0509  -5.9593  -5.5998  -5.2462  -4.9565
    -4.8618  -4.7215  -4.6060  -4.2783  -3.5839  -3.5124  -3.4737  -3.4250
    -3.3864  -3.3329  -3.2765  -3.2517  -3.1669  -3.1170  -3.0634  -3.0024

     highest occupied level (ev):    -2.9762

!    total energy              =    -418.06562128 Ry
     estimated scf accuracy    <          2.2E-10 Ry

     The total energy is the sum of the following terms:
     one-electron contribution =    -306.53158139 Ry
     hartree contribution      =     187.01391423 Ry
     xc contribution           =    -105.78915920 Ry
     ewald contribution        =    -192.75879493 Ry

     convergence has been achieved in   6 iterations

     Forces acting on atoms (cartesian axes, Ry/au):

     atom    1 type  2   force =    -0.00039726   -0.00022621   -0.00012441
     atom    2 type  2   force =     0.00039726    0.00022621    0.00012441
     atom    3 type  2   force =     0.00039453   -0.00023093   -0.00012441
     atom    4 type  2   force =    -0.00039453    0.00023093    0.00012441
     atom    5 type  2   force =     0.00000273    0.00045714   -0.00012441
     atom    6 type  2   force =    -0.00000273   -0.00045714    0.00012441
     atom    7 type  2   force =    -0.00065313   -0.00002467    0.00046342
     atom    8 type  2   force =     0.00065313    0.00002467   -0.00046342
     atom    9 type  2   force =     0.00034793   -0.00055329    0.00046342
     atom   10 type  2   force =    -0.00034793    0.00055329   -0.00046342
     atom   11 type  2   force =     0.00030520    0.00057796    0.00046342
     atom   12 type  2   force =    -0.00030520   -0.00057796   -0.00046342
     atom   13 type  1   force =    -0.00013375   -0.00016320    0.00090916
     atom   14 type  1   force =     0.00013375    0.00016320   -0.00090916
     atom   15 type  1   force =     0.00020821   -0.00003423    0.00090916
     atom   16 type  1   force =    -0.00020821    0.00003423   -0.00090916
     atom   17 type  1   force =    -0.00007446    0.00019743    0.00090916
     atom   18 type  1   force =     0.00007446   -0.00019743   -0.00090916
     atom   19 type  1   force =     0.00015861   -0.00019727   -0.00042116
     atom   20 type  1   force =    -0.00015861    0.00019727    0.00042116
     atom   21 type  1   force =     0.00009154    0.00023600   -0.00042116
     atom   22 type  1   force =    -0.00009154   -0.00023600    0.00042116
     atom   23 type  1   force =    -0.00025015   -0.00003872   -0.00042116
     atom   24 type  1   force =     0.00025015    0.00003872    0.00042116
     atom   25 type  1   force =    -0.00052502    0.00027280    0.00022042
     atom   26 type  1   force =     0.00052502   -0.00027280   -0.00022042
     atom   27 type  1   force =     0.00002626   -0.00059108    0.00022042
     atom   28 type  1   force =    -0.00002626    0.00059108   -0.00022042
     atom   29 type  1   force =     0.00049877    0.00031828    0.00022042
     atom   30 type  1   force =    -0.00049877   -0.00031828   -0.00022042
     atom   31 type  1   force =    -0.00068578   -0.00048543    0.00006240
     atom   32 type  1   force =     0.00068578    0.00048543   -0.00006240
     atom   33 type  1   force =     0.00076328   -0.00035119    0.00006240
     atom   34 type  1   force =    -0.00076328    0.00035119   -0.00006240
     atom   35 type  1   force =    -0.00007750    0.00083661    0.00006240
     atom   36 type  1   force =     0.00007750   -0.00083661   -0.00006240

     Total force =     0.004304     Total SCF correction =     0.000023


     Computing stress (Cartesian axis) and pressure

          total   stress  (Ry/bohr**3)                   (kbar)     P=       -8.69
  -0.00005903  -0.00000000   0.00000000           -8.68       -0.00        0.00
   0.00000000  -0.00005903  -0.00000000            0.00       -8.68       -0.00
  -0.00000000  -0.00000000  -0.00005907           -0.00       -0.00       -8.69

     Energy error            =      5.0E-05 Ry
     Gradient error          =      9.1E-04 Ry/Bohr

     bfgs converged in  27 scf cycles and  26 bfgs steps
     (criteria: energy <  1.0E-04 Ry, force <  1.0E-03 Ry/Bohr)

     End of BFGS Geometry Optimization

     Final energy             =    -418.0656212839 Ry

     File ./iceII/iceII.bfgs deleted, as requested
Begin final coordinates

ATOMIC_POSITIONS (crystal)
O                0.2708998463        0.0257955849        0.8541480114
O                0.7291001537        0.9742044261        0.1458519586
O                0.8541480114        0.2708998463        0.0257955849
O                0.1458519586        0.7291001537        0.9742044261
O                0.0257955849        0.8541480114        0.2708998463
O                0.9742044261        0.1458519586        0.7291001537
O                0.4760902195        0.7491426624        0.3281068079
O                0.5239097805        0.2508573376        0.6718931621
O                0.3281068079        0.4760902195        0.7491426624
O                0.6718931621        0.5239097805        0.2508573376
O                0.7491426624        0.3281068079        0.4760902195
O                0.2508573376        0.6718931621        0.5239097805
H                0.1444266026        0.0376026174        0.7906543892
H                0.8555733834        0.9623973746        0.2093456108
H                0.7906543892        0.1444266026        0.0376026174
H                0.2093456108        0.8555733834        0.9623973746
H                0.0376026174        0.7906543892        0.1444266026
H                0.9623973746        0.2093456108        0.8555733834
H                0.4212965384        0.1951617520        0.9826763465
H                0.5787034616        0.8048382630        0.0173236325
H                0.9826763465        0.4212965384        0.1951617520
H                0.0173236325        0.5787034616        0.8048382630
H                0.1951617520        0.9826763465        0.4212965384
H                0.8048382630        0.0173236325        0.5787034616
H                0.7299480102        0.4054990295        0.4062399286
H                0.2700519898        0.5945009405        0.5937601014
H                0.4062399286        0.7299480102        0.4054990295
H                0.5937601014        0.2700519898        0.5945009405
H                0.4054990295        0.4062399286        0.7299480102
H                0.5945009405        0.5937601014        0.2700519898
H                0.7431033944        0.2018796737        0.3705827054
H                0.2568966056        0.7981203113        0.6294172946
H                0.3705827054        0.7431033944        0.2018796737
H                0.6294172946        0.2568966056        0.7981203113
H                0.2018796737        0.3705827054        0.7431033944
H                0.7981203113        0.6294172946        0.2568966056
End final coordinates



     Writing all to output data dir ./iceII/iceII.save/ :
     XML data file, charge density, pseudopotentials, collected wavefunctions

     init_run     :      2.87s CPU      3.01s WALL (       1 calls)
     electrons    :    204.45s CPU    213.14s WALL (      27 calls)
     update_pot   :      4.56s CPU      5.36s WALL (      26 calls)
     forces       :      3.78s CPU      3.81s WALL (      27 calls)
     stress       :     30.46s CPU     31.20s WALL (      27 calls)

     Called by init_run:
     wfcinit      :      0.35s CPU      0.37s WALL (       1 calls)
     potinit      :      1.68s CPU      1.76s WALL (       1 calls)
     hinit0       :      0.67s CPU      0.69s WALL (       1 calls)

     Called by electrons:
     c_bands      :    150.70s CPU    152.56s WALL (     190 calls)
     sum_band     :     21.65s CPU     21.83s WALL (     190 calls)
     v_of_rho     :     36.04s CPU     41.95s WALL (     203 calls)
     newd         :      0.91s CPU      0.93s WALL (     203 calls)
     mix_rho      :      0.55s CPU      0.56s WALL (     190 calls)
     vdW_kernel   :      1.51s CPU      1.52s WALL (       1 calls)

     Called by c_bands:
     init_us_2    :      2.81s CPU      2.88s WALL (    1740 calls)
     cegterg      :    145.53s CPU    146.90s WALL (     760 calls)

     Called by *egterg:
     cdiaghg      :     10.58s CPU     10.60s WALL (    2717 calls)
     h_psi        :    110.32s CPU    111.38s WALL (    2881 calls)
     s_psi        :      4.71s CPU      4.85s WALL (    2881 calls)
     g_psi        :      0.31s CPU      0.31s WALL (    2117 calls)

     Called by h_psi:
     h_psi:calbec :      7.95s CPU      7.99s WALL (    2881 calls)
     vloc_psi     :     96.70s CPU     97.66s WALL (    2881 calls)
     add_vuspsi   :      4.83s CPU      4.85s WALL (    2881 calls)

     General routines
     calbec       :     11.59s CPU     11.65s WALL (    4181 calls)
     fft          :     19.22s CPU     21.94s WALL (   13827 calls)
     ffts         :      0.23s CPU      0.24s WALL (     190 calls)
     fftw         :    101.00s CPU    101.95s WALL (  262098 calls)

     Parallel routines

     PWSCF        :   4m 7.99s CPU   4m19.52s WALL


   This run was terminated on:  15: 9:29   1Apr2026            

=------------------------------------------------------------------------------=
   JOB DONE.
=------------------------------------------------------------------------------=
