
     Program PWSCF v.7.3.1 starts on 26Mar2026 at 14:59:31 

     This program is part of the open-source Quantum ESPRESSO suite
     for quantum simulation of materials; please cite
         "P. Giannozzi et al., J. Phys.:Condens. Matter 21 395502 (2009);
         "P. Giannozzi et al., J. Phys.:Condens. Matter 29 465901 (2017);
         "P. Giannozzi et al., J. Chem. Phys. 152 154105 (2020);
          URL http://www.quantum-espresso.org", 
     in publications or presentations arising from this work. More details at
     http://www.quantum-espresso.org/quote

     Parallel version (MPI), running on   128 processors

     MPI processes distributed on     1 nodes
     242711 MiB available memory on the printing compute node when the environment starts

     Waiting for input...
     Reading input from standard input

     Current dimensions of program PWSCF are:
     Max number of different atomic species (ntypx) = 10
     Max number of k-points (npk) =  40000
     Max angular momentum in pseudopotentials (lmaxx) =  4

     IMPORTANT: XC functional enforced from input :
     Exchange-correlation= VDW-DF2
                           (   1   4  13   0   2   0   0)
     Any further DFT definition will be discarded
     Please, verify this is what you really want


     K-points division:     npool     =       4
     R & G space division:  proc/nbgrp/npool/nimage =      32
     Subspace diagonalization in iterative solution of the eigenvalue problem:
     a serial algorithm will be used


     Parallelization info
     --------------------
     sticks:   dense  smooth     PW     G-vecs:    dense   smooth      PW
     Min         186     186     54                 7949     7949    1255
     Max         187     187     55                 7951     7951    1258
     Sum        5977    5977   1751               254413   254413   40201

     Using Slab Decomposition



     bravais-lattice index     =            5
     lattice parameter (alat)  =      15.0549  a.u.
     unit-cell volume          =    2204.5887 (a.u.)^3
     number of atoms/cell      =           36
     number of atomic types    =            2
     number of electrons       =        96.00
     number of Kohn-Sham states=           48
     kinetic-energy cutoff     =      90.0000  Ry
     charge density cutoff     =     360.0000  Ry
     scf convergence threshold =      1.0E-07
     mixing beta               =       0.7000
     number of iterations used =            8  plain     mixing
     Exchange-correlation= VDW-DF2
                           (   1   4  13   0   2   0   0)

     celldm(1)=  15.054918  celldm(2)=   0.000000  celldm(3)=   0.000000
     celldm(4)=  -0.392337  celldm(5)=   0.000000  celldm(6)=   0.000000

     crystal axes: (cart. coord. in units of alat)
               a(1) = (   0.834367  -0.481722   0.267909 )  
               a(2) = (   0.000000   0.963444   0.267909 )  
               a(3) = (  -0.834367  -0.481722   0.267909 )  

     reciprocal axes: (cart. coord. in units 2 pi/alat)
               b(1) = (  0.599257 -0.345981  1.244203 )  
               b(2) = (  0.000000  0.691962  1.244203 )  
               b(3) = ( -0.599257 -0.345981  1.244203 )  


     PseudoPot. # 1 for H  read from file:
     ./H.pbe-van_ak.UPF
     MD5 check sum: 077eb6d537518a38cb46c6de387227b7
     Pseudo is Ultrasoft, Zval =  1.0
     Generated by new atomic code, or converted to UPF format
     Using radial grid of  615 points,  1 beta functions with: 
                l(1) =   0
     Q(r) pseudized with  8 coefficients,  rinner =    0.800

     PseudoPot. # 2 for O  read from file:
     ./O.pbe-van_ak.UPF
     MD5 check sum: 78c19812648e8988a0fe644b0f25305e
     Pseudo is Ultrasoft, Zval =  6.0
     Generated by new atomic code, or converted to UPF format
     Using radial grid of  737 points,  4 beta functions with: 
                l(1) =   0
                l(2) =   0
                l(3) =   1
                l(4) =   1
     Q(r) pseudized with  8 coefficients,  rinner =    0.800   0.800   0.800


     atomic species   valence    mass     pseudopotential
     H                 1.00     1.00800     H ( 1.00)
     O                 6.00    16.00000     O ( 1.00)

      6 Sym. Ops., with inversion, found



   Cartesian axes

     site n.     atom                  positions (alat units)
         1        O      tau(   1) = (  -0.4881587  -0.5153728   0.3102004  )
         2        O      tau(   2) = (   0.4881587   0.5153729   0.4935268  )
         3        O      tau(   3) = (   0.6904053  -0.1650714   0.3102004  )
         4        O      tau(   4) = (  -0.6904053   0.1650714   0.4935268  )
         5        O      tau(   5) = (  -0.2022466   0.6804442   0.3102004  )
         6        O      tau(   6) = (   0.2022466  -0.6804442   0.4935268  )
         7        O      tau(   7) = (   0.1208629   0.3351200   0.4137471  )
         8        O      tau(   8) = (  -0.1208629  -0.3351200   0.3899800  )
         9        O      tau(   9) = (  -0.3506539  -0.0628897   0.4137471  )
        10        O      tau(  10) = (   0.3506539   0.0628897   0.3899800  )
        11        O      tau(  11) = (   0.2297910  -0.2722304   0.4137471  )
        12        O      tau(  12) = (  -0.2297910   0.2722304   0.3899800  )
        13        H      tau(  13) = (  -0.5430428  -0.4102686   0.2622098  )
        14        H      tau(  14) = (   0.5430428   0.4102686   0.5415173  )
        15        H      tau(  15) = (   0.6268245  -0.2651546   0.2622098  )
        16        H      tau(  16) = (  -0.6268245   0.2651546   0.5415173  )
        17        H      tau(  17) = (  -0.0837816   0.6754232   0.2622098  )
        18        H      tau(  18) = (   0.0837817  -0.6754232   0.5415173  )
        19        H      tau(  19) = (  -0.4681736  -0.4859583   0.4327384  )
        20        H      tau(  20) = (   0.4681736   0.4859583   0.3709887  )
        21        H      tau(  21) = (   0.6549390  -0.1624711   0.4327384  )
        22        H      tau(  22) = (  -0.6549390   0.1624711   0.3709887  )
        23        H      tau(  23) = (  -0.1867654   0.6484294   0.4327384  )
        24        H      tau(  24) = (   0.1867654  -0.6484294   0.3709887  )
        25        H      tau(  25) = (   0.2718867  -0.1516220   0.4118766  )
        26        H      tau(  26) = (  -0.2718867   0.1516219   0.3918506  )
        27        H      tau(  27) = (  -0.0046349   0.3112717   0.4118766  )
        28        H      tau(  28) = (   0.0046349  -0.3112717   0.3918506  )
        29        H      tau(  29) = (  -0.2672518  -0.1596498   0.4118766  )
        30        H      tau(  30) = (   0.2672518   0.1596498   0.3918506  )
        31        H      tau(  31) = (   0.3136186  -0.3416266   0.3473301  )
        32        H      tau(  32) = (  -0.3136186   0.3416266   0.4563970  )
        33        H      tau(  33) = (   0.1390481   0.4424150   0.3473301  )
        34        H      tau(  34) = (  -0.1390480  -0.4424150   0.4563970  )
        35        H      tau(  35) = (  -0.4526667  -0.1007884   0.3473301  )
        36        H      tau(  36) = (   0.4526666   0.1007884   0.4563970  )

     number of k points=    14
                       cart. coord. in units 2pi/alat
        k(    1) = (   0.0000000   0.0000000   0.0000000), wk =   0.0312500
        k(    2) = (  -0.1498141  -0.0864952   0.3110508), wk =   0.1875000
        k(    3) = (   0.2996283   0.1729905  -0.6221017), wk =   0.0937500
        k(    4) = (  -0.1498141   0.0864952   0.6221017), wk =   0.1875000
        k(    5) = (   0.2996283   0.3459809  -0.3110508), wk =   0.1875000
        k(    6) = (   0.1498141   0.2594857   0.0000000), wk =   0.1875000
        k(    7) = (   0.2996283  -0.1729905  -1.2442034), wk =   0.0937500
        k(    8) = (   0.0000000   0.0000000   0.9331525), wk =   0.0625000
        k(    9) = (   0.4494424   0.2594857   0.0000000), wk =   0.1875000
        k(   10) = (   0.2996283   0.1729905   0.3110508), wk =   0.1875000
        k(   11) = (   0.4494424  -0.2594857  -0.9331525), wk =   0.1875000
        k(   12) = (   0.2996283  -0.3459809  -0.6221017), wk =   0.1875000
        k(   13) = (   0.0000000   0.0000000  -1.8663050), wk =   0.0312500
        k(   14) = (   0.2996283  -0.3459809   0.3110508), wk =   0.1875000

     Dense  grid:   254413 G-vectors     FFT dimensions: (  96,  96,  96)

     Estimated max dynamical RAM per process >      16.65 MB

     Estimated total dynamical RAM >       1.90 GB

     Initial potential from superposition of free atoms

     starting charge      95.9998, renormalised to      96.0000


     %%%%%%%%%%%%%%%%%%%%%%%%%%%%%%%%%%%%%%%%%%%%%%%%%%%%%%%%%%%%%%%%%%%%%%%%
     %                                                                      %
     % You are using vdW-DF, which was implemented by the Thonhauser group. %
     % Please cite the following two papers that made this development      %
     % possible and the two reviews that describe the various versions:     %
     %                                                                      %
     %   T. Thonhauser et al., PRL 115, 136402 (2015).                      %
     %   T. Thonhauser et al., PRB 76, 125112 (2007).                       %
     %   K. Berland et al., Rep. Prog. Phys. 78, 066501 (2015).             %
     %   D.C. Langreth et al., J. Phys.: Condens. Matter 21, 084203 (2009). %
     %                                                                      %
     % If you are calculating stress with vdW-DF, please also cite:         %
     %                                                                      %
     %   R. Sabatini et al., J. Phys.: Condens. Matter 24, 424209 (2012).   %
     %                                                                      %
     %%%%%%%%%%%%%%%%%%%%%%%%%%%%%%%%%%%%%%%%%%%%%%%%%%%%%%%%%%%%%%%%%%%%%%%%

     %%%%%%%%%%%%%%%%%%%%%%%%%%%%%%%%%%%%%%%%%%%%%%%%%%%%%%%%%%%%%%%%%%%%%%%%
     %                                                                      %
     %  vdW-DF NEWS:                                                        %
     %                                                                      %
     %  * vdW-DF3 is now available. DOI: 10.1021/acs.jctc.0c00471           %
     %    use with input_dft = 'vdW-DF3-opt1' or 'vdW-DF3-opt2'             %
     %                                                                      %
     %  * Unscreened and range-separated hybrid vdW-DF-cx functionals       %
     %    DOI: 10.1063/1.4986522 and 10.1088/1361-648X/ac2ad2               %
     %    use with input_dft = 'vdW-DF-cx0'    and 'vdW-DF-ahcx'            %
     %  * Unscreened and range-separated hybrid vdW-DF2-b86r functionals    %
     %    DOI: 10.1063/1.4986522 and DOI: 10.1103/PhysRevX.12.041003        %
     %    use with input_dft = 'vdW-DF2-br0' and 'vdW-DF2-ahbr'             %
     %                                                                      %
     %%%%%%%%%%%%%%%%%%%%%%%%%%%%%%%%%%%%%%%%%%%%%%%%%%%%%%%%%%%%%%%%%%%%%%%%


     Starting wfcs are   72 randomized atomic wfcs

     total cpu time spent up to now is        3.2 secs

     per-process dynamical memory:    20.7 Mb

     Self-consistent Calculation

     iteration #  1     ecut=    90.00 Ry     beta= 0.70
     Davidson diagonalization with overlap
     ethr =  1.00E-02,  avg # of iterations =  2.0

     negative rho (up, down):  7.061E-08 0.000E+00

     total cpu time spent up to now is        4.3 secs

     total energy              =    -415.93277281 Ry
     estimated scf accuracy    <       4.63796592 Ry

     iteration #  2     ecut=    90.00 Ry     beta= 0.70
     Davidson diagonalization with overlap
     ethr =  4.83E-03,  avg # of iterations =  3.0

     total cpu time spent up to now is        5.6 secs

     total energy              =    -417.43727609 Ry
     estimated scf accuracy    <       3.62758506 Ry

     iteration #  3     ecut=    90.00 Ry     beta= 0.70
     Davidson diagonalization with overlap
     ethr =  3.78E-03,  avg # of iterations =  2.0

     negative rho (up, down):  2.019E-08 0.000E+00

     total cpu time spent up to now is        6.7 secs

     total energy              =    -417.90701739 Ry
     estimated scf accuracy    <       0.16422729 Ry

     iteration #  4     ecut=    90.00 Ry     beta= 0.70
     Davidson diagonalization with overlap
     ethr =  1.71E-04,  avg # of iterations =  4.0

     negative rho (up, down):  3.375E-07 0.000E+00

     total cpu time spent up to now is        8.1 secs

     total energy              =    -418.03330740 Ry
     estimated scf accuracy    <       0.19793534 Ry

     iteration #  5     ecut=    90.00 Ry     beta= 0.70
     Davidson diagonalization with overlap
     ethr =  1.71E-04,  avg # of iterations =  2.0

     negative rho (up, down):  7.410E-07 0.000E+00

     total cpu time spent up to now is        9.0 secs

     total energy              =    -418.03725969 Ry
     estimated scf accuracy    <       0.03020870 Ry

     iteration #  6     ecut=    90.00 Ry     beta= 0.70
     Davidson diagonalization with overlap
     ethr =  3.15E-05,  avg # of iterations =  2.0

     negative rho (up, down):  1.053E-06 0.000E+00

     total cpu time spent up to now is       10.1 secs

     total energy              =    -418.04146391 Ry
     estimated scf accuracy    <       0.00300867 Ry

     iteration #  7     ecut=    90.00 Ry     beta= 0.70
     Davidson diagonalization with overlap
     ethr =  3.13E-06,  avg # of iterations =  3.0

     negative rho (up, down):  1.108E-06 0.000E+00

     total cpu time spent up to now is       11.2 secs

     total energy              =    -418.04336063 Ry
     estimated scf accuracy    <       0.00056050 Ry

     iteration #  8     ecut=    90.00 Ry     beta= 0.70
     Davidson diagonalization with overlap
     ethr =  5.84E-07,  avg # of iterations =  2.1

     negative rho (up, down):  8.936E-07 0.000E+00

     total cpu time spent up to now is       12.3 secs

     total energy              =    -418.04308500 Ry
     estimated scf accuracy    <       0.00152244 Ry

     iteration #  9     ecut=    90.00 Ry     beta= 0.70
     Davidson diagonalization with overlap
     ethr =  5.84E-07,  avg # of iterations =  1.1

     negative rho (up, down):  7.852E-07 0.000E+00

     total cpu time spent up to now is       13.1 secs

     total energy              =    -418.04285236 Ry
     estimated scf accuracy    <       0.00060875 Ry

     iteration # 10     ecut=    90.00 Ry     beta= 0.70
     Davidson diagonalization with overlap
     ethr =  5.84E-07,  avg # of iterations =  2.0

     negative rho (up, down):  7.969E-07 0.000E+00

     total cpu time spent up to now is       14.2 secs

     total energy              =    -418.04296382 Ry
     estimated scf accuracy    <       0.00001106 Ry

     iteration # 11     ecut=    90.00 Ry     beta= 0.70
     Davidson diagonalization with overlap
     ethr =  1.15E-08,  avg # of iterations =  3.1

     negative rho (up, down):  8.062E-07 0.000E+00

     total cpu time spent up to now is       15.3 secs

     total energy              =    -418.04296697 Ry
     estimated scf accuracy    <       0.00000470 Ry

     iteration # 12     ecut=    90.00 Ry     beta= 0.70
     Davidson diagonalization with overlap
     ethr =  4.89E-09,  avg # of iterations =  1.0

     negative rho (up, down):  7.976E-07 0.000E+00

     total cpu time spent up to now is       16.1 secs

     total energy              =    -418.04296458 Ry
     estimated scf accuracy    <       0.00000417 Ry

     iteration # 13     ecut=    90.00 Ry     beta= 0.70
     Davidson diagonalization with overlap
     ethr =  4.34E-09,  avg # of iterations =  2.1

     negative rho (up, down):  8.024E-07 0.000E+00

     total cpu time spent up to now is       17.2 secs

     total energy              =    -418.04296610 Ry
     estimated scf accuracy    <       0.00000029 Ry

     iteration # 14     ecut=    90.00 Ry     beta= 0.70
     Davidson diagonalization with overlap
     ethr =  3.01E-10,  avg # of iterations =  2.9

     negative rho (up, down):  8.057E-07 0.000E+00

     total cpu time spent up to now is       18.3 secs

     total energy              =    -418.04296601 Ry
     estimated scf accuracy    <       0.00000044 Ry

     iteration # 15     ecut=    90.00 Ry     beta= 0.70
     Davidson diagonalization with overlap
     ethr =  3.01E-10,  avg # of iterations =  2.0

     negative rho (up, down):  8.095E-07 0.000E+00

     total cpu time spent up to now is       19.2 secs

     End of self-consistent calculation

          k = 0.0000 0.0000 0.0000 ( 31795 PWs)   bands (ev):

   -21.2484 -20.8482 -20.8482 -20.6739 -20.6739 -20.6373 -20.6358 -20.6350
   -20.6350 -20.3836 -20.3836 -20.1183  -8.9033  -8.8335  -8.8335  -8.8145
    -8.7380  -8.7380  -8.4779  -8.4779  -8.4708  -8.4253  -8.4232  -8.4232
    -7.1738  -6.1926  -6.1926  -5.6373  -5.6373  -5.4808  -5.4808  -5.3295
    -5.2147  -4.5872  -4.5872  -3.8974  -3.4780  -3.4780  -3.4497  -3.3279
    -3.3279  -3.2955  -3.1997  -3.1997  -3.1613  -3.0980  -3.0499  -3.0499

          k =-0.1498-0.0865 0.3111 ( 31779 PWs)   bands (ev):

   -21.1853 -20.8844 -20.8404 -20.7909 -20.7591 -20.7011 -20.5960 -20.5574
   -20.5053 -20.3874 -20.3523 -20.1674  -8.8716  -8.8465  -8.8285  -8.7967
    -8.7323  -8.7054  -8.5288  -8.5057  -8.4954  -8.4179  -8.3657  -8.3609
    -7.0210  -6.3491  -6.2237  -5.9306  -5.7129  -5.4897  -5.3322  -5.2088
    -5.0542  -4.5804  -4.5251  -4.0397  -3.5501  -3.4892  -3.4629  -3.3871
    -3.3717  -3.3247  -3.2345  -3.1905  -3.1323  -3.1198  -3.0658  -3.0427

          k = 0.2996 0.1730-0.6221 ( 31820 PWs)   bands (ev):

   -21.0240 -21.0194 -20.8673 -20.8555 -20.7571 -20.7556 -20.5495 -20.5490
   -20.3968 -20.3853 -20.2876 -20.2858  -8.8531  -8.8389  -8.7994  -8.7985
    -8.7333  -8.6848  -8.5475  -8.5315  -8.5086  -8.4055  -8.3288  -8.3185
    -6.7054  -6.6095  -6.2189  -6.2105  -5.6969  -5.6386  -5.2159  -5.1331
    -4.7141  -4.6481  -4.4917  -4.2641  -3.6179  -3.5098  -3.4511  -3.4398
    -3.3878  -3.3580  -3.2790  -3.1943  -3.1748  -3.0995  -3.0509  -3.0338

          k =-0.1498 0.0865 0.6221 ( 31790 PWs)   bands (ev):

   -21.0593 -20.9385 -20.9263 -20.8235 -20.8010 -20.7452 -20.5571 -20.4886
   -20.4506 -20.3505 -20.3362 -20.2561  -8.8528  -8.8349  -8.8095  -8.7997
    -8.7281  -8.6754  -8.5459  -8.5377  -8.5227  -8.3769  -8.3450  -8.3202
    -6.7483  -6.4750  -6.4299  -6.0060  -5.8187  -5.6483  -5.2108  -4.9926
    -4.8801  -4.5629  -4.4997  -4.2802  -3.6028  -3.5356  -3.4462  -3.4225
    -3.3811  -3.3625  -3.2891  -3.1948  -3.1623  -3.0994  -3.0724  -3.0209

          k = 0.2996 0.3460-0.3111 ( 31781 PWs)   bands (ev):

   -21.1004 -20.9618 -20.8822 -20.8450 -20.7842 -20.7247 -20.5568 -20.4663
   -20.4520 -20.3833 -20.3298 -20.2403  -8.8570  -8.8513  -8.8170  -8.7823
    -8.7268  -8.7015  -8.5883  -8.5520  -8.5244  -8.3955  -8.3606  -8.3304
    -6.7586  -6.4583  -6.2775  -6.0488  -5.9875  -5.4995  -5.1325  -5.0421
    -4.8793  -4.6173  -4.4974  -4.2323  -3.5513  -3.5062  -3.4575  -3.4126
    -3.3681  -3.3105  -3.2542  -3.2276  -3.1401  -3.1375  -3.0618  -2.9850

          k = 0.1498 0.2595 0.0000 ( 31780 PWs)   bands (ev):

   -21.2017 -20.9111 -20.8628 -20.7692 -20.7425 -20.6762 -20.5987 -20.5403
   -20.5041 -20.3905 -20.3648 -20.1590  -8.8878  -8.8424  -8.8337  -8.7959
    -8.7354  -8.7282  -8.5525  -8.5256  -8.4879  -8.4331  -8.4080  -8.3642
    -7.0096  -6.2482  -6.1551  -5.9627  -5.9288  -5.3993  -5.2357  -5.1193
    -5.0933  -4.6216  -4.5778  -3.9980  -3.4816  -3.4693  -3.4629  -3.3739
    -3.3336  -3.3104  -3.2306  -3.2146  -3.1445  -3.1220  -3.0301  -3.0119

          k = 0.2996-0.1730-1.2442 ( 31798 PWs)   bands (ev):

   -21.0923 -21.0522 -20.8726 -20.8151 -20.7377 -20.7009 -20.5427 -20.5336
   -20.4254 -20.4190 -20.2678 -20.2611  -8.8677  -8.8488  -8.8241  -8.7843
    -8.7271  -8.7262  -8.6142  -8.5642  -8.5086  -8.4086  -8.4022  -8.3531
    -6.6163  -6.5870  -6.2426  -6.1124  -5.8713  -5.5244  -5.0587  -5.0448
    -4.8700  -4.7389  -4.3997  -4.2431  -3.4928  -3.4700  -3.4509  -3.4058
    -3.3411  -3.3100  -3.2599  -3.1978  -3.1956  -3.1124  -2.9991  -2.9960

          k = 0.0000 0.0000 0.9332 ( 31815 PWs)   bands (ev):

   -21.0069 -21.0069 -20.9313 -20.9113 -20.7488 -20.7488 -20.4895 -20.4895
   -20.3757 -20.3590 -20.3295 -20.3295  -8.8507  -8.8507  -8.8243  -8.7450
    -8.7450  -8.7271  -8.6208  -8.5511  -8.5511  -8.3443  -8.3443  -8.3237
    -6.5275  -6.5275  -6.4863  -6.1273  -5.7909  -5.7909  -4.9090  -4.9090
    -4.8375  -4.5575  -4.5575  -4.4484  -3.5120  -3.5120  -3.4280  -3.4091
    -3.3384  -3.3384  -3.3010  -3.1940  -3.1940  -3.1032  -3.1032  -2.9631

          k = 0.4494 0.2595 0.0000 ( 31782 PWs)   bands (ev):

   -21.1156 -20.9711 -20.9590 -20.8167 -20.6958 -20.6829 -20.5740 -20.5569
   -20.4194 -20.3604 -20.3359 -20.2327  -8.8652  -8.8428  -8.8354  -8.7759
    -8.7516  -8.6990  -8.6234  -8.5572  -8.5236  -8.4046  -8.3928  -8.3567
    -6.7285  -6.3439  -6.3028  -6.2154  -5.8331  -5.5183  -5.1399  -5.0596
    -4.7896  -4.6382  -4.5358  -4.2038  -3.4815  -3.4731  -3.4581  -3.3993
    -3.3580  -3.3160  -3.2446  -3.2202  -3.1757  -3.0897  -3.0352  -2.9803

          k = 0.2996 0.1730 0.3111 ( 31777 PWs)   bands (ev):

   -21.1414 -20.9203 -20.8537 -20.8372 -20.7744 -20.7125 -20.5710 -20.5259
   -20.4844 -20.3710 -20.3342 -20.2007  -8.8630  -8.8494  -8.8187  -8.7767
    -8.7389  -8.6820  -8.5655  -8.5179  -8.4897  -8.4523  -8.3978  -8.3442
    -6.8702  -6.3205  -6.2887  -6.0079  -5.9044  -5.4906  -5.2352  -5.0749
    -5.0139  -4.5680  -4.5160  -4.1048  -3.5710  -3.5007  -3.4762  -3.4253
    -3.3939  -3.2917  -3.2670  -3.1968  -3.1160  -3.1151  -3.0489  -3.0230

          k = 0.4494-0.2595-0.9332 ( 31769 PWs)   bands (ev):

   -21.0310 -21.0204 -20.9057 -20.8676 -20.7630 -20.6859 -20.6034 -20.5154
   -20.4098 -20.3526 -20.3171 -20.2543  -8.8553  -8.8349  -8.8246  -8.7588
    -8.7248  -8.6721  -8.5892  -8.5493  -8.5137  -8.4583  -8.3944  -8.3589
    -6.5776  -6.4756  -6.3352  -6.1290  -5.9266  -5.5215  -5.2820  -5.0050
    -4.7750  -4.5677  -4.5293  -4.2093  -3.5787  -3.5212  -3.4949  -3.4409
    -3.4162  -3.3127  -3.2247  -3.2065  -3.1350  -3.0988  -3.0301  -3.0093

          k = 0.2996-0.3460-0.6221 ( 31772 PWs)   bands (ev):

   -20.9934 -20.9858 -20.8980 -20.8887 -20.7768 -20.7761 -20.5333 -20.5308
   -20.3934 -20.3874 -20.2878 -20.2810  -8.8563  -8.8095  -8.7954  -8.7771
    -8.7590  -8.6368  -8.5777  -8.5355  -8.5033  -8.4363  -8.3588  -8.3477
    -6.5777  -6.5465  -6.2768  -6.2272  -5.7738  -5.7399  -5.1273  -5.0651
    -4.7323  -4.6986  -4.4513  -4.2413  -3.6384  -3.5244  -3.4919  -3.4873
    -3.4368  -3.3158  -3.2231  -3.2102  -3.1619  -3.0784  -3.0645  -3.0123

          k = 0.0000 0.0000-1.8663 ( 31764 PWs)   bands (ev):

   -20.9605 -20.9415 -20.8699 -20.8699 -20.8691 -20.8691 -20.4584 -20.4584
   -20.4434 -20.4434 -20.2811 -20.2675  -8.8558  -8.7763  -8.7763  -8.7713
    -8.7713  -8.6245  -8.5707  -8.5448  -8.4859  -8.4859  -8.3867  -8.3867
    -6.5657  -6.4242  -6.1040  -6.1040  -6.0259  -6.0259  -4.8864  -4.8864
    -4.8634  -4.8634  -4.4010  -4.2180  -3.6443  -3.5278  -3.5278  -3.5187
    -3.5187  -3.2647  -3.2294  -3.1452  -3.1452  -3.0948  -3.0948  -2.9846

          k = 0.2996-0.3460 0.3111 ( 31781 PWs)   bands (ev):

   -21.1005 -20.9599 -20.8876 -20.8420 -20.7832 -20.7244 -20.5557 -20.4717
   -20.4513 -20.3800 -20.3289 -20.2414  -8.8623  -8.8394  -8.8251  -8.7695
    -8.7377  -8.7026  -8.5981  -8.5474  -8.5198  -8.3915  -8.3541  -8.3397
    -6.7608  -6.4318  -6.3339  -6.0292  -5.9334  -5.5577  -5.2230  -4.9201
    -4.8067  -4.6731  -4.5555  -4.2054  -3.5603  -3.4948  -3.4495  -3.4059
    -3.3780  -3.3126  -3.2616  -3.2391  -3.1489  -3.1098  -3.0625  -2.9899

     highest occupied level (ev):    -2.9631

!    total energy              =    -418.04296596 Ry
     estimated scf accuracy    <       0.00000009 Ry

     The total energy is the sum of the following terms:
     one-electron contribution =    -302.39509539 Ry
     hartree contribution      =     185.02206749 Ry
     xc contribution           =    -105.30619575 Ry
     ewald contribution        =    -195.36374232 Ry

     convergence has been achieved in  15 iterations

     Forces acting on atoms (cartesian axes, Ry/au):

     atom    1 type  2   force =    -0.00879264    0.03255222    0.01870464
     atom    2 type  2   force =     0.00879264   -0.03255222   -0.01870464
     atom    3 type  2   force =    -0.02379473   -0.02389075    0.01870464
     atom    4 type  2   force =     0.02379473    0.02389075   -0.01870464
     atom    5 type  2   force =     0.03258736   -0.00866146    0.01870464
     atom    6 type  2   force =    -0.03258736    0.00866146   -0.01870464
     atom    7 type  2   force =    -0.02502387    0.01917223   -0.01550014
     atom    8 type  2   force =     0.02502387   -0.01917223    0.01550014
     atom    9 type  2   force =    -0.00409171   -0.03125742   -0.01550014
     atom   10 type  2   force =     0.00409171    0.03125742    0.01550014
     atom   11 type  2   force =     0.02911557    0.01208519   -0.01550014
     atom   12 type  2   force =    -0.02911557   -0.01208519    0.01550014
     atom   13 type  1   force =     0.01514651   -0.02693102    0.01435685
     atom   14 type  1   force =    -0.01514651    0.02693102   -0.01435685
     atom   15 type  1   force =     0.01574969    0.02658277    0.01435685
     atom   16 type  1   force =    -0.01574969   -0.02658277   -0.01435685
     atom   17 type  1   force =    -0.03089620    0.00034825    0.01435685
     atom   18 type  1   force =     0.03089620   -0.00034825   -0.01435685
     atom   19 type  1   force =    -0.00655048   -0.00626077   -0.03325501
     atom   20 type  1   force =     0.00655048    0.00626077    0.03325501
     atom   21 type  1   force =     0.00869723   -0.00254250   -0.03325501
     atom   22 type  1   force =    -0.00869723    0.00254250    0.03325501
     atom   23 type  1   force =    -0.00214675    0.00880327   -0.03325501
     atom   24 type  1   force =     0.00214675   -0.00880327    0.03325501
     atom   25 type  1   force =    -0.00899100   -0.03354902   -0.00093701
     atom   26 type  1   force =     0.00899100    0.03354902    0.00093701
     atom   27 type  1   force =     0.03354981    0.00898807   -0.00093701
     atom   28 type  1   force =    -0.03354981   -0.00898807    0.00093701
     atom   29 type  1   force =    -0.02455880    0.02456095   -0.00093701
     atom   30 type  1   force =     0.02455880   -0.02456095    0.00093701
     atom   31 type  1   force =    -0.02168605    0.02120642    0.01857755
     atom   32 type  1   force =     0.02168605   -0.02120642   -0.01857755
     atom   33 type  1   force =    -0.00752228   -0.02938388    0.01857755
     atom   34 type  1   force =     0.00752228    0.02938388   -0.01857755
     atom   35 type  1   force =     0.02920833    0.00817746    0.01857755
     atom   36 type  1   force =    -0.02920833   -0.00817746   -0.01857755

     Total force =     0.212726     Total SCF correction =     0.000262


     Computing stress (Cartesian axis) and pressure

          total   stress  (Ry/bohr**3)                   (kbar)     P=      -48.48
  -0.00033212  -0.00000000   0.00000000          -48.86       -0.00        0.00
   0.00000000  -0.00033212  -0.00000000            0.00      -48.86       -0.00
   0.00000000  -0.00000000  -0.00032453            0.00       -0.00      -47.74


     Writing all to output data dir ./iceII/iceII.save/ :
     XML data file, charge density, pseudopotentials, collected wavefunctions

     init_run     :      2.91s CPU      3.03s WALL (       1 calls)
     electrons    :     15.32s CPU     16.04s WALL (       1 calls)
     forces       :      0.15s CPU      0.15s WALL (       1 calls)
     stress       :      1.17s CPU      1.19s WALL (       1 calls)

     Called by init_run:
     wfcinit      :      0.37s CPU      0.38s WALL (       1 calls)
     potinit      :      1.69s CPU      1.78s WALL (       1 calls)
     hinit0       :      0.67s CPU      0.67s WALL (       1 calls)

     Called by electrons:
     c_bands      :     10.73s CPU     10.84s WALL (      15 calls)
     sum_band     :      1.74s CPU      1.75s WALL (      15 calls)
     v_of_rho     :      4.34s CPU      4.94s WALL (      16 calls)
     newd         :      0.07s CPU      0.07s WALL (      16 calls)
     mix_rho      :      0.07s CPU      0.07s WALL (      15 calls)
     vdW_kernel   :      1.51s CPU      1.53s WALL (       1 calls)

     Called by c_bands:
     init_us_2    :      0.21s CPU      0.21s WALL (     132 calls)
     cegterg      :     10.42s CPU     10.49s WALL (      60 calls)

     Called by *egterg:
     cdiaghg      :      0.74s CPU      0.75s WALL (     199 calls)
     h_psi        :      8.24s CPU      8.28s WALL (     203 calls)
     s_psi        :      0.35s CPU      0.36s WALL (     203 calls)
     g_psi        :      0.02s CPU      0.02s WALL (     139 calls)

     Called by h_psi:
     h_psi:calbec :      0.58s CPU      0.59s WALL (     203 calls)
     vloc_psi     :      7.24s CPU      7.28s WALL (     203 calls)
     add_vuspsi   :      0.35s CPU      0.35s WALL (     203 calls)

     General routines
     calbec       :      0.82s CPU      0.83s WALL (     283 calls)
     fft          :      2.11s CPU      2.46s WALL (    1028 calls)
     ffts         :      0.02s CPU      0.02s WALL (      15 calls)
     fftw         :      7.64s CPU      7.67s WALL (   19638 calls)

     Parallel routines

     PWSCF        :     19.84s CPU     21.08s WALL


   This run was terminated on:  14:59:52  26Mar2026            

=------------------------------------------------------------------------------=
   JOB DONE.
=------------------------------------------------------------------------------=
