
     Program PWSCF v.7.3.1 starts on  1Apr2026 at 15:23:26 

     This program is part of the open-source Quantum ESPRESSO suite
     for quantum simulation of materials; please cite
         "P. Giannozzi et al., J. Phys.:Condens. Matter 21 395502 (2009);
         "P. Giannozzi et al., J. Phys.:Condens. Matter 29 465901 (2017);
         "P. Giannozzi et al., J. Chem. Phys. 152 154105 (2020);
          URL http://www.quantum-espresso.org", 
     in publications or presentations arising from this work. More details at
     http://www.quantum-espresso.org/quote

     Parallel version (MPI), running on   128 processors

     MPI processes distributed on     1 nodes
     242588 MiB available memory on the printing compute node when the environment starts

     Waiting for input...
     Reading input from standard input

     Current dimensions of program PWSCF are:
     Max number of different atomic species (ntypx) = 10
     Max number of k-points (npk) =  40000
     Max angular momentum in pseudopotentials (lmaxx) =  4

     IMPORTANT: XC functional enforced from input :
     Exchange-correlation= VDW-DF2
                           (   1   4  13   0   2   0   0)
     Any further DFT definition will be discarded
     Please, verify this is what you really want


     K-points division:     npool     =       4
     R & G space division:  proc/nbgrp/npool/nimage =      32
     Subspace diagonalization in iterative solution of the eigenvalue problem:
     a serial algorithm will be used


     Parallelization info
     --------------------
     sticks:   dense  smooth     PW     G-vecs:    dense   smooth      PW
     Min         189     189     55                 8156     8156    1288
     Max         190     190     56                 8160     8160    1292
     Sum        6063    6063   1775               261049   261049   41269

     Using Slab Decomposition



     bravais-lattice index     =            5
     lattice parameter (alat)  =      15.1872  a.u.
     unit-cell volume          =    2263.2299 (a.u.)^3
     number of atoms/cell      =           36
     number of atomic types    =            2
     number of electrons       =        96.00
     number of Kohn-Sham states=           48
     kinetic-energy cutoff     =      90.0000  Ry
     charge density cutoff     =     360.0000  Ry
     scf convergence threshold =      1.0E-07
     mixing beta               =       0.7000
     number of iterations used =            8  plain     mixing
     energy convergence thresh.=      1.0E-04
     force convergence thresh. =      1.0E-03
     Exchange-correlation= VDW-DF2
                           (   1   4  13   0   2   0   0)
     nstep                     =           50


     celldm(1)=  15.187236  celldm(2)=   0.000000  celldm(3)=   0.000000
     celldm(4)=  -0.392337  celldm(5)=   0.000000  celldm(6)=   0.000000

     crystal axes: (cart. coord. in units of alat)
               a(1) = (   0.834367  -0.481722   0.267909 )  
               a(2) = (   0.000000   0.963444   0.267909 )  
               a(3) = (  -0.834367  -0.481722   0.267909 )  

     reciprocal axes: (cart. coord. in units 2 pi/alat)
               b(1) = (  0.599257 -0.345981  1.244203 )  
               b(2) = ( -0.000000  0.691962  1.244203 )  
               b(3) = ( -0.599257 -0.345981  1.244203 )  


     PseudoPot. # 1 for H  read from file:
     ./H.pbe-van_ak.UPF
     MD5 check sum: 077eb6d537518a38cb46c6de387227b7
     Pseudo is Ultrasoft, Zval =  1.0
     Generated by new atomic code, or converted to UPF format
     Using radial grid of  615 points,  1 beta functions with: 
                l(1) =   0
     Q(r) pseudized with  8 coefficients,  rinner =    0.800

     PseudoPot. # 2 for O  read from file:
     ./O.pbe-van_ak.UPF
     MD5 check sum: 78c19812648e8988a0fe644b0f25305e
     Pseudo is Ultrasoft, Zval =  6.0
     Generated by new atomic code, or converted to UPF format
     Using radial grid of  737 points,  4 beta functions with: 
                l(1) =   0
                l(2) =   0
                l(3) =   1
                l(4) =   1
     Q(r) pseudized with  8 coefficients,  rinner =    0.800   0.800   0.800


     atomic species   valence    mass     pseudopotential
     H                 1.00     1.00800     H ( 1.00)
     O                 6.00    16.00000     O ( 1.00)

      6 Sym. Ops., with inversion, found



   Cartesian axes

     site n.     atom                  positions (alat units)
         1        O      tau(   1) = (  -0.4847673  -0.5197781   0.3083633  )
         2        O      tau(   2) = (   0.4847673   0.5197782   0.4953638  )
         3        O      tau(   3) = (   0.6925247  -0.1599317   0.3083633  )
         4        O      tau(   4) = (  -0.6925248   0.1599317   0.4953638  )
         5        O      tau(   5) = (  -0.2077574   0.6797099   0.3083633  )
         6        O      tau(   6) = (   0.2077574  -0.6797099   0.4953638  )
         7        O      tau(   7) = (   0.1218176   0.3323883   0.4179381  )
         8        O      tau(   8) = (  -0.1218176  -0.3323883   0.3857890  )
         9        O      tau(   9) = (  -0.3487655  -0.0606970   0.4179381  )
        10        O      tau(  10) = (   0.3487655   0.0606970   0.3857890  )
        11        O      tau(  11) = (   0.2269479  -0.2716913   0.4179381  )
        12        O      tau(  12) = (  -0.2269479   0.2716912   0.3857890  )
        13        H      tau(  13) = (  -0.5381668  -0.4032014   0.2796970  )
        14        H      tau(  14) = (   0.5381668   0.4032014   0.5240301  )
        15        H      tau(  15) = (   0.6182661  -0.2644654   0.2796970  )
        16        H      tau(  16) = (  -0.6182661   0.2644654   0.5240301  )
        17        H      tau(  17) = (  -0.0800993   0.6676668   0.2796970  )
        18        H      tau(  18) = (   0.0800993  -0.6676668   0.5240301  )
        19        H      tau(  19) = (  -0.4872704  -0.4817221   0.4326731  )
        20        H      tau(  20) = (   0.4872704   0.4817221   0.3710540  )
        21        H      tau(  21) = (   0.6608188  -0.1811275   0.4326731  )
        22        H      tau(  22) = (  -0.6608188   0.1811275   0.3710540  )
        23        H      tau(  23) = (  -0.1735484   0.6628496   0.4326731  )
        24        H      tau(  24) = (   0.1735484  -0.6628496   0.3710540  )
        25        H      tau(  25) = (   0.2703349  -0.1502973   0.4058822  )
        26        H      tau(  26) = (  -0.2703350   0.1502973   0.3978449  )
        27        H      tau(  27) = (  -0.0050062   0.3092656   0.4058822  )
        28        H      tau(  28) = (   0.0050062  -0.3092656   0.3978449  )
        29        H      tau(  29) = (  -0.2653287  -0.1589683   0.4058822  )
        30        H      tau(  30) = (   0.2653287   0.1589683   0.3978449  )
        31        H      tau(  31) = (   0.3178939  -0.3347969   0.3493534  )
        32        H      tau(  32) = (  -0.3178939   0.3347969   0.4543737  )
        33        H      tau(  33) = (   0.1309957   0.4427026   0.3493534  )
        34        H      tau(  34) = (  -0.1309956  -0.4427026   0.4543737  )
        35        H      tau(  35) = (  -0.4488895  -0.1079057   0.3493534  )
        36        H      tau(  36) = (   0.4488895   0.1079057   0.4543737  )

     number of k points=    14
                       cart. coord. in units 2pi/alat
        k(    1) = (   0.0000000   0.0000000   0.0000000), wk =   0.0312500
        k(    2) = (  -0.1498141  -0.0864952   0.3110508), wk =   0.1875000
        k(    3) = (   0.2996283   0.1729905  -0.6221017), wk =   0.0937500
        k(    4) = (  -0.1498141   0.0864952   0.6221017), wk =   0.1875000
        k(    5) = (   0.2996283   0.3459809  -0.3110508), wk =   0.1875000
        k(    6) = (   0.1498141   0.2594857   0.0000000), wk =   0.1875000
        k(    7) = (   0.2996283  -0.1729905  -1.2442034), wk =   0.0937500
        k(    8) = (   0.0000000   0.0000000   0.9331525), wk =   0.0625000
        k(    9) = (   0.4494424   0.2594857   0.0000000), wk =   0.1875000
        k(   10) = (   0.2996283   0.1729905   0.3110508), wk =   0.1875000
        k(   11) = (   0.4494424  -0.2594857  -0.9331525), wk =   0.1875000
        k(   12) = (   0.2996283  -0.3459809  -0.6221017), wk =   0.1875000
        k(   13) = (   0.0000000   0.0000000  -1.8663050), wk =   0.0312500
        k(   14) = (   0.2996283  -0.3459809   0.3110508), wk =   0.1875000

     Dense  grid:   261049 G-vectors     FFT dimensions: (  96,  96,  96)

     Estimated max dynamical RAM per process >      16.99 MB

     Estimated total dynamical RAM >       1.94 GB

     Initial potential from superposition of free atoms

     starting charge      95.9998, renormalised to      96.0000


     %%%%%%%%%%%%%%%%%%%%%%%%%%%%%%%%%%%%%%%%%%%%%%%%%%%%%%%%%%%%%%%%%%%%%%%%
     %                                                                      %
     % You are using vdW-DF, which was implemented by the Thonhauser group. %
     % Please cite the following two papers that made this development      %
     % possible and the two reviews that describe the various versions:     %
     %                                                                      %
     %   T. Thonhauser et al., PRL 115, 136402 (2015).                      %
     %   T. Thonhauser et al., PRB 76, 125112 (2007).                       %
     %   K. Berland et al., Rep. Prog. Phys. 78, 066501 (2015).             %
     %   D.C. Langreth et al., J. Phys.: Condens. Matter 21, 084203 (2009). %
     %                                                                      %
     % If you are calculating stress with vdW-DF, please also cite:         %
     %                                                                      %
     %   R. Sabatini et al., J. Phys.: Condens. Matter 24, 424209 (2012).   %
     %                                                                      %
     %%%%%%%%%%%%%%%%%%%%%%%%%%%%%%%%%%%%%%%%%%%%%%%%%%%%%%%%%%%%%%%%%%%%%%%%

     %%%%%%%%%%%%%%%%%%%%%%%%%%%%%%%%%%%%%%%%%%%%%%%%%%%%%%%%%%%%%%%%%%%%%%%%
     %                                                                      %
     %  vdW-DF NEWS:                                                        %
     %                                                                      %
     %  * vdW-DF3 is now available. DOI: 10.1021/acs.jctc.0c00471           %
     %    use with input_dft = 'vdW-DF3-opt1' or 'vdW-DF3-opt2'             %
     %                                                                      %
     %  * Unscreened and range-separated hybrid vdW-DF-cx functionals       %
     %    DOI: 10.1063/1.4986522 and 10.1088/1361-648X/ac2ad2               %
     %    use with input_dft = 'vdW-DF-cx0'    and 'vdW-DF-ahcx'            %
     %  * Unscreened and range-separated hybrid vdW-DF2-b86r functionals    %
     %    DOI: 10.1063/1.4986522 and DOI: 10.1103/PhysRevX.12.041003        %
     %    use with input_dft = 'vdW-DF2-br0' and 'vdW-DF2-ahbr'             %
     %                                                                      %
     %%%%%%%%%%%%%%%%%%%%%%%%%%%%%%%%%%%%%%%%%%%%%%%%%%%%%%%%%%%%%%%%%%%%%%%%


     Starting wfcs are   72 randomized atomic wfcs

     total cpu time spent up to now is        3.2 secs

     per-process dynamical memory:    21.3 Mb

     Self-consistent Calculation

     iteration #  1     ecut=    90.00 Ry     beta= 0.70
     Davidson diagonalization with overlap
     ethr =  1.00E-02,  avg # of iterations =  2.0

     total cpu time spent up to now is        4.3 secs

     total energy              =    -415.85417252 Ry
     estimated scf accuracy    <       4.37028315 Ry

     iteration #  2     ecut=    90.00 Ry     beta= 0.70
     Davidson diagonalization with overlap
     ethr =  4.55E-03,  avg # of iterations =  3.0

     total cpu time spent up to now is        5.6 secs

     total energy              =    -417.26307371 Ry
     estimated scf accuracy    <       3.70177552 Ry

     iteration #  3     ecut=    90.00 Ry     beta= 0.70
     Davidson diagonalization with overlap
     ethr =  3.86E-03,  avg # of iterations =  2.0

     total cpu time spent up to now is        6.7 secs

     total energy              =    -417.73008435 Ry
     estimated scf accuracy    <       0.18240178 Ry

     iteration #  4     ecut=    90.00 Ry     beta= 0.70
     Davidson diagonalization with overlap
     ethr =  1.90E-04,  avg # of iterations =  4.0

     total cpu time spent up to now is        8.1 secs

     total energy              =    -417.86826444 Ry
     estimated scf accuracy    <       0.19229164 Ry

     iteration #  5     ecut=    90.00 Ry     beta= 0.70
     Davidson diagonalization with overlap
     ethr =  1.90E-04,  avg # of iterations =  1.0

     negative rho (up, down):  3.445E-08 0.000E+00

     total cpu time spent up to now is        9.0 secs

     total energy              =    -417.86861805 Ry
     estimated scf accuracy    <       0.03459700 Ry

     iteration #  6     ecut=    90.00 Ry     beta= 0.70
     Davidson diagonalization with overlap
     ethr =  3.60E-05,  avg # of iterations =  2.0

     negative rho (up, down):  7.940E-08 0.000E+00

     total cpu time spent up to now is       10.0 secs

     total energy              =    -417.87472373 Ry
     estimated scf accuracy    <       0.00201023 Ry

     iteration #  7     ecut=    90.00 Ry     beta= 0.70
     Davidson diagonalization with overlap
     ethr =  2.09E-06,  avg # of iterations =  2.0

     negative rho (up, down):  8.303E-08 0.000E+00

     total cpu time spent up to now is       11.1 secs

     total energy              =    -417.87526989 Ry
     estimated scf accuracy    <       0.00014250 Ry

     iteration #  8     ecut=    90.00 Ry     beta= 0.70
     Davidson diagonalization with overlap
     ethr =  1.48E-07,  avg # of iterations =  3.5

     negative rho (up, down):  5.420E-08 0.000E+00

     total cpu time spent up to now is       12.3 secs

     total energy              =    -417.87530247 Ry
     estimated scf accuracy    <       0.00012134 Ry

     iteration #  9     ecut=    90.00 Ry     beta= 0.70
     Davidson diagonalization with overlap
     ethr =  1.26E-07,  avg # of iterations =  2.1

     negative rho (up, down):  3.975E-08 0.000E+00

     total cpu time spent up to now is       13.4 secs

     total energy              =    -417.87525489 Ry
     estimated scf accuracy    <       0.00015502 Ry

     iteration # 10     ecut=    90.00 Ry     beta= 0.70
     Davidson diagonalization with overlap
     ethr =  1.26E-07,  avg # of iterations =  2.0

     negative rho (up, down):  4.462E-08 0.000E+00

     total cpu time spent up to now is       14.5 secs

     total energy              =    -417.87526897 Ry
     estimated scf accuracy    <       0.00000858 Ry

     iteration # 11     ecut=    90.00 Ry     beta= 0.70
     Davidson diagonalization with overlap
     ethr =  8.94E-09,  avg # of iterations =  3.4

     negative rho (up, down):  5.779E-08 0.000E+00

     total cpu time spent up to now is       15.8 secs

     total energy              =    -417.87527302 Ry
     estimated scf accuracy    <       0.00000365 Ry

     iteration # 12     ecut=    90.00 Ry     beta= 0.70
     Davidson diagonalization with overlap
     ethr =  3.80E-09,  avg # of iterations =  1.4

     negative rho (up, down):  6.309E-08 0.000E+00

     total cpu time spent up to now is       16.7 secs

     total energy              =    -417.87527290 Ry
     estimated scf accuracy    <       0.00000172 Ry

     iteration # 13     ecut=    90.00 Ry     beta= 0.70
     Davidson diagonalization with overlap
     ethr =  1.79E-09,  avg # of iterations =  1.0

     negative rho (up, down):  6.653E-08 0.000E+00

     total cpu time spent up to now is       17.5 secs

     total energy              =    -417.87527258 Ry
     estimated scf accuracy    <       0.00000109 Ry

     iteration # 14     ecut=    90.00 Ry     beta= 0.70
     Davidson diagonalization with overlap
     ethr =  1.14E-09,  avg # of iterations =  2.0

     negative rho (up, down):  6.769E-08 0.000E+00

     total cpu time spent up to now is       18.4 secs

     total energy              =    -417.87527255 Ry
     estimated scf accuracy    <       0.00000021 Ry

     iteration # 15     ecut=    90.00 Ry     beta= 0.70
     Davidson diagonalization with overlap
     ethr =  2.19E-10,  avg # of iterations =  2.6

     negative rho (up, down):  6.749E-08 0.000E+00

     total cpu time spent up to now is       19.6 secs

     End of self-consistent calculation

          k = 0.0000 0.0000 0.0000 ( 32605 PWs)   bands (ev):

   -21.2287 -20.8477 -20.8477 -20.6600 -20.6600 -20.6348 -20.6348 -20.6258
   -20.6222 -20.3714 -20.3714 -20.1096  -8.6828  -8.5024  -8.4381  -8.4381
    -8.3826  -8.3826  -7.9602  -7.8318  -7.8318  -7.6263  -7.6263  -7.5061
    -7.4499  -6.6583  -6.6583  -6.1241  -6.1241  -6.0307  -6.0307  -5.7772
    -5.6022  -4.9967  -4.9967  -4.3653  -3.5827  -3.5827  -3.4965  -3.4163
    -3.3762  -3.3762  -3.2453  -3.2453  -3.2394  -3.2232  -3.1771  -3.1771

          k =-0.1498-0.0865 0.3111 ( 32623 PWs)   bands (ev):

   -21.1667 -20.8824 -20.8382 -20.7804 -20.7583 -20.6976 -20.5788 -20.5423
   -20.4973 -20.3761 -20.3413 -20.1596  -8.6337  -8.5576  -8.4863  -8.4487
    -8.3626  -8.3047  -7.9562  -7.7993  -7.7878  -7.6583  -7.5477  -7.5112
    -7.3351  -6.7896  -6.6739  -6.4204  -6.1163  -6.0127  -5.8728  -5.6693
    -5.6137  -4.9897  -4.9304  -4.4953  -3.6840  -3.6197  -3.5169  -3.4588
    -3.4102  -3.3830  -3.3425  -3.2815  -3.2281  -3.1883  -3.1631  -3.1207

          k = 0.2996 0.1730-0.6221 ( 32598 PWs)   bands (ev):

   -21.0085 -21.0038 -20.8627 -20.8578 -20.7571 -20.7570 -20.5299 -20.5263
   -20.3810 -20.3789 -20.2860 -20.2749  -8.6102  -8.5594  -8.4805  -8.4609
    -8.3638  -8.3074  -7.9082  -7.8000  -7.7622  -7.6670  -7.4746  -7.4734
    -7.1238  -6.9935  -6.7227  -6.5685  -6.1265  -6.0484  -5.8742  -5.7277
    -5.2373  -5.1106  -4.8724  -4.6585  -3.7756  -3.6373  -3.5374  -3.5103
    -3.4458  -3.4293  -3.3475  -3.2967  -3.2716  -3.1572  -3.1463  -3.0797

          k =-0.1498 0.0865 0.6221 ( 32608 PWs)   bands (ev):

   -21.0416 -20.9276 -20.9207 -20.8217 -20.8013 -20.7460 -20.5369 -20.4692
   -20.4399 -20.3416 -20.3259 -20.2516  -8.6175  -8.5364  -8.5221  -8.4214
    -8.3801  -8.2972  -7.9113  -7.8312  -7.7854  -7.5778  -7.5174  -7.4690
    -7.1283  -6.9330  -6.8468  -6.4183  -6.2585  -6.0901  -5.8022  -5.6141
    -5.4180  -4.9568  -4.9357  -4.6674  -3.7564  -3.6742  -3.5272  -3.4874
    -3.4560  -3.4089  -3.3716  -3.2932  -3.2660  -3.1657  -3.1489  -3.0747

          k = 0.2996 0.3460-0.3111 ( 32621 PWs)   bands (ev):

   -21.0852 -20.9544 -20.8705 -20.8417 -20.7799 -20.7193 -20.5411 -20.4551
   -20.4449 -20.3752 -20.3212 -20.2301  -8.6225  -8.6032  -8.4633  -8.4401
    -8.3885  -8.3017  -7.9390  -7.8875  -7.7726  -7.5489  -7.5209  -7.4603
    -7.2389  -6.9696  -6.7510  -6.4272  -6.4019  -5.9485  -5.7764  -5.5272
    -5.3172  -5.1035  -4.9113  -4.6445  -3.6804  -3.6167  -3.5416  -3.4774
    -3.4273  -3.3830  -3.3273  -3.3200  -3.2460  -3.2062  -3.1525  -3.0637

          k = 0.1498 0.2595 0.0000 ( 32622 PWs)   bands (ev):

   -21.1837 -20.9079 -20.8622 -20.7547 -20.7310 -20.6623 -20.5953 -20.5348
   -20.5013 -20.3800 -20.3512 -20.1494  -8.6680  -8.5686  -8.4785  -8.4445
    -8.3372  -8.3316  -8.0020  -7.8833  -7.7137  -7.6309  -7.5759  -7.4740
    -7.4500  -6.7774  -6.6576  -6.4095  -6.3045  -5.8957  -5.7737  -5.6509
    -5.4819  -5.0617  -4.9723  -4.4585  -3.5829  -3.5671  -3.5266  -3.4450
    -3.4087  -3.3843  -3.2842  -3.2674  -3.2420  -3.2298  -3.1393  -3.1271

          k = 0.2996-0.1730-1.2442 ( 32676 PWs)   bands (ev):

   -21.0752 -21.0450 -20.8730 -20.7982 -20.7295 -20.6846 -20.5475 -20.5220
   -20.4238 -20.4094 -20.2586 -20.2465  -8.6466  -8.6138  -8.4921  -8.4628
    -8.3098  -8.3093  -7.9978  -7.9379  -7.6934  -7.6546  -7.4931  -7.4562
    -7.1838  -7.1407  -6.7178  -6.5105  -6.2205  -6.0126  -5.6659  -5.4172
    -5.3255  -5.2378  -4.8329  -4.6590  -3.5951  -3.5530  -3.5427  -3.4783
    -3.4077  -3.3628  -3.3398  -3.2774  -3.2672  -3.2272  -3.1096  -3.0952

          k = 0.0000 0.0000 0.9332 ( 32652 PWs)   bands (ev):

   -20.9950 -20.9950 -20.9282 -20.8941 -20.7465 -20.7465 -20.4775 -20.4775
   -20.3701 -20.3493 -20.3195 -20.3195  -8.6032  -8.6032  -8.4812  -8.3864
    -8.3864  -8.3706  -7.9473  -7.8569  -7.8569  -7.4675  -7.4675  -7.4340
    -7.0628  -7.0537  -7.0537  -6.4486  -6.1848  -6.1848  -5.5865  -5.4009
    -5.4009  -4.9725  -4.9725  -4.8106  -3.6293  -3.6293  -3.5224  -3.4693
    -3.4015  -3.4015  -3.3573  -3.2953  -3.2953  -3.1918  -3.1918  -3.0429

          k = 0.4494 0.2595 0.0000 ( 32660 PWs)   bands (ev):

   -21.1004 -20.9609 -20.9568 -20.7999 -20.6835 -20.6779 -20.5623 -20.5558
   -20.4244 -20.3487 -20.3215 -20.2212  -8.6431  -8.6022  -8.5433  -8.4043
    -8.3507  -8.2907  -8.0137  -7.8940  -7.7765  -7.5611  -7.5179  -7.4729
    -7.2748  -6.9361  -6.8638  -6.4631  -6.2428  -6.0050  -5.5848  -5.5498
    -5.3643  -5.0685  -4.9355  -4.6333  -3.5800  -3.5736  -3.5326  -3.4816
    -3.4239  -3.3728  -3.3115  -3.2908  -3.2471  -3.2074  -3.1539  -3.0795

          k = 0.2996 0.1730 0.3111 ( 32644 PWs)   bands (ev):

   -21.1247 -20.9191 -20.8472 -20.8315 -20.7589 -20.7107 -20.5530 -20.5250
   -20.4694 -20.3651 -20.3225 -20.1915  -8.6427  -8.5874  -8.5113  -8.3990
    -8.3935  -8.2611  -7.9708  -7.8592  -7.6952  -7.6312  -7.5896  -7.5036
    -7.2638  -6.7949  -6.6404  -6.5542  -6.3347  -6.0318  -5.7621  -5.5786
    -5.4198  -5.0584  -4.9178  -4.5389  -3.6975  -3.6253  -3.5607  -3.5075
    -3.4237  -3.3880  -3.3208  -3.2907  -3.2183  -3.1808  -3.1284  -3.1114

          k = 0.4494-0.2595-0.9332 ( 32643 PWs)   bands (ev):

   -21.0157 -21.0151 -20.8990 -20.8591 -20.7493 -20.6843 -20.5858 -20.5141
   -20.3968 -20.3497 -20.3083 -20.2410  -8.6676  -8.5780  -8.5398  -8.4051
    -8.3629  -8.2423  -8.0095  -7.8177  -7.7121  -7.6612  -7.5343  -7.5100
    -7.0337  -6.9933  -6.7044  -6.5645  -6.3921  -6.1127  -5.7233  -5.4635
    -5.1680  -5.1538  -4.9612  -4.6008  -3.7006  -3.6420  -3.6091  -3.5060
    -3.4754  -3.4035  -3.2763  -3.2564  -3.2300  -3.1928  -3.1298  -3.0800

          k = 0.2996-0.3460-0.6221 ( 32634 PWs)   bands (ev):

   -20.9791 -20.9762 -20.8897 -20.8853 -20.7739 -20.7731 -20.5165 -20.5130
   -20.3853 -20.3802 -20.2801 -20.2712  -8.6804  -8.5014  -8.4732  -8.4550
    -8.4231  -8.2465  -7.9352  -7.8279  -7.6945  -7.6514  -7.5164  -7.5113
    -7.0022  -6.8818  -6.7369  -6.6168  -6.3226  -6.2875  -5.6505  -5.5823
    -5.1786  -5.1364  -4.9819  -4.5869  -3.8051  -3.6547  -3.6080  -3.5431
    -3.4958  -3.3771  -3.3159  -3.2796  -3.2620  -3.1506  -3.1351  -3.0641

          k = 0.0000 0.0000-1.8663 ( 32622 PWs)   bands (ev):

   -20.9505 -20.9477 -20.8623 -20.8623 -20.8521 -20.8521 -20.4515 -20.4515
   -20.4320 -20.4320 -20.2674 -20.2619  -8.7231  -8.4683  -8.4683  -8.4482
    -8.4482  -8.2175  -7.9780  -7.8245  -7.6107  -7.6107  -7.5787  -7.5787
    -6.8492  -6.6687  -6.6357  -6.6357  -6.6057  -6.6057  -5.4524  -5.4524
    -5.2064  -5.2064  -5.0130  -4.5392  -3.8343  -3.6555  -3.6555  -3.5732
    -3.5732  -3.3307  -3.3097  -3.2260  -3.2260  -3.1622  -3.1622  -3.0416

          k = 0.2996-0.3460 0.3111 ( 32621 PWs)   bands (ev):

   -21.0850 -20.9552 -20.8692 -20.8433 -20.7778 -20.7200 -20.5412 -20.4637
   -20.4349 -20.3797 -20.3173 -20.2314  -8.6385  -8.5708  -8.4942  -8.4418
    -8.3603  -8.3089  -7.9802  -7.8588  -7.7512  -7.5832  -7.4883  -7.4790
    -7.2337  -6.9066  -6.8360  -6.4834  -6.2568  -6.0062  -5.8501  -5.4500
    -5.3005  -5.0857  -4.9749  -4.6260  -3.6873  -3.5920  -3.5569  -3.4715
    -3.4332  -3.3893  -3.3245  -3.3217  -3.2627  -3.1789  -3.1532  -3.0711

     highest occupied level (ev):    -3.0416

!    total energy              =    -417.87527263 Ry
     estimated scf accuracy    <       0.00000002 Ry

     The total energy is the sum of the following terms:
     one-electron contribution =    -302.94473136 Ry
     hartree contribution      =     184.94205284 Ry
     xc contribution           =    -104.76650297 Ry
     ewald contribution        =    -195.10609115 Ry

     convergence has been achieved in  15 iterations

     Forces acting on atoms (cartesian axes, Ry/au):

     atom    1 type  2   force =    -0.04945770    0.11301108    0.06407343
     atom    2 type  2   force =     0.04945770   -0.11301108   -0.06407343
     atom    3 type  2   force =    -0.07314162   -0.09933716    0.06407343
     atom    4 type  2   force =     0.07314162    0.09933716   -0.06407343
     atom    5 type  2   force =     0.12259932   -0.01367392    0.06407343
     atom    6 type  2   force =    -0.12259932    0.01367392   -0.06407343
     atom    7 type  2   force =    -0.07005542    0.05229442   -0.04762921
     atom    8 type  2   force =     0.07005542   -0.05229442    0.04762921
     atom    9 type  2   force =    -0.01026059   -0.08681698   -0.04762921
     atom   10 type  2   force =     0.01026059    0.08681698    0.04762921
     atom   11 type  2   force =     0.08031601    0.03452256   -0.04762921
     atom   12 type  2   force =    -0.08031601   -0.03452256    0.04762921
     atom   13 type  1   force =     0.02137451   -0.06402767   -0.03764017
     atom   14 type  1   force =    -0.02137451    0.06402767    0.03764017
     atom   15 type  1   force =     0.04476234    0.05052470   -0.03764017
     atom   16 type  1   force =    -0.04476234   -0.05052470    0.03764017
     atom   17 type  1   force =    -0.06613685    0.01350297   -0.03764017
     atom   18 type  1   force =     0.06613685   -0.01350297    0.03764017
     atom   19 type  1   force =     0.02832680   -0.05503351   -0.03585142
     atom   20 type  1   force =    -0.02832680    0.05503351    0.03585142
     atom   21 type  1   force =     0.03349702    0.05204848   -0.03585142
     atom   22 type  1   force =    -0.03349702   -0.05204848    0.03585142
     atom   23 type  1   force =    -0.06182382    0.00298503   -0.03585142
     atom   24 type  1   force =     0.06182382   -0.00298503    0.03585142
     atom   25 type  1   force =    -0.02752595   -0.04842536    0.01535089
     atom   26 type  1   force =     0.02752595    0.04842536   -0.01535089
     atom   27 type  1   force =     0.05570057    0.00037450    0.01535089
     atom   28 type  1   force =    -0.05570057   -0.00037450   -0.01535089
     atom   29 type  1   force =    -0.02817461    0.04805085    0.01535089
     atom   30 type  1   force =     0.02817461   -0.04805085   -0.01535089
     atom   31 type  1   force =    -0.05807756    0.01536465    0.03882002
     atom   32 type  1   force =     0.05807756   -0.01536465   -0.03882002
     atom   33 type  1   force =     0.01573260   -0.05797897    0.03882002
     atom   34 type  1   force =    -0.01573260    0.05797897   -0.03882002
     atom   35 type  1   force =     0.04234496    0.04261431    0.03882002
     atom   36 type  1   force =    -0.04234496   -0.04261431   -0.03882002

     Total force =     0.540988     Total SCF correction =     0.000129


     Computing stress (Cartesian axis) and pressure

          total   stress  (Ry/bohr**3)                   (kbar)     P=      -77.11
  -0.00060182  -0.00000000   0.00000000          -88.53       -0.00        0.00
   0.00000000  -0.00060182  -0.00000000            0.00      -88.53       -0.00
  -0.00000000  -0.00000000  -0.00036884           -0.00       -0.00      -54.26


     BFGS Geometry Optimization
     Energy error            =      0.0E+00 Ry
     Gradient error          =      1.2E-01 Ry/Bohr

     number of scf cycles    =   1
     number of bfgs steps    =   0

     energy             new  =    -417.8752726296 Ry

     new trust radius        =       0.1390070966 bohr
     new conv_thr            =       0.0000001000 Ry


ATOMIC_POSITIONS (crystal)
O                0.2737231651        0.0343981880        0.8586261298
O                0.7262768349        0.9656018230        0.1413738402
O                0.8586261298        0.2737231651        0.0343981880
O                0.1413738402        0.7262768349        0.9656018230
O                0.0343981880        0.8586261298        0.2737231651
O                0.9656018230        0.1413738402        0.7262768349
O                0.4701424349        0.7484806530        0.3296709172
O                0.5298575651        0.2515193470        0.6703290528
O                0.3296709172        0.4701424349        0.7484806530
O                0.6703290528        0.5298575651        0.2515193470
O                0.7484806530        0.3296709172        0.4701424349
O                0.2515193470        0.6703290528        0.5298575651
H                0.1642183733        0.0629991212        0.8075315814
H                0.8357816127        0.9370008708        0.1924684186
H                0.8075315814        0.1642183733        0.0629991212
H                0.1924684186        0.8357816127        0.9370008708
H                0.0629991212        0.8075315814        0.1642183733
H                0.9370008708        0.1924684186        0.8357816127
H                0.4124343224        0.1995554557        0.9941988811
H                0.5875656776        0.8004445593        0.0058010979
H                0.9941988811        0.4124343224        0.1995554557
H                0.0058010979        0.5875656776        0.8004445593
H                0.1995554557        0.9941988811        0.4124343224
H                0.8004445593        0.0058010979        0.5875656776
H                0.7202746561        0.4000512445        0.3984469182
H                0.2797253439        0.5999487255        0.6015531118
H                0.3984469182        0.7202746561        0.4000512445
H                0.6015531118        0.2797253439        0.5999487255
H                0.4000512445        0.3984469182        0.7202746561
H                0.5999487255        0.6015531118        0.2797253439
H                0.7415386577        0.2068803417        0.3651219125
H                0.2584613423        0.7931196433        0.6348780875
H                0.3651219125        0.7415386577        0.2068803417
H                0.6348780875        0.2584613423        0.7931196433
H                0.2068803417        0.3651219125        0.7415386577
H                0.7931196433        0.6348780875        0.2584613423



     Writing config-only to output data dir ./iceII/iceII.save/ :
     XML data file
     NEW-OLD atomic charge density approx. for the potential

     negative rho (up, down):  1.109E-07 0.000E+00

     total cpu time spent up to now is       21.3 secs

     per-process dynamical memory:    20.7 Mb

     Self-consistent Calculation

     iteration #  1     ecut=    90.00 Ry     beta= 0.70
     Davidson diagonalization with overlap
     ethr =  1.00E-06,  avg # of iterations = 10.0

     negative rho (up, down):  1.004E-07 0.000E+00

     total cpu time spent up to now is       24.1 secs

     total energy              =    -417.97802753 Ry
     estimated scf accuracy    <       0.10458836 Ry

     iteration #  2     ecut=    90.00 Ry     beta= 0.70
     Davidson diagonalization with overlap
     ethr =  1.09E-04,  avg # of iterations =  3.0

     negative rho (up, down):  6.375E-08 0.000E+00

     total cpu time spent up to now is       25.3 secs

     total energy              =    -418.00748145 Ry
     estimated scf accuracy    <       0.05016825 Ry

     iteration #  3     ecut=    90.00 Ry     beta= 0.70
     Davidson diagonalization with overlap
     ethr =  5.23E-05,  avg # of iterations =  2.0

     negative rho (up, down):  3.404E-08 0.000E+00

     total cpu time spent up to now is       26.3 secs

     total energy              =    -418.01556714 Ry
     estimated scf accuracy    <       0.00133867 Ry

     iteration #  4     ecut=    90.00 Ry     beta= 0.70
     Davidson diagonalization with overlap
     ethr =  1.39E-06,  avg # of iterations =  4.4

     negative rho (up, down):  4.412E-08 0.000E+00

     total cpu time spent up to now is       27.8 secs

     total energy              =    -418.01665037 Ry
     estimated scf accuracy    <       0.00186784 Ry

     iteration #  5     ecut=    90.00 Ry     beta= 0.70
     Davidson diagonalization with overlap
     ethr =  1.39E-06,  avg # of iterations =  2.1

     negative rho (up, down):  4.990E-08 0.000E+00

     total cpu time spent up to now is       28.8 secs

     total energy              =    -418.01675423 Ry
     estimated scf accuracy    <       0.00019200 Ry

     iteration #  6     ecut=    90.00 Ry     beta= 0.70
     Davidson diagonalization with overlap
     ethr =  2.00E-07,  avg # of iterations =  3.4

     negative rho (up, down):  4.564E-08 0.000E+00

     total cpu time spent up to now is       30.3 secs

     total energy              =    -418.01684038 Ry
     estimated scf accuracy    <       0.00015486 Ry

     iteration #  7     ecut=    90.00 Ry     beta= 0.70
     Davidson diagonalization with overlap
     ethr =  1.61E-07,  avg # of iterations =  2.0

     negative rho (up, down):  4.480E-08 0.000E+00

     total cpu time spent up to now is       31.3 secs

     total energy              =    -418.01686233 Ry
     estimated scf accuracy    <       0.00000648 Ry

     iteration #  8     ecut=    90.00 Ry     beta= 0.70
     Davidson diagonalization with overlap
     ethr =  6.75E-09,  avg # of iterations =  3.5

     negative rho (up, down):  4.475E-08 0.000E+00

     total cpu time spent up to now is       32.6 secs

     End of self-consistent calculation

          k = 0.0000 0.0000 0.0000 ( 32605 PWs)   bands (ev):

   -21.8290 -21.5074 -21.5074 -21.3145 -21.3145 -21.3011 -21.3011 -21.2916
   -21.2888 -21.0598 -21.0598 -20.8483  -9.3971  -9.2365  -9.1848  -9.1848
    -9.1622  -9.1622  -8.7205  -8.7205  -8.6294  -8.6245  -8.6245  -8.5047
    -7.4633  -6.5523  -6.5523  -5.9841  -5.9841  -5.9590  -5.9590  -5.7130
    -5.6507  -5.0389  -5.0389  -4.4560  -3.7382  -3.7382  -3.7218  -3.5448
    -3.5448  -3.5250  -3.3995  -3.3755  -3.3755  -3.3596  -3.2927  -3.2927

          k =-0.1498-0.0865 0.3111 ( 32623 PWs)   bands (ev):

   -21.7743 -21.5313 -21.5050 -21.4166 -21.4030 -21.3641 -21.2468 -21.2116
   -21.1811 -21.0672 -21.0381 -20.8881  -9.3631  -9.2557  -9.2157  -9.2087
    -9.1495  -9.1038  -8.7314  -8.7067  -8.6419  -8.5883  -8.5755  -8.5422
    -7.3090  -6.6791  -6.5865  -6.2895  -6.0751  -5.8868  -5.8060  -5.6133
    -5.5552  -5.0379  -4.9706  -4.5649  -3.8268  -3.7677  -3.7164  -3.5787
    -3.5743  -3.5452  -3.4889  -3.4132  -3.3546  -3.3172  -3.2903  -3.2492

          k = 0.2996 0.1730-0.6221 ( 32598 PWs)   bands (ev):

   -21.6532 -21.6113 -21.5316 -21.4701 -21.4296 -21.4034 -21.2153 -21.1795
   -21.0979 -21.0617 -21.0130 -20.9644  -9.3063  -9.2885  -9.2398  -9.2035
    -9.1455  -9.0893  -8.7200  -8.6904  -8.6308  -8.6189  -8.5428  -8.5323
    -7.0200  -6.8890  -6.6384  -6.4823  -6.0830  -5.9895  -5.7376  -5.5832
    -5.2378  -5.1137  -4.9154  -4.7184  -3.9038  -3.7825  -3.7024  -3.6469
    -3.6048  -3.5892  -3.4795  -3.4253  -3.4239  -3.2807  -3.2730  -3.2105

          k =-0.1498 0.0865 0.6221 ( 32608 PWs)   bands (ev):

   -21.6676 -21.5658 -21.5577 -21.4689 -21.4420 -21.4055 -21.2066 -21.1588
   -21.1228 -21.0463 -21.0323 -20.9567  -9.3096  -9.2757  -9.2613  -9.1809
    -9.1565  -9.0882  -8.7154  -8.6960  -8.6549  -8.5792  -8.5545  -8.5359
    -7.0489  -6.7891  -6.7585  -6.3577  -6.1778  -6.0335  -5.6746  -5.5138
    -5.3621  -5.0002  -4.9733  -4.7218  -3.8862  -3.8150  -3.6888  -3.6476
    -3.6152  -3.5419  -3.5177  -3.4345  -3.4012  -3.2882  -3.2768  -3.2056

          k = 0.2996 0.3460-0.3111 ( 32621 PWs)   bands (ev):

   -21.7038 -21.6004 -21.5205 -21.4716 -21.4160 -21.3803 -21.2106 -21.1702
   -21.1272 -21.0628 -21.0237 -20.9397  -9.3313  -9.3006  -9.2252  -9.1909
    -9.1508  -9.0819  -8.7731  -8.7492  -8.6771  -8.5637  -8.5361  -8.5193
    -7.0783  -6.8199  -6.6046  -6.3922  -6.3326  -5.9209  -5.6173  -5.5141
    -5.3208  -5.1078  -4.9460  -4.6905  -3.8279  -3.7700  -3.7121  -3.6519
    -3.5645  -3.5199  -3.4792  -3.4555  -3.3820  -3.3281  -3.2803  -3.1911

          k = 0.1498 0.2595 0.0000 ( 32622 PWs)   bands (ev):

   -21.7898 -21.5595 -21.5196 -21.3979 -21.3703 -21.3088 -21.2796 -21.2172
   -21.1964 -21.0667 -21.0379 -20.8790  -9.3782  -9.2679  -9.2146  -9.2077
    -9.1252  -9.1126  -8.7917  -8.7530  -8.6367  -8.6126  -8.5688  -8.5052
    -7.3187  -6.6377  -6.5398  -6.3225  -6.2121  -5.8559  -5.7152  -5.5714
    -5.5085  -5.0838  -5.0113  -4.5301  -3.7437  -3.7286  -3.7263  -3.6091
    -3.5493  -3.5246  -3.4201  -3.4009  -3.3948  -3.3533  -3.2618  -3.2504

          k = 0.2996-0.1730-1.2442 ( 32676 PWs)   bands (ev):

   -21.6925 -21.6764 -21.5304 -21.4314 -21.3800 -21.3182 -21.2540 -21.1987
   -21.1425 -21.0791 -20.9730 -20.9463  -9.3408  -9.3153  -9.2240  -9.2148
    -9.1030  -9.0854  -8.8374  -8.7821  -8.6471  -8.6064  -8.5259  -8.5131
    -6.9804  -6.9540  -6.5558  -6.4885  -6.1604  -5.9766  -5.6176  -5.4459
    -5.3065  -5.2221  -4.8698  -4.6946  -3.7585  -3.7235  -3.7174  -3.6551
    -3.5565  -3.4944  -3.4687  -3.4304  -3.3921  -3.3512  -3.2347  -3.2246

          k = 0.0000 0.0000 0.9332 ( 32652 PWs)   bands (ev):

   -21.6239 -21.6239 -21.6006 -21.4891 -21.3985 -21.3985 -21.1640 -21.1640
   -21.1168 -21.0218 -21.0218 -21.0041  -9.3074  -9.3074  -9.2609  -9.1431
    -9.1431  -9.1242  -8.7917  -8.7274  -8.7274  -8.5261  -8.5261  -8.5076
    -6.8653  -6.8653  -6.8570  -6.4124  -6.1591  -6.1591  -5.4382  -5.3906
    -5.3906  -4.9912  -4.9912  -4.8495  -3.7847  -3.7847  -3.7010  -3.6509
    -3.5413  -3.5413  -3.5054  -3.4299  -3.4299  -3.3088  -3.3088  -3.1688

          k = 0.4494 0.2595 0.0000 ( 32660 PWs)   bands (ev):

   -21.7177 -21.6037 -21.5967 -21.4191 -21.3602 -21.3254 -21.2460 -21.2218
   -21.1468 -21.0407 -21.0116 -20.9329  -9.3454  -9.2962  -9.2645  -9.1736
    -9.1319  -9.0720  -8.8473  -8.7521  -8.6918  -8.5628  -8.5427  -8.5143
    -7.0751  -6.7611  -6.6950  -6.4460  -6.1752  -5.9519  -5.5796  -5.5420
    -5.3391  -5.0687  -4.9640  -4.6751  -3.7481  -3.7345  -3.7120  -3.6601
    -3.5661  -3.5040  -3.4603  -3.4258  -3.3799  -3.3320  -3.2755  -3.2083

          k = 0.2996 0.1730 0.3111 ( 32644 PWs)   bands (ev):

   -21.7383 -21.5683 -21.5050 -21.4627 -21.4003 -21.3682 -21.2305 -21.2162
   -21.1322 -21.0770 -21.0171 -20.9109  -9.3482  -9.2768  -9.2361  -9.1935
    -9.1570  -9.0638  -8.7881  -8.6928  -8.6385  -8.6194  -8.5500  -8.5418
    -7.1801  -6.6975  -6.5716  -6.4268  -6.2288  -5.9174  -5.7241  -5.5546
    -5.3880  -5.0834  -4.9535  -4.5973  -3.8432  -3.7742  -3.7314  -3.6373
    -3.5853  -3.5309  -3.4740  -3.4223  -3.3477  -3.3213  -3.2561  -3.2429

          k = 0.4494-0.2595-0.9332 ( 32643 PWs)   bands (ev):

   -21.6526 -21.6406 -21.5478 -21.4768 -21.4002 -21.3545 -21.2477 -21.2034
   -21.0766 -21.0726 -21.0119 -20.9419  -9.3207  -9.3017  -9.2585  -9.1872
    -9.1482  -9.0364  -8.8230  -8.7070  -8.6396  -8.6246  -8.5450  -8.5356
    -6.9409  -6.8237  -6.5850  -6.5473  -6.2817  -5.9664  -5.7180  -5.4811
    -5.1604  -5.1475  -4.9807  -4.6448  -3.8501  -3.7888  -3.7553  -3.6476
    -3.6064  -3.5686  -3.4272  -3.3953  -3.3667  -3.3236  -3.2607  -3.2154

          k = 0.2996-0.3460-0.6221 ( 32634 PWs)   bands (ev):

   -21.6356 -21.5826 -21.5435 -21.5072 -21.4316 -21.4193 -21.2048 -21.1848
   -21.0787 -21.0634 -21.0250 -20.9545  -9.3246  -9.2594  -9.2378  -9.2031
    -9.1843  -9.0419  -8.7391  -8.7036  -8.6186  -8.6110  -8.5577  -8.5524
    -6.9270  -6.7970  -6.6345  -6.5684  -6.1864  -6.1445  -5.5977  -5.5279
    -5.1757  -5.1326  -5.0054  -4.6486  -3.9290  -3.7962  -3.7571  -3.6721
    -3.6425  -3.5057  -3.4814  -3.4251  -3.4039  -3.2821  -3.2706  -3.1970

          k = 0.0000 0.0000-1.8663 ( 32622 PWs)   bands (ev):

   -21.6211 -21.5305 -21.5305 -21.5294 -21.4716 -21.4716 -21.1697 -21.1697
   -21.0853 -21.0853 -21.0209 -20.9448  -9.3339  -9.2364  -9.2364  -9.2053
    -9.2053  -9.0111  -8.7565  -8.7156  -8.5965  -8.5965  -8.5822  -8.5822
    -6.8528  -6.7247  -6.4938  -6.4938  -6.4132  -6.4132  -5.4414  -5.4414
    -5.1958  -5.1958  -5.0152  -4.6010  -3.9541  -3.7932  -3.7932  -3.6955
    -3.6955  -3.5011  -3.4523  -3.3675  -3.3675  -3.3034  -3.3034  -3.1778

          k = 0.2996-0.3460 0.3111 ( 32621 PWs)   bands (ev):

   -21.7046 -21.5929 -21.5350 -21.4675 -21.4098 -21.3800 -21.2185 -21.1712
   -21.1071 -21.0857 -21.0126 -20.9419  -9.3379  -9.2824  -9.2345  -9.2078
    -9.1265  -9.0911  -8.7859  -8.7387  -8.6732  -8.5617  -8.5403  -8.5192
    -7.0855  -6.7475  -6.7047  -6.4216  -6.2086  -5.9722  -5.7211  -5.4101
    -5.2899  -5.1183  -4.9882  -4.6771  -3.8312  -3.7609  -3.7204  -3.6407
    -3.5613  -3.5312  -3.4712  -3.4691  -3.3942  -3.3008  -3.2838  -3.1976

     highest occupied level (ev):    -3.1688

!    total energy              =    -418.01686563 Ry
     estimated scf accuracy    <       0.00000009 Ry

     The total energy is the sum of the following terms:
     one-electron contribution =    -314.74707430 Ry
     hartree contribution      =     190.27056391 Ry
     xc contribution           =    -106.03838764 Ry
     ewald contribution        =    -187.50196760 Ry

     convergence has been achieved in   8 iterations

     Forces acting on atoms (cartesian axes, Ry/au):

     atom    1 type  2   force =     0.00074459   -0.01210650   -0.00740411
     atom    2 type  2   force =    -0.00074459    0.01210650    0.00740411
     atom    3 type  2   force =     0.01011224    0.00669809   -0.00740411
     atom    4 type  2   force =    -0.01011224   -0.00669809    0.00740411
     atom    5 type  2   force =    -0.01085684    0.00540841   -0.00740411
     atom    6 type  2   force =     0.01085684   -0.00540841    0.00740411
     atom    7 type  2   force =     0.01020624   -0.01313235    0.00706364
     atom    8 type  2   force =    -0.01020624    0.01313235   -0.00706364
     atom    9 type  2   force =     0.00626982    0.01540504    0.00706364
     atom   10 type  2   force =    -0.00626982   -0.01540504   -0.00706364
     atom   11 type  2   force =    -0.01647607   -0.00227269    0.00706364
     atom   12 type  2   force =     0.01647607    0.00227269   -0.00706364
     atom   13 type  1   force =    -0.01735256    0.02376034   -0.04222312
     atom   14 type  1   force =     0.01735256   -0.02376034    0.04222312
     atom   15 type  1   force =    -0.01190078   -0.02690793   -0.04222312
     atom   16 type  1   force =     0.01190078    0.02690793    0.04222312
     atom   17 type  1   force =     0.02925334    0.00314759   -0.04222312
     atom   18 type  1   force =    -0.02925334   -0.00314759    0.04222312
     atom   19 type  1   force =     0.01964841   -0.01547959    0.04374893
     atom   20 type  1   force =    -0.01964841    0.01547959   -0.04374893
     atom   21 type  1   force =     0.00358151    0.02475582    0.04374893
     atom   22 type  1   force =    -0.00358151   -0.02475582   -0.04374893
     atom   23 type  1   force =    -0.02322993   -0.00927623    0.04374893
     atom   24 type  1   force =     0.02322993    0.00927623   -0.04374893
     atom   25 type  1   force =     0.00741293    0.01870753    0.00225632
     atom   26 type  1   force =    -0.00741293   -0.01870753   -0.00225632
     atom   27 type  1   force =    -0.01990766   -0.00293398    0.00225632
     atom   28 type  1   force =     0.01990766    0.00293398   -0.00225632
     atom   29 type  1   force =     0.01249473   -0.01577355    0.00225632
     atom   30 type  1   force =    -0.01249473    0.01577355   -0.00225632
     atom   31 type  1   force =     0.00723263   -0.01514660   -0.00782864
     atom   32 type  1   force =    -0.00723263    0.01514660    0.00782864
     atom   33 type  1   force =     0.00950102    0.01383694   -0.00782864
     atom   34 type  1   force =    -0.00950102   -0.01383694    0.00782864
     atom   35 type  1   force =    -0.01673365    0.00130965   -0.00782864
     atom   36 type  1   force =     0.01673365   -0.00130965    0.00782864

     Total force =     0.197022     Total SCF correction =     0.000236


     Computing stress (Cartesian axis) and pressure

          total   stress  (Ry/bohr**3)                   (kbar)     P=       18.47
   0.00007064  -0.00000000   0.00000000           10.39       -0.00        0.00
   0.00000000   0.00007064   0.00000000            0.00       10.39        0.00
   0.00000000   0.00000000   0.00023529            0.00        0.00       34.61

     Energy error            =      1.4E-01 Ry
     Gradient error          =      4.4E-02 Ry/Bohr

     number of scf cycles    =   2
     number of bfgs steps    =   1

     energy             old  =    -417.8752726296 Ry
     energy             new  =    -418.0168656264 Ry

     CASE: energy            _new < energy            _old

     new trust radius        =       0.0457455718 bohr
     new conv_thr            =       0.0000000437 Ry


ATOMIC_POSITIONS (crystal)
O                0.2735221057        0.0343291326        0.8587332476
O                0.7264778943        0.9656708784        0.1412667224
O                0.8587332476        0.2735221057        0.0343291326
O                0.1412667224        0.7264778943        0.9656708784
O                0.0343291326        0.8587332476        0.2735221057
O                0.9656708784        0.1412667224        0.7264778943
O                0.4705548528        0.7483228953        0.3298780809
O                0.5294451472        0.2516771047        0.6701218891
O                0.3298780809        0.4705548528        0.7483228953
O                0.6701218891        0.5294451472        0.2516771047
O                0.7483228953        0.3298780809        0.4705548528
O                0.2516771047        0.6701218891        0.5294451472
H                0.1599828430        0.0603331316        0.8043571949
H                0.8400171430        0.9396668604        0.1956428051
H                0.8043571949        0.1599828430        0.0603331316
H                0.1956428051        0.8400171430        0.9396668604
H                0.0603331316        0.8043571949        0.1599828430
H                0.9396668604        0.1956428051        0.8400171430
H                0.4165693921        0.2016109553        0.9967496345
H                0.5834306079        0.7983890597        0.0032503445
H                0.9967496345        0.4165693921        0.2016109553
H                0.0032503445        0.5834306079        0.7983890597
H                0.2016109553        0.9967496345        0.4165693921
H                0.7983890597        0.0032503445        0.5834306079
H                0.7204378281        0.4008853395        0.3982908166
H                0.2795621719        0.5991146305        0.6017092134
H                0.3982908166        0.7204378281        0.4008853395
H                0.6017092134        0.2795621719        0.5991146305
H                0.4008853395        0.3982908166        0.7204378281
H                0.5991146305        0.6017092134        0.2795621719
H                0.7415786960        0.2060554485        0.3650779479
H                0.2584213040        0.7939445365        0.6349220521
H                0.3650779479        0.7415786960        0.2060554485
H                0.6349220521        0.2584213040        0.7939445365
H                0.2060554485        0.3650779479        0.7415786960
H                0.7939445365        0.6349220521        0.2584213040



     Writing config-only to output data dir ./iceII/iceII.save/ :
     XML data file
     NEW-OLD atomic charge density approx. for the potential

     negative rho (up, down):  2.508E-08 0.000E+00

     total cpu time spent up to now is       34.3 secs

     per-process dynamical memory:    20.9 Mb

     Self-consistent Calculation

     iteration #  1     ecut=    90.00 Ry     beta= 0.70
     Davidson diagonalization with overlap
     ethr =  1.00E-06,  avg # of iterations =  5.0

     negative rho (up, down):  1.179E-08 0.000E+00

     total cpu time spent up to now is       35.9 secs

     total energy              =    -418.03838072 Ry
     estimated scf accuracy    <       0.00257692 Ry

     iteration #  2     ecut=    90.00 Ry     beta= 0.70
     Davidson diagonalization with overlap
     ethr =  2.68E-06,  avg # of iterations =  3.0

     negative rho (up, down):  1.689E-08 0.000E+00

     total cpu time spent up to now is       37.1 secs

     total energy              =    -418.03906136 Ry
     estimated scf accuracy    <       0.00117207 Ry

     iteration #  3     ecut=    90.00 Ry     beta= 0.70
     Davidson diagonalization with overlap
     ethr =  1.22E-06,  avg # of iterations =  2.0

     negative rho (up, down):  2.179E-08 0.000E+00

     total cpu time spent up to now is       38.2 secs

     total energy              =    -418.03925640 Ry
     estimated scf accuracy    <       0.00003392 Ry

     iteration #  4     ecut=    90.00 Ry     beta= 0.70
     Davidson diagonalization with overlap
     ethr =  3.53E-08,  avg # of iterations =  4.6

     negative rho (up, down):  2.034E-08 0.000E+00

     total cpu time spent up to now is       39.6 secs

     total energy              =    -418.03928058 Ry
     estimated scf accuracy    <       0.00005099 Ry

     iteration #  5     ecut=    90.00 Ry     beta= 0.70
     Davidson diagonalization with overlap
     ethr =  3.53E-08,  avg # of iterations =  2.0

     negative rho (up, down):  1.925E-08 0.000E+00

     total cpu time spent up to now is       40.6 secs

     total energy              =    -418.03928079 Ry
     estimated scf accuracy    <       0.00000848 Ry

     iteration #  6     ecut=    90.00 Ry     beta= 0.70
     Davidson diagonalization with overlap
     ethr =  8.83E-09,  avg # of iterations =  3.0

     negative rho (up, down):  1.975E-08 0.000E+00

     total cpu time spent up to now is       41.9 secs

     total energy              =    -418.03928459 Ry
     estimated scf accuracy    <       0.00000234 Ry

     iteration #  7     ecut=    90.00 Ry     beta= 0.70
     Davidson diagonalization with overlap
     ethr =  2.43E-09,  avg # of iterations =  2.0

     negative rho (up, down):  1.999E-08 0.000E+00

     total cpu time spent up to now is       42.9 secs

     total energy              =    -418.03928474 Ry
     estimated scf accuracy    <       0.00000034 Ry

     iteration #  8     ecut=    90.00 Ry     beta= 0.70
     Davidson diagonalization with overlap
     ethr =  3.50E-10,  avg # of iterations =  2.0

     negative rho (up, down):  2.016E-08 0.000E+00

     total cpu time spent up to now is       43.9 secs

     total energy              =    -418.03928475 Ry
     estimated scf accuracy    <       0.00000005 Ry

     iteration #  9     ecut=    90.00 Ry     beta= 0.70
     Davidson diagonalization with overlap
     ethr =  5.68E-11,  avg # of iterations =  3.6

     negative rho (up, down):  2.010E-08 0.000E+00

     total cpu time spent up to now is       45.1 secs

     End of self-consistent calculation

          k = 0.0000 0.0000 0.0000 ( 32605 PWs)   bands (ev):

   -21.6827 -21.3382 -21.3382 -21.1641 -21.1641 -21.1493 -21.1493 -21.1378
   -21.1235 -20.9037 -20.9037 -20.6876  -9.3299  -9.1744  -9.1177  -9.1177
    -9.1035  -9.1035  -8.6705  -8.6705  -8.5853  -8.5705  -8.5705  -8.4490
    -7.4191  -6.4501  -6.4501  -5.9655  -5.9655  -5.8645  -5.8645  -5.6068
    -5.5839  -4.9742  -4.9742  -4.3822  -3.7162  -3.7162  -3.6744  -3.5032
    -3.5032  -3.4797  -3.3776  -3.3321  -3.3244  -3.3244  -3.2697  -3.2697

          k =-0.1498-0.0865 0.3111 ( 32623 PWs)   bands (ev):

   -21.6263 -21.3662 -21.3297 -21.2746 -21.2547 -21.2013 -21.0928 -21.0591
   -21.0208 -20.9106 -20.8814 -20.7290  -9.2963  -9.1921  -9.1541  -9.1443
    -9.0880  -9.0410  -8.6820  -8.6578  -8.5884  -8.5376  -8.5193  -8.4882
    -7.2559  -6.5965  -6.4913  -6.2309  -6.0589  -5.8073  -5.7087  -5.5443
    -5.4525  -4.9713  -4.9063  -4.5026  -3.8009  -3.7452  -3.6729  -3.5457
    -3.5357  -3.5006  -3.4638  -3.3680  -3.3269  -3.2706  -3.2645  -3.2188

          k = 0.2996 0.1730-0.6221 ( 32598 PWs)   bands (ev):

   -21.4933 -21.4662 -21.3539 -21.3337 -21.2657 -21.2477 -21.0553 -21.0319
   -20.9376 -20.9028 -20.8440 -20.8186  -9.2399  -9.2233  -9.1765  -9.1427
    -9.0856  -9.0251  -8.6676  -8.6394  -8.5801  -8.5680  -8.4856  -8.4754
    -6.9374  -6.8325  -6.5492  -6.4462  -6.0335  -5.9598  -5.6078  -5.4767
    -5.1331  -5.0529  -4.8565  -4.6815  -3.8763  -3.7609  -3.6735  -3.5984
    -3.5624  -3.5564  -3.4473  -3.4126  -3.3741  -3.2538  -3.2245  -3.1788

          k =-0.1498 0.0865 0.6221 ( 32608 PWs)   bands (ev):

   -21.5139 -21.4078 -21.3990 -21.3121 -21.2921 -21.2449 -21.0536 -20.9955
   -20.9694 -20.8875 -20.8711 -20.8038  -9.2431  -9.2105  -9.1978  -9.1237
    -9.0925  -9.0246  -8.6631  -8.6453  -8.6059  -8.5246  -8.4989  -8.4790
    -6.9718  -6.7220  -6.6920  -6.3000  -6.1341  -5.9864  -5.5680  -5.3905
    -5.2744  -4.9387  -4.9074  -4.6856  -3.8605  -3.7888  -3.6624  -3.5910
    -3.5821  -3.5104  -3.4878  -3.3956  -3.3743  -3.2589  -3.2310  -3.1725

          k = 0.2996 0.3460-0.3111 ( 32621 PWs)   bands (ev):

   -21.5527 -21.4323 -21.3706 -21.3201 -21.2658 -21.2166 -21.0625 -21.0007
   -20.9458 -20.9326 -20.8596 -20.7869  -9.2647  -9.2351  -9.1603  -9.1263
    -9.0918  -9.0201  -8.7289  -8.7025  -8.6261  -8.5085  -8.4806  -8.4613
    -7.0189  -6.7376  -6.5230  -6.3311  -6.3013  -5.8522  -5.4888  -5.4195
    -5.2610  -5.0348  -4.8850  -4.6439  -3.8002  -3.7436  -3.6802  -3.6078
    -3.5243  -3.4824  -3.4435  -3.4229  -3.3611  -3.2997  -3.2322  -3.1571

          k = 0.1498 0.2595 0.0000 ( 32622 PWs)   bands (ev):

   -21.6418 -21.3948 -21.3534 -21.2470 -21.2228 -21.1630 -21.1135 -21.0602
   -21.0268 -20.9131 -20.8852 -20.7203  -9.3110  -9.2038  -9.1499  -9.1421
    -9.0635  -9.0525  -8.7492  -8.7056  -8.5879  -8.5575  -8.5145  -8.4488
    -7.2701  -6.5365  -6.4506  -6.2697  -6.1714  -5.7731  -5.6244  -5.4831
    -5.4407  -5.0202  -4.9525  -4.4607  -3.7162  -3.7048  -3.6890  -3.5671
    -3.5056  -3.4797  -3.3896  -3.3776  -3.3560  -3.3191  -3.2272  -3.2173

          k = 0.2996-0.1730-1.2442 ( 32676 PWs)   bands (ev):

   -21.5419 -21.5194 -21.3659 -21.2830 -21.2243 -21.1785 -21.0752 -21.0444
   -20.9626 -20.9360 -20.8156 -20.7951  -9.2740  -9.2483  -9.1587  -9.1498
    -9.0405  -9.0260  -8.7984  -8.7375  -8.5987  -8.5507  -8.4705  -8.4551
    -6.9089  -6.8989  -6.4728  -6.4315  -6.1025  -5.8834  -5.5088  -5.3730
    -5.1990  -5.1953  -4.7985  -4.6443  -3.7257  -3.6934  -3.6922  -3.6132
    -3.5109  -3.4516  -3.4354  -3.4025  -3.3626  -3.3243  -3.1996  -3.1843

          k = 0.0000 0.0000 0.9332 ( 32652 PWs)   bands (ev):

   -21.4692 -21.4692 -21.4295 -21.3594 -21.2387 -21.2387 -21.0066 -21.0066
   -20.9265 -20.8681 -20.8669 -20.8669  -9.2418  -9.2418  -9.1936  -9.0788
    -9.0788  -9.0698  -8.7492  -8.6786  -8.6786  -8.4697  -8.4697  -8.4477
    -6.8066  -6.8066  -6.7428  -6.4104  -6.0873  -6.0873  -5.2932  -5.2932
    -5.2883  -4.9391  -4.9391  -4.8299  -3.7572  -3.7572  -3.6646  -3.6215
    -3.4972  -3.4972  -3.4648  -3.4057  -3.4056  -3.2707  -3.2707  -3.1347

          k = 0.4494 0.2595 0.0000 ( 32660 PWs)   bands (ev):

   -21.5664 -21.4408 -21.4402 -21.2831 -21.1883 -21.1732 -21.0852 -21.0705
   -20.9658 -20.8896 -20.8603 -20.7785  -9.2783  -9.2303  -9.1977  -9.1096
    -9.0696  -9.0124  -8.8084  -8.7062  -8.6442  -8.5065  -8.4870  -8.4575
    -7.0169  -6.6734  -6.6281  -6.4115  -6.0889  -5.8535  -5.5044  -5.4749
    -5.2286  -5.0121  -4.9064  -4.6189  -3.7127  -3.7062  -3.6880  -3.6173
    -3.5238  -3.4657  -3.4229  -3.3963  -3.3459  -3.3042  -3.2457  -3.1663

          k = 0.2996 0.1730 0.3111 ( 32644 PWs)   bands (ev):

   -21.5883 -21.4018 -21.3375 -21.3220 -21.2471 -21.2128 -21.0686 -21.0522
   -20.9884 -20.9113 -20.8622 -20.7540  -9.2812  -9.2114  -9.1729  -9.1281
    -9.0969  -9.0014  -8.7438  -8.6435  -8.5851  -8.5686  -8.4937  -8.4873
    -7.1237  -6.6121  -6.5134  -6.3246  -6.2034  -5.8438  -5.6170  -5.4661
    -5.3404  -4.9971  -4.8916  -4.5402  -3.8176  -3.7442  -3.6966  -3.5981
    -3.5409  -3.4951  -3.4401  -3.3925  -3.3280  -3.2895  -3.2232  -3.1939

          k = 0.4494-0.2595-0.9332 ( 32643 PWs)   bands (ev):

   -21.4917 -21.4881 -21.3868 -21.3380 -21.2420 -21.1909 -21.0950 -21.0368
   -20.9299 -20.9009 -20.8575 -20.7885  -9.2535  -9.2352  -9.1930  -9.1236
    -9.0869  -8.9741  -8.7818  -8.6596  -8.5888  -8.5716  -8.4897  -8.4791
    -6.8708  -6.7634  -6.5351  -6.4675  -6.2065  -5.8625  -5.6509  -5.4105
    -5.1134  -5.0315  -4.9177  -4.5960  -3.8243  -3.7548  -3.7229  -3.6044
    -3.5657  -3.5314  -3.3988  -3.3651  -3.3480  -3.2984  -3.2262  -3.1605

          k = 0.2996-0.3460-0.6221 ( 32634 PWs)   bands (ev):

   -21.4686 -21.4389 -21.3748 -21.3681 -21.2717 -21.2628 -21.0407 -21.0287
   -20.9260 -20.9152 -20.8509 -20.8042  -9.2573  -9.1937  -9.1728  -9.1421
    -9.1230  -8.9792  -8.6882  -8.6564  -8.5667  -8.5590  -8.5017  -8.4968
    -6.8364  -6.7534  -6.5543  -6.5145  -6.1200  -6.0888  -5.4899  -5.4302
    -5.1196  -5.0782  -4.9044  -4.6129  -3.9009  -3.7671  -3.7257  -3.6298
    -3.5970  -3.4860  -3.4398  -3.3955  -3.3811  -3.2546  -3.2360  -3.1461

          k = 0.0000 0.0000-1.8663 ( 32622 PWs)   bands (ev):

   -21.4409 -21.4075 -21.3708 -21.3708 -21.3182 -21.3182 -20.9876 -20.9876
   -20.9559 -20.9559 -20.8470 -20.7902  -9.2658  -9.1693  -9.1693  -9.1444
    -9.1444  -8.9488  -8.7071  -8.6714  -8.5426  -8.5426  -8.5289  -8.5289
    -6.7537  -6.7110  -6.3800  -6.3800  -6.3771  -6.3771  -5.3269  -5.3269
    -5.1782  -5.1782  -4.8821  -4.5657  -3.9222  -3.7619  -3.7619  -3.6545
    -3.6545  -3.4473  -3.4454  -3.3484  -3.3484  -3.2687  -3.2687  -3.1199

          k = 0.2996-0.3460 0.3111 ( 32621 PWs)   bands (ev):

   -21.5521 -21.4383 -21.3527 -21.3337 -21.2642 -21.2182 -21.0579 -20.9967
   -20.9730 -20.9062 -20.8665 -20.7868  -9.2712  -9.2176  -9.1682  -9.1442
    -9.0690  -9.0275  -8.7425  -8.6911  -8.6223  -8.5069  -8.4842  -8.4614
    -7.0241  -6.6885  -6.6063  -6.3522  -6.1932  -5.8984  -5.5996  -5.3102
    -5.1978  -5.0680  -4.9317  -4.6272  -3.8052  -3.7269  -3.6937  -3.5982
    -3.5220  -3.4923  -3.4420  -3.4243  -3.3787  -3.2749  -3.2337  -3.1631

     highest occupied level (ev):    -3.1199

!    total energy              =    -418.03928477 Ry
     estimated scf accuracy    <          8.0E-09 Ry

     The total energy is the sum of the following terms:
     one-electron contribution =    -312.19778676 Ry
     hartree contribution      =     189.12316445 Ry
     xc contribution           =    -105.80878198 Ry
     ewald contribution        =    -189.15588049 Ry

     convergence has been achieved in   9 iterations

     Forces acting on atoms (cartesian axes, Ry/au):

     atom    1 type  2   force =    -0.00553263    0.00815473    0.00835031
     atom    2 type  2   force =     0.00553263   -0.00815473   -0.00835031
     atom    3 type  2   force =    -0.00429589   -0.00886877    0.00835031
     atom    4 type  2   force =     0.00429589    0.00886877   -0.00835031
     atom    5 type  2   force =     0.00982852    0.00071403    0.00835031
     atom    6 type  2   force =    -0.00982852   -0.00071403   -0.00835031
     atom    7 type  2   force =     0.00197718   -0.00477568   -0.00011054
     atom    8 type  2   force =    -0.00197718    0.00477568    0.00011054
     atom    9 type  2   force =     0.00314727    0.00410013   -0.00011054
     atom   10 type  2   force =    -0.00314727   -0.00410013    0.00011054
     atom   11 type  2   force =    -0.00512445    0.00067555   -0.00011054
     atom   12 type  2   force =     0.00512445   -0.00067555    0.00011054
     atom   13 type  1   force =    -0.00662751    0.00188131   -0.02461957
     atom   14 type  1   force =     0.00662751   -0.00188131    0.02461957
     atom   15 type  1   force =     0.00168449   -0.00668025   -0.02461957
     atom   16 type  1   force =    -0.00168449    0.00668025    0.02461957
     atom   17 type  1   force =     0.00494302    0.00479893   -0.02461957
     atom   18 type  1   force =    -0.00494302   -0.00479893    0.02461957
     atom   19 type  1   force =     0.01495365   -0.01358712    0.01080107
     atom   20 type  1   force =    -0.01495365    0.01358712   -0.01080107
     atom   21 type  1   force =     0.00428997    0.01974380    0.01080107
     atom   22 type  1   force =    -0.00428997   -0.01974380   -0.01080107
     atom   23 type  1   force =    -0.01924362   -0.00615668    0.01080107
     atom   24 type  1   force =     0.01924362    0.00615668   -0.01080107
     atom   25 type  1   force =     0.00411475    0.00748688    0.00314025
     atom   26 type  1   force =    -0.00411475   -0.00748688   -0.00314025
     atom   27 type  1   force =    -0.00854120   -0.00017996    0.00314025
     atom   28 type  1   force =     0.00854120    0.00017996   -0.00314025
     atom   29 type  1   force =     0.00442645   -0.00730691    0.00314025
     atom   30 type  1   force =    -0.00442645    0.00730691   -0.00314025
     atom   31 type  1   force =    -0.00085755   -0.00765667   -0.00130749
     atom   32 type  1   force =     0.00085755    0.00765667    0.00130749
     atom   33 type  1   force =     0.00705965    0.00308568   -0.00130749
     atom   34 type  1   force =    -0.00705965   -0.00308568    0.00130749
     atom   35 type  1   force =    -0.00620210    0.00457099   -0.00130749
     atom   36 type  1   force =     0.00620210   -0.00457099    0.00130749

     Total force =     0.095371     Total SCF correction =     0.000096


     Computing stress (Cartesian axis) and pressure

          total   stress  (Ry/bohr**3)                   (kbar)     P=       -2.95
  -0.00004848   0.00000000   0.00000000           -7.13        0.00        0.00
  -0.00000000  -0.00004848  -0.00000000           -0.00       -7.13       -0.00
   0.00000000  -0.00000000   0.00003687            0.00       -0.00        5.42

     Energy error            =      2.2E-02 Ry
     Gradient error          =      2.5E-02 Ry/Bohr

     number of scf cycles    =   3
     number of bfgs steps    =   2

     energy             old  =    -418.0168656264 Ry
     energy             new  =    -418.0392847747 Ry

     CASE: energy            _new < energy            _old

     new trust radius        =       0.0716955851 bohr
     new conv_thr            =       0.0000000246 Ry


ATOMIC_POSITIONS (crystal)
O                0.2739906442        0.0371325588        0.8605010508
O                0.7260093558        0.9628674522        0.1394989192
O                0.8605010508        0.2739906442        0.0371325588
O                0.1394989192        0.7260093558        0.9628674522
O                0.0371325588        0.8605010508        0.2739906442
O                0.9628674522        0.1394989192        0.7260093558
O                0.4703967403        0.7476944496        0.3298190515
O                0.5296032597        0.2523055504        0.6701809185
O                0.3298190515        0.4703967403        0.7476944496
O                0.6701809185        0.5296032597        0.2523055504
O                0.7476944496        0.3298190515        0.4703967403
O                0.2523055504        0.6701809185        0.5296032597
H                0.1534932789        0.0549061959        0.7992204133
H                0.8465067071        0.9450937961        0.2007795867
H                0.7992204133        0.1534932789        0.0549061959
H                0.2007795867        0.8465067071        0.9450937961
H                0.0549061959        0.7992204133        0.1534932789
H                0.9450937961        0.2007795867        0.8465067071
H                0.4219116014        0.2026802542        0.9989256532
H                0.5780883986        0.7973197608        0.0010743258
H                0.9989256532        0.4219116014        0.2026802542
H                0.0010743258        0.5780883986        0.7973197608
H                0.2026802542        0.9989256532        0.4219116014
H                0.7973197608        0.0010743258        0.5780883986
H                0.7210881792        0.4023224702        0.3983772895
H                0.2789118208        0.5976774998        0.6016227405
H                0.3983772895        0.7210881792        0.4023224702
H                0.6016227405        0.2789118208        0.5976774998
H                0.4023224702        0.3983772895        0.7210881792
H                0.5976774998        0.6016227405        0.2789118208
H                0.7417080300        0.2051414629        0.3656923398
H                0.2582919700        0.7948585221        0.6343076602
H                0.3656923398        0.7417080300        0.2051414629
H                0.6343076602        0.2582919700        0.7948585221
H                0.2051414629        0.3656923398        0.7417080300
H                0.7948585221        0.6343076602        0.2582919700



     Writing config-only to output data dir ./iceII/iceII.save/ :
     XML data file
     NEW-OLD atomic charge density approx. for the potential

     total cpu time spent up to now is       46.8 secs

     per-process dynamical memory:    21.3 Mb

     Self-consistent Calculation

     iteration #  1     ecut=    90.00 Ry     beta= 0.70
     Davidson diagonalization with overlap
     ethr =  1.00E-06,  avg # of iterations =  7.0

     negative rho (up, down):  1.225E-08 0.000E+00

     total cpu time spent up to now is       48.7 secs

     total energy              =    -418.05265398 Ry
     estimated scf accuracy    <       0.00172354 Ry

     iteration #  2     ecut=    90.00 Ry     beta= 0.70
     Davidson diagonalization with overlap
     ethr =  1.80E-06,  avg # of iterations =  2.4

     negative rho (up, down):  2.149E-08 0.000E+00

     total cpu time spent up to now is       49.8 secs

     total energy              =    -418.05296096 Ry
     estimated scf accuracy    <       0.00026524 Ry

     iteration #  3     ecut=    90.00 Ry     beta= 0.70
     Davidson diagonalization with overlap
     ethr =  2.76E-07,  avg # of iterations =  2.6

     negative rho (up, down):  2.544E-08 0.000E+00

     total cpu time spent up to now is       50.9 secs

     total energy              =    -418.05301982 Ry
     estimated scf accuracy    <       0.00002291 Ry

     iteration #  4     ecut=    90.00 Ry     beta= 0.70
     Davidson diagonalization with overlap
     ethr =  2.39E-08,  avg # of iterations =  2.0

     negative rho (up, down):  2.544E-08 0.000E+00

     total cpu time spent up to now is       51.9 secs

     total energy              =    -418.05302191 Ry
     estimated scf accuracy    <       0.00000177 Ry

     iteration #  5     ecut=    90.00 Ry     beta= 0.70
     Davidson diagonalization with overlap
     ethr =  1.85E-09,  avg # of iterations =  3.4

     negative rho (up, down):  2.545E-08 0.000E+00

     total cpu time spent up to now is       53.0 secs

     total energy              =    -418.05302246 Ry
     estimated scf accuracy    <       0.00000009 Ry

     iteration #  6     ecut=    90.00 Ry     beta= 0.70
     Davidson diagonalization with overlap
     ethr =  9.23E-11,  avg # of iterations =  3.0

     negative rho (up, down):  2.553E-08 0.000E+00

     total cpu time spent up to now is       54.2 secs

     End of self-consistent calculation

          k = 0.0000 0.0000 0.0000 ( 32605 PWs)   bands (ev):

   -21.5912 -21.2529 -21.2529 -21.0565 -21.0565 -21.0394 -21.0394 -21.0259
   -21.0205 -20.7762 -20.7762 -20.5665  -9.2953  -9.1510  -9.1413  -9.1413
    -9.0949  -9.0949  -8.7804  -8.7804  -8.7717  -8.7542  -8.7542  -8.6463
    -7.2850  -6.2935  -6.2935  -5.8888  -5.8888  -5.7015  -5.7015  -5.4833
    -5.4312  -4.8542  -4.8542  -4.2668  -3.6932  -3.6932  -3.6551  -3.4842
    -3.4842  -3.4439  -3.3649  -3.2930  -3.2925  -3.2925  -3.2445  -3.2445

          k =-0.1498-0.0865 0.3111 ( 32623 PWs)   bands (ev):

   -21.5355 -21.2792 -21.2535 -21.1614 -21.1333 -21.0960 -20.9883 -20.9507
   -20.9174 -20.7824 -20.7549 -20.6060  -9.2641  -9.1874  -9.1516  -9.1300
    -9.0885  -9.0420  -8.8275  -8.8004  -8.7721  -8.7055  -8.6864  -8.6719
    -7.1245  -6.4595  -6.3384  -6.1135  -5.9818  -5.6970  -5.5120  -5.4384
    -5.2698  -4.8548  -4.7901  -4.3966  -3.7702  -3.7191  -3.6522  -3.5249
    -3.5172  -3.4694  -3.4409  -3.3349  -3.3049  -3.2485  -3.2312  -3.1955

          k = 0.2996 0.1730-0.6221 ( 32598 PWs)   bands (ev):

   -21.4193 -21.3603 -21.2760 -21.2139 -21.1641 -21.1301 -20.9609 -20.9152
   -20.8400 -20.7738 -20.7317 -20.6782  -9.2144  -9.2072  -9.1565  -9.1399
    -9.0825  -9.0180  -8.8299  -8.8147  -8.7530  -8.7338  -8.6547  -8.6403
    -6.7728  -6.7345  -6.3755  -6.3739  -5.9156  -5.8901  -5.3804  -5.3250
    -4.9649  -4.9326  -4.7491  -4.6120  -3.8380  -3.7346  -3.6502  -3.5701
    -3.5384  -3.5310  -3.4230  -3.4003  -3.3427  -3.2370  -3.1881  -3.1580

          k =-0.1498 0.0865 0.6221 ( 32608 PWs)   bands (ev):

   -21.4309 -21.3188 -21.3039 -21.2093 -21.1747 -21.1363 -20.9487 -20.8982
   -20.8570 -20.7669 -20.7485 -20.6702  -9.2186  -9.1888  -9.1850  -9.1237
    -9.0835  -9.0168  -8.8273  -8.8181  -8.7802  -8.6868  -8.6681  -8.6479
    -6.8322  -6.5945  -6.5624  -6.1847  -6.0370  -5.8835  -5.3910  -5.1855
    -5.1253  -4.8407  -4.7772  -4.6167  -3.8225  -3.7588  -3.6420  -3.5668
    -3.5496  -3.4907  -3.4666  -3.3715  -3.3518  -3.2376  -3.2000  -3.1488

          k = 0.2996 0.3460-0.3111 ( 32621 PWs)   bands (ev):

   -21.4632 -21.3441 -21.2919 -21.2021 -21.1473 -21.1121 -20.9590 -20.9042
   -20.8415 -20.8026 -20.7317 -20.6585  -9.2358  -9.2133  -9.1413  -9.1205
    -9.0910  -9.0168  -8.8883  -8.8684  -8.8075  -8.6754  -8.6547  -8.6313
    -6.8855  -6.5755  -6.4117  -6.2349  -6.1711  -5.7318  -5.3159  -5.2225
    -5.1732  -4.9007  -4.7739  -4.5500  -3.7687  -3.7196  -3.6570  -3.5870
    -3.4976  -3.4514  -3.4251  -3.3979  -3.3435  -3.2779  -3.1953  -3.1315

          k = 0.1498 0.2595 0.0000 ( 32622 PWs)   bands (ev):

   -21.5502 -21.3088 -21.2675 -21.1394 -21.1106 -21.0454 -21.0158 -20.9512
   -20.9256 -20.7858 -20.7555 -20.5981  -9.2770  -9.1869  -9.1534  -9.1231
    -9.0687  -9.0641  -8.8949  -8.8473  -8.7750  -8.7185  -8.6800  -8.6382
    -7.1357  -6.3566  -6.3334  -6.1467  -6.0736  -5.6310  -5.4806  -5.3376
    -5.3180  -4.8972  -4.8389  -4.3448  -3.6942  -3.6816  -3.6699  -3.5476
    -3.4832  -3.4448  -3.3779  -3.3468  -3.3295  -3.2897  -3.1967  -3.1872

          k = 0.2996-0.1730-1.2442 ( 32676 PWs)   bands (ev):

   -21.4481 -21.4322 -21.2800 -21.1748 -21.1177 -21.0574 -20.9851 -20.9319
   -20.8631 -20.8033 -20.6963 -20.6636  -9.2436  -9.2190  -9.1541  -9.1246
    -9.0413  -9.0250  -8.9664  -8.9008  -8.7885  -8.7068  -8.6493  -8.6275
    -6.7682  -6.7590  -6.3313  -6.3286  -5.9785  -5.7335  -5.3412  -5.2613
    -5.1079  -5.0312  -4.6818  -4.5367  -3.7033  -3.6724  -3.6699  -3.5948
    -3.4846  -3.4152  -3.4080  -3.3913  -3.3396  -3.2981  -3.1676  -3.1530

          k = 0.0000 0.0000 0.9332 ( 32652 PWs)   bands (ev):

   -21.3761 -21.3761 -21.3648 -21.2201 -21.1363 -21.1363 -20.8968 -20.8968
   -20.8519 -20.7432 -20.7432 -20.7170  -9.2167  -9.2167  -9.1666  -9.0801
    -9.0723  -9.0723  -8.9162  -8.8515  -8.8515  -8.6370  -8.6370  -8.6194
    -6.6741  -6.6741  -6.5314  -6.3856  -5.9661  -5.9661  -5.1354  -5.1354
    -5.0405  -4.8431  -4.8431  -4.7786  -3.7292  -3.7292  -3.6393  -3.6083
    -3.4659  -3.4659  -3.4365  -3.3916  -3.3916  -3.2386  -3.2386  -3.1090

          k = 0.4494 0.2595 0.0000 ( 32660 PWs)   bands (ev):

   -21.4749 -21.3558 -21.3484 -21.1633 -21.0984 -21.0636 -20.9777 -20.9498
   -20.8731 -20.7655 -20.7313 -20.6518  -9.2459  -9.2043  -9.1784  -9.0984
    -9.0716  -9.0093  -8.9748  -8.8704  -8.8263  -8.6787  -8.6511  -8.6373
    -6.8795  -6.5098  -6.4949  -6.3324  -5.9458  -5.6989  -5.3827  -5.3509
    -5.0603  -4.8982  -4.7977  -4.5083  -3.6893  -3.6837  -3.6677  -3.5985
    -3.4982  -3.4375  -3.3998  -3.3743  -3.3189  -3.2785  -3.2181  -3.1326

          k = 0.2996 0.1730 0.3111 ( 32644 PWs)   bands (ev):

   -21.4980 -21.3162 -21.2609 -21.2066 -21.1299 -21.0989 -20.9729 -20.9500
   -20.8643 -20.7997 -20.7333 -20.6277  -9.2495  -9.1973  -9.1608  -9.1068
    -9.0998  -9.0036  -8.8958  -8.7979  -8.7588  -8.7523  -8.6725  -8.6557
    -6.9926  -6.4784  -6.3995  -6.1574  -6.1041  -5.7232  -5.4218  -5.3384
    -5.2417  -4.8532  -4.7778  -4.4360  -3.7846  -3.7184  -3.6736  -3.5726
    -3.5195  -3.4693  -3.4167  -3.3676  -3.3114  -3.2656  -3.2007  -3.1565

          k = 0.4494-0.2595-0.9332 ( 32643 PWs)   bands (ev):

   -21.4071 -21.3960 -21.3014 -21.2217 -21.1337 -21.0835 -20.9879 -20.9305
   -20.8086 -20.7988 -20.7366 -20.6523  -9.2243  -9.2096  -9.1738  -9.1068
    -9.0770  -8.9700  -8.9399  -8.8381  -8.7769  -8.7406  -8.6666  -8.6493
    -6.7426  -6.6330  -6.4282  -6.3385  -6.0466  -5.6970  -5.5213  -5.3030
    -5.0053  -4.8643  -4.8031  -4.4953  -3.7893  -3.7277  -3.6958  -3.5801
    -3.5390  -3.5116  -3.3792  -3.3437  -3.3308  -3.2778  -3.2010  -3.1219

          k = 0.2996-0.3460-0.6221 ( 32634 PWs)   bands (ev):

   -21.3973 -21.3341 -21.2932 -21.2562 -21.1612 -21.1444 -20.9454 -20.9210
   -20.8090 -20.7866 -20.7549 -20.6596  -9.2300  -9.1723  -9.1509  -9.1348
    -9.1137  -8.9683  -8.8491  -8.8361  -8.7446  -8.7298  -8.6746  -8.6676
    -6.6932  -6.6546  -6.4237  -6.3910  -5.9892  -5.9538  -5.3197  -5.2748
    -5.0060  -4.9832  -4.7262  -4.5510  -3.8537  -3.7395  -3.6991  -3.6024
    -3.5684  -3.4729  -3.4143  -3.3765  -3.3613  -3.2365  -3.2137  -3.1106

          k = 0.0000 0.0000-1.8663 ( 32622 PWs)   bands (ev):

   -21.3725 -21.2993 -21.2993 -21.2741 -21.1912 -21.1912 -20.9002 -20.9002
   -20.8139 -20.8139 -20.7627 -20.6443  -9.2341  -9.1468  -9.1468  -9.1293
    -9.1293  -8.9286  -8.8676  -8.8578  -8.7242  -8.7242  -8.7041  -8.7041
    -6.6840  -6.5607  -6.3075  -6.3075  -6.1610  -6.1610  -5.1361  -5.1361
    -5.1298  -5.1298  -4.6865  -4.5055  -3.8632  -3.7340  -3.7340  -3.6283
    -3.6283  -3.4393  -3.4187  -3.3324  -3.3324  -3.2479  -3.2479  -3.0809

          k = 0.2996-0.3460 0.3111 ( 32621 PWs)   bands (ev):

   -21.4619 -21.3548 -21.2749 -21.2074 -21.1510 -21.1141 -20.9454 -20.9110
   -20.8584 -20.7807 -20.7412 -20.6576  -9.2401  -9.2016  -9.1520  -9.1268
    -9.0713  -9.0270  -8.9055  -8.8544  -8.8029  -8.6703  -8.6587  -8.6337
    -6.8851  -6.5830  -6.4259  -6.2076  -6.1463  -5.7736  -5.3968  -5.1490
    -5.0889  -4.9329  -4.8272  -4.5310  -3.7738  -3.7023  -3.6692  -3.5801
    -3.4951  -3.4615  -3.4218  -3.3968  -3.3640  -3.2541  -3.1965  -3.1368

     highest occupied level (ev):    -3.0809

!    total energy              =    -418.05302249 Ry
     estimated scf accuracy    <       0.00000001 Ry

     The total energy is the sum of the following terms:
     one-electron contribution =    -310.50501328 Ry
     hartree contribution      =     188.36528108 Ry
     xc contribution           =    -105.69689621 Ry
     ewald contribution        =    -190.21639408 Ry

     convergence has been achieved in   6 iterations

     Forces acting on atoms (cartesian axes, Ry/au):

     atom    1 type  2   force =    -0.00309705    0.00207006   -0.00127411
     atom    2 type  2   force =     0.00309705   -0.00207006    0.00127411
     atom    3 type  2   force =    -0.00024420   -0.00371716   -0.00127411
     atom    4 type  2   force =     0.00024420    0.00371716    0.00127411
     atom    5 type  2   force =     0.00334125    0.00164709   -0.00127411
     atom    6 type  2   force =    -0.00334125   -0.00164709    0.00127411
     atom    7 type  2   force =    -0.00373260    0.00063902   -0.00538107
     atom    8 type  2   force =     0.00373260   -0.00063902    0.00538107
     atom    9 type  2   force =     0.00131290   -0.00355204   -0.00538107
     atom   10 type  2   force =    -0.00131290    0.00355204    0.00538107
     atom   11 type  2   force =     0.00241970    0.00291302   -0.00538107
     atom   12 type  2   force =    -0.00241970   -0.00291302    0.00538107
     atom   13 type  1   force =    -0.00129076   -0.00597544   -0.00194019
     atom   14 type  1   force =     0.00129076    0.00597544    0.00194019
     atom   15 type  1   force =     0.00582026    0.00186989   -0.00194019
     atom   16 type  1   force =    -0.00582026   -0.00186989    0.00194019
     atom   17 type  1   force =    -0.00452950    0.00410555   -0.00194019
     atom   18 type  1   force =     0.00452950   -0.00410555    0.00194019
     atom   19 type  1   force =     0.00684244    0.00106124   -0.00142456
     atom   20 type  1   force =    -0.00684244   -0.00106124    0.00142456
     atom   21 type  1   force =    -0.00434028    0.00539510   -0.00142456
     atom   22 type  1   force =     0.00434028   -0.00539510    0.00142456
     atom   23 type  1   force =    -0.00250215   -0.00645635   -0.00142456
     atom   24 type  1   force =     0.00250215    0.00645635    0.00142456
     atom   25 type  1   force =     0.00184356   -0.00347617    0.00322276
     atom   26 type  1   force =    -0.00184356    0.00347617   -0.00322276
     atom   27 type  1   force =     0.00208867    0.00333465    0.00322276
     atom   28 type  1   force =    -0.00208867   -0.00333465   -0.00322276
     atom   29 type  1   force =    -0.00393223    0.00014152    0.00322276
     atom   30 type  1   force =     0.00393223   -0.00014152   -0.00322276
     atom   31 type  1   force =    -0.00548378   -0.00008394    0.00283839
     atom   32 type  1   force =     0.00548378    0.00008394   -0.00283839
     atom   33 type  1   force =     0.00281458   -0.00470712    0.00283839
     atom   34 type  1   force =    -0.00281458    0.00470712   -0.00283839
     atom   35 type  1   force =     0.00266920    0.00479106    0.00283839
     atom   36 type  1   force =    -0.00266920   -0.00479106   -0.00283839

     Total force =     0.035826     Total SCF correction =     0.000222


     Computing stress (Cartesian axis) and pressure

          total   stress  (Ry/bohr**3)                   (kbar)     P=      -14.61
  -0.00012125   0.00000000   0.00000000          -17.84        0.00        0.00
  -0.00000000  -0.00012125  -0.00000000           -0.00      -17.84       -0.00
  -0.00000000  -0.00000000  -0.00005547           -0.00       -0.00       -8.16

     Energy error            =      1.4E-02 Ry
     Gradient error          =      6.8E-03 Ry/Bohr

     number of scf cycles    =   4
     number of bfgs steps    =   3

     energy             old  =    -418.0392847747 Ry
     energy             new  =    -418.0530224865 Ry

     CASE: energy            _new < energy            _old

     new trust radius        =       0.0140674237 bohr
     new conv_thr            =       0.0000000068 Ry


ATOMIC_POSITIONS (crystal)
O                0.2736878956        0.0372892843        0.8605913598
O                0.7263121044        0.9627107267        0.1394086102
O                0.8605913598        0.2736878956        0.0372892843
O                0.1394086102        0.7263121044        0.9627107267
O                0.0372892843        0.8605913598        0.2736878956
O                0.9627107267        0.1394086102        0.7263121044
O                0.4697602390        0.7471772263        0.3294968072
O                0.5302397610        0.2528227737        0.6705031628
O                0.3294968072        0.4697602390        0.7471772263
O                0.6705031628        0.5302397610        0.2528227737
O                0.7471772263        0.3294968072        0.4697602390
O                0.2528227737        0.6705031628        0.5302397610
H                0.1524783611        0.0537538772        0.7985340494
H                0.8475216249        0.9462461148        0.2014659506
H                0.7985340494        0.1524783611        0.0537538772
H                0.2014659506        0.8475216249        0.9462461148
[...]
H                0.1920170518        0.9804829281        0.4186801905
H                0.8079829632        0.0195170509        0.5813198095
H                0.7306697780        0.4054758851        0.4071713878
H                0.2693302220        0.5945240849        0.5928286422
H                0.4071713878        0.7306697780        0.4054758851
H                0.5928286422        0.2693302220        0.5945240849
H                0.4054758851        0.4071713878        0.7306697780
H                0.5945240849        0.5928286422        0.2693302220
H                0.7446535502        0.2053301436        0.3729875357
H                0.2553464498        0.7946698414        0.6270124643
H                0.3729875357        0.7446535502        0.2053301436
H                0.6270124643        0.2553464498        0.7946698414
H                0.2053301436        0.3729875357        0.7446535502
H                0.7946698414        0.6270124643        0.2553464498



     Writing config-only to output data dir ./iceII/iceII.save/ :
     XML data file
     NEW-OLD atomic charge density approx. for the potential

     negative rho (up, down):  1.507E-07 0.000E+00

     total cpu time spent up to now is      260.5 secs

     per-process dynamical memory:    39.9 Mb

     Self-consistent Calculation

     iteration #  1     ecut=    90.00 Ry     beta= 0.70
     Davidson diagonalization with overlap
     ethr =  1.00E-06,  avg # of iterations =  3.0

     Threshold (ethr) on eigenvalues was too large:
     Diagonalizing with lowered threshold

     Davidson diagonalization with overlap
     ethr =  4.79E-08,  avg # of iterations =  2.0

     negative rho (up, down):  1.624E-07 0.000E+00

     total cpu time spent up to now is      262.6 secs

     total energy              =    -418.06185530 Ry
     estimated scf accuracy    <       0.00005137 Ry

     iteration #  2     ecut=    90.00 Ry     beta= 0.70
     Davidson diagonalization with overlap
     ethr =  5.35E-08,  avg # of iterations =  2.0

     negative rho (up, down):  1.789E-07 0.000E+00

     total cpu time spent up to now is      263.6 secs

     total energy              =    -418.06186277 Ry
     estimated scf accuracy    <       0.00000352 Ry

     iteration #  3     ecut=    90.00 Ry     beta= 0.70
     Davidson diagonalization with overlap
     ethr =  3.67E-09,  avg # of iterations =  2.6

     negative rho (up, down):  1.796E-07 0.000E+00

     total cpu time spent up to now is      264.7 secs

     total energy              =    -418.06186350 Ry
     estimated scf accuracy    <       0.00000062 Ry

     iteration #  4     ecut=    90.00 Ry     beta= 0.70
     Davidson diagonalization with overlap
     ethr =  6.46E-10,  avg # of iterations =  2.7

     negative rho (up, down):  1.796E-07 0.000E+00

     total cpu time spent up to now is      265.8 secs

     total energy              =    -418.06186366 Ry
     estimated scf accuracy    <       0.00000006 Ry

     iteration #  5     ecut=    90.00 Ry     beta= 0.70
     Davidson diagonalization with overlap
     ethr =  5.77E-11,  avg # of iterations =  2.6

     negative rho (up, down):  1.795E-07 0.000E+00

     total cpu time spent up to now is      266.9 secs

     total energy              =    -418.06186367 Ry
     estimated scf accuracy    <          5.2E-09 Ry

     iteration #  6     ecut=    90.00 Ry     beta= 0.70
     Davidson diagonalization with overlap
     ethr =  5.39E-12,  avg # of iterations =  3.0

     negative rho (up, down):  1.793E-07 0.000E+00

     total cpu time spent up to now is      268.0 secs

     End of self-consistent calculation

          k = 0.0000 0.0000 0.0000 ( 32605 PWs)   bands (ev):

   -21.5921 -21.2332 -21.2332 -21.0759 -21.0759 -21.0522 -21.0450 -21.0450
   -21.0433 -20.8222 -20.8222 -20.5836  -9.1894  -9.1316  -9.1316  -9.1132
    -9.0516  -9.0516  -8.8223  -8.8223  -8.8066  -8.8057  -8.7807  -8.7807
    -7.2135  -6.3352  -6.3352  -5.8146  -5.8146  -5.6619  -5.6619  -5.5253
    -5.4394  -4.8508  -4.8508  -4.2076  -3.6658  -3.6658  -3.6396  -3.5137
    -3.5137  -3.4770  -3.3693  -3.3693  -3.3525  -3.3093  -3.2524  -3.2524

          k =-0.1498-0.0865 0.3111 ( 32623 PWs)   bands (ev):

   -21.5353 -21.2663 -21.2267 -21.1824 -21.1527 -21.1042 -21.0098 -20.9753
   -20.9311 -20.8242 -20.7929 -20.6278  -9.1649  -9.1437  -9.1241  -9.0990
    -9.0446  -9.0231  -8.8631  -8.8441  -8.8344  -8.7833  -8.7471  -8.7333
    -7.0769  -6.4783  -6.3674  -6.0842  -5.8814  -5.6771  -5.5153  -5.4259
    -5.2664  -4.8452  -4.7896  -4.3371  -3.7342  -3.6772  -3.6453  -3.5610
    -3.5544  -3.5128  -3.4290  -3.3660  -3.3216  -3.3075  -3.2609  -3.2413

          k = 0.2996 0.1730-0.6221 ( 32598 PWs)   bands (ev):

   -21.3897 -21.3872 -21.2484 -21.2447 -21.1528 -21.1494 -20.9724 -20.9666
   -20.8359 -20.8168 -20.7385 -20.7309  -9.1527  -9.1383  -9.1008  -9.0975
    -9.0427  -8.9914  -8.8855  -8.8822  -8.8356  -8.7789  -8.7125  -8.7012
    -6.7862  -6.7171  -6.3608  -6.3552  -5.8587  -5.8123  -5.4068  -5.3513
    -4.9488  -4.8900  -4.7471  -4.5595  -3.7990  -3.6914  -3.6245  -3.6224
    -3.5721  -3.5570  -3.4631  -3.3717  -3.3681  -3.2804  -3.2421  -3.2280

          k =-0.1498 0.0865 0.6221 ( 32608 PWs)   bands (ev):

   -21.4220 -21.3148 -21.3031 -21.2131 -21.1905 -21.1427 -20.9754 -20.9165
   -20.8798 -20.7901 -20.7775 -20.7077  -9.1537  -9.1330  -9.1052  -9.1026
    -9.0367  -8.9891  -8.8835  -8.8752  -8.8631  -8.7439  -8.7265  -8.7069
    -6.8339  -6.5862  -6.5509  -6.1668  -5.9794  -5.8239  -5.4092  -5.1994
    -5.0995  -4.8223  -4.7593  -4.5673  -3.7852  -3.7157  -3.6193  -3.6102
    -3.5739  -3.5447  -3.4823  -3.3724  -3.3513  -3.2873  -3.2566  -3.2162

          k = 0.2996 0.3460-0.3111 ( 32621 PWs)   bands (ev):

   -21.4594 -21.3337 -21.2666 -21.2262 -21.1789 -21.1269 -20.9741 -20.8985
   -20.8745 -20.8274 -20.7697 -20.6926  -9.1533  -9.1491  -9.1109  -9.0824
    -9.0374  -9.0149  -8.9224  -8.8932  -8.8681  -8.7543  -8.7346  -8.7039
    -6.8406  -6.5704  -6.4160  -6.2103  -6.1314  -5.7077  -5.3369  -5.2401
    -5.1199  -4.8598  -4.7628  -4.5212  -3.7371  -3.6853  -3.6356  -3.5999
    -3.5462  -3.5038  -3.4412  -3.4144  -3.3317  -3.3255  -3.2439  -3.1857

          k = 0.1498 0.2595 0.0000 ( 32622 PWs)   bands (ev):

   -21.5502 -21.2889 -21.2456 -21.1616 -21.1429 -21.0818 -21.0116 -20.9586
   -20.9300 -20.8284 -20.8044 -20.6198  -9.1753  -9.1360  -9.1298  -9.0988
    -9.0519  -9.0428  -8.8899  -8.8666  -8.8390  -8.7809  -8.7638  -8.7349
    -7.0689  -6.3822  -6.3095  -6.1056  -6.0881  -5.6155  -5.4453  -5.3269
    -5.3039  -4.8784  -4.8401  -4.3022  -3.6679  -3.6525  -3.6499  -3.5554
    -3.5126  -3.4951  -3.4119  -3.3950  -3.3494  -3.3124  -3.2259  -3.2118

          k = 0.2996-0.1730-1.2442 ( 32676 PWs)   bands (ev):

   -21.4532 -21.4143 -21.2536 -21.2031 -21.1397 -21.1028 -20.9637 -20.9525
   -20.8572 -20.8558 -20.7155 -20.7120  -9.1550  -9.1423  -9.1214  -9.0865
    -9.0480  -9.0400  -8.9409  -8.9016  -8.8556  -8.7622  -8.7590  -8.7188
    -6.7227  -6.6786  -6.3930  -6.2456  -6.0410  -5.7382  -5.2778  -5.2629
    -5.1156  -4.9678  -4.6532  -4.5392  -3.6743  -3.6479  -3.6438  -3.5889
    -3.5090  -3.4898  -3.4582  -3.4043  -3.3788  -3.3012  -3.2002  -3.1875

          k = 0.0000 0.0000 0.9332 ( 32652 PWs)   bands (ev):

   -21.3761 -21.3761 -21.3028 -21.2907 -21.1480 -21.1480 -20.9145 -20.9145
   -20.8199 -20.7980 -20.7699 -20.7699  -9.1489  -9.1489  -9.1143  -9.0448
    -9.0448  -9.0387  -8.9634  -8.8937  -8.8937  -8.7161  -8.7161  -8.6959
    -6.6319  -6.6319  -6.5849  -6.2775  -5.9789  -5.9789  -5.1311  -5.1311
    -5.0232  -4.8141  -4.8141  -4.7459  -3.6949  -3.6949  -3.6183  -3.5909
    -3.5263  -3.5263  -3.4987  -3.3778  -3.3778  -3.2849  -3.2849  -3.1651

          k = 0.4494 0.2595 0.0000 ( 32660 PWs)   bands (ev):

   -21.4731 -21.3441 -21.3304 -21.2051 -21.0978 -21.0903 -20.9893 -20.9750
   -20.8563 -20.7987 -20.7778 -20.6855  -9.1545  -9.1350  -9.1316  -9.0796
    -9.0610  -9.0287  -8.9441  -8.8949  -8.8699  -8.7595  -8.7452  -8.7271
    -6.8164  -6.4593  -6.4275  -6.3727  -6.0036  -5.7214  -5.3652  -5.2849
    -5.0109  -4.8829  -4.7959  -4.4948  -3.6625  -3.6569  -3.6436  -3.5785
    -3.5425  -3.4943  -3.4368  -3.4068  -3.3749  -3.2812  -3.2287  -3.1772

          k = 0.2996 0.1730 0.3111 ( 32644 PWs)   bands (ev):

   -21.4960 -21.2975 -21.2389 -21.2244 -21.1670 -21.1139 -20.9881 -20.9472
   -20.9101 -20.8124 -20.7754 -20.6574  -9.1604  -9.1419  -9.1192  -9.0783
    -9.0476  -9.0077  -8.8926  -8.8637  -8.8249  -8.7998  -8.7740  -8.7198
    -6.9447  -6.4626  -6.4267  -6.1489  -6.0557  -5.6839  -5.4437  -5.2824
    -5.2454  -4.8215  -4.7752  -4.4027  -3.7576  -3.6799  -3.6505  -3.6053
    -3.5670  -3.4854  -3.4449  -3.3893  -3.3139  -3.3113  -3.2319  -3.2197

          k = 0.4494-0.2595-0.9332 ( 32643 PWs)   bands (ev):

   -21.3982 -21.3859 -21.2855 -21.2511 -21.1578 -21.0898 -21.0166 -20.9381
   -20.8432 -20.7968 -20.7599 -20.7052  -9.1561  -9.1316  -9.1182  -9.0622
    -9.0377  -8.9995  -8.9111  -8.8885  -8.8564  -8.8004  -8.7625  -8.7299
    -6.6832  -6.5924  -6.4772  -6.2715  -6.0808  -5.6978  -5.5040  -5.2368
    -5.0111  -4.8102  -4.7752  -4.5084  -3.7666  -3.6947  -3.6679  -3.6173
    -3.5872  -3.4956  -3.4182  -3.3991  -3.3311  -3.2979  -3.2280  -3.1915

          k = 0.2996-0.3460-0.6221 ( 32634 PWs)   bands (ev):

   -21.3601 -21.3591 -21.2774 -21.2721 -21.1709 -21.1691 -20.9539 -20.9514
   -20.8293 -20.8228 -20.7435 -20.7231  -9.1602  -9.1095  -9.0952  -9.0818
    -9.0624  -8.9574  -8.8976  -8.8844  -8.8374  -8.7926  -8.7390  -8.7304
    -6.6862  -6.6591  -6.4095  -6.3700  -5.9319  -5.9015  -5.3393  -5.2885
    -4.9680  -4.9387  -4.6940  -4.5439  -3.8233  -3.7007  -3.6679  -3.6556
    -3.6143  -3.5015  -3.4080  -3.4014  -3.3584  -3.2727  -3.2607  -3.1946

          k = 0.0000 0.0000-1.8663 ( 32622 PWs)   bands (ev):

   -21.3281 -21.3218 -21.2601 -21.2601 -21.2467 -21.2467 -20.8800 -20.8800
   -20.8797 -20.8797 -20.7391 -20.7106  -9.1609  -9.0802  -9.0802  -9.0757
    -9.0757  -8.9497  -8.8928  -8.8759  -8.8247  -8.8247  -8.7674  -8.7674
    -6.6829  -6.5627  -6.2533  -6.2533  -6.1621  -6.1621  -5.1091  -5.1091
    -5.1036  -5.1036  -4.6418  -4.5233  -3.8348  -3.6982  -3.6982  -3.6831
    -3.6831  -3.4517  -3.4189  -3.3332  -3.3332  -3.2998  -3.2998  -3.1660

          k = 0.2996-0.3460 0.3111 ( 32621 PWs)   bands (ev):

   -21.4593 -21.3341 -21.2650 -21.2288 -21.1772 -21.1269 -20.9720 -20.8939
   -20.8896 -20.8153 -20.7731 -20.6931  -9.1582  -9.1403  -9.1162  -9.0697
    -9.0501  -9.0150  -8.9268  -8.8896  -8.8675  -8.7502  -8.7301  -8.7108
    -6.8422  -6.5588  -6.4507  -6.1825  -6.0997  -5.7571  -5.4112  -5.1417
    -5.0531  -4.9158  -4.8041  -4.5001  -3.7439  -3.6735  -3.6391  -3.5901
    -3.5494  -3.5028  -3.4516  -3.4235  -3.3438  -3.2971  -3.2463  -3.1893

     highest occupied level (ev):    -3.1651

!    total energy              =    -418.06186367 Ry
     estimated scf accuracy    <          3.9E-10 Ry

     The total energy is the sum of the following terms:
     one-electron contribution =    -312.73986506 Ry
     hartree contribution      =     189.48393907 Ry
     xc contribution           =    -105.72348997 Ry
     ewald contribution        =    -189.08244772 Ry

     convergence has been achieved in   6 iterations

     Forces acting on atoms (cartesian axes, Ry/au):

     atom    1 type  2   force =    -0.00005666   -0.00091129   -0.00024442
     atom    2 type  2   force =     0.00005666    0.00091129    0.00024442
     atom    3 type  2   force =     0.00081753    0.00040658   -0.00024442
     atom    4 type  2   force =    -0.00081753   -0.00040658    0.00024442
     atom    5 type  2   force =    -0.00076087    0.00050471   -0.00024442
     atom    6 type  2   force =     0.00076087   -0.00050471    0.00024442
     atom    7 type  2   force =    -0.00023637   -0.00023289    0.00082353
     atom    8 type  2   force =     0.00023637    0.00023289   -0.00082353
     atom    9 type  2   force =     0.00031987   -0.00008826    0.00082353
     atom   10 type  2   force =    -0.00031987    0.00008826   -0.00082353
     atom   11 type  2   force =    -0.00008350    0.00032115    0.00082353
     atom   12 type  2   force =     0.00008350   -0.00032115   -0.00082353
     atom   13 type  1   force =    -0.00029726    0.00036275    0.00083319
     atom   14 type  1   force =     0.00029726   -0.00036275   -0.00083319
     atom   15 type  1   force =    -0.00016552   -0.00043881    0.00083319
     atom   16 type  1   force =     0.00016552    0.00043881   -0.00083319
     atom   17 type  1   force =     0.00046278    0.00007606    0.00083319
     atom   18 type  1   force =    -0.00046278   -0.00007606   -0.00083319
     atom   19 type  1   force =     0.00008504    0.00002326    0.00004418
     atom   20 type  1   force =    -0.00008504   -0.00002326   -0.00004418
     atom   21 type  1   force =    -0.00006267    0.00006201    0.00004418
     atom   22 type  1   force =     0.00006267   -0.00006201   -0.00004418
     atom   23 type  1   force =    -0.00002237   -0.00008528    0.00004418
     atom   24 type  1   force =     0.00002237    0.00008528   -0.00004418
     atom   25 type  1   force =    -0.00042002    0.00074616    0.00013510
     atom   26 type  1   force =     0.00042002   -0.00074616   -0.00013510
     atom   27 type  1   force =    -0.00043618   -0.00073683    0.00013510
     atom   28 type  1   force =     0.00043618    0.00073683   -0.00013510
     atom   29 type  1   force =     0.00085620   -0.00000933    0.00013510
     atom   30 type  1   force =    -0.00085620    0.00000933   -0.00013510
     atom   31 type  1   force =    -0.00045723   -0.00064603   -0.00007248
     atom   32 type  1   force =     0.00045723    0.00064603    0.00007248
     atom   33 type  1   force =     0.00078810   -0.00007296   -0.00007248
     atom   34 type  1   force =    -0.00078810    0.00007296    0.00007248
     atom   35 type  1   force =    -0.00033087    0.00071899   -0.00007248
     atom   36 type  1   force =     0.00033087   -0.00071899    0.00007248

     Total force =     0.004892     Total SCF correction =     0.000027


     Computing stress (Cartesian axis) and pressure

          total   stress  (Ry/bohr**3)                   (kbar)     P=      -12.29
  -0.00008472  -0.00000000   0.00000000          -12.46       -0.00        0.00
   0.00000000  -0.00008472  -0.00000000            0.00      -12.46       -0.00
   0.00000000  -0.00000000  -0.00008119            0.00       -0.00      -11.94

     Energy error            =      5.6E-05 Ry
     Gradient error          =      9.1E-04 Ry/Bohr

     bfgs converged in  26 scf cycles and  25 bfgs steps
     (criteria: energy <  1.0E-04 Ry, force <  1.0E-03 Ry/Bohr)

     End of BFGS Geometry Optimization

     Final energy             =    -418.0618636704 Ry

     File ./iceII/iceII.bfgs deleted, as requested
Begin final coordinates

ATOMIC_POSITIONS (crystal)
O                0.2699930020        0.0249411971        0.8537109244
O                0.7300069980        0.9750588139        0.1462890456
O                0.8537109244        0.2699930020        0.0249411971
O                0.1462890456        0.7300069980        0.9750588139
O                0.0249411971        0.8537109244        0.2699930020
O                0.9750588139        0.1462890456        0.7300069980
O                0.4769061114        0.7503748779        0.3298654651
O                0.5230938886        0.2496251221        0.6701345049
O                0.3298654651        0.4769061114        0.7503748779
O                0.6701345049        0.5230938886        0.2496251221
O                0.7503748779        0.3298654651        0.4769061114
O                0.2496251221        0.6701345049        0.5230938886
H                0.1453629021        0.0369038698        0.7912140752
H                0.8546370839        0.9630961222        0.2087859248
H                0.7912140752        0.1453629021        0.0369038698
H                0.2087859248        0.8546370839        0.9630961222
H                0.0369038698        0.7912140752        0.1453629021
H                0.9630961222        0.2087859248        0.8546370839
H                0.4186801905        0.1920170518        0.9804829281
H                0.5813198095        0.8079829632        0.0195170509
H                0.9804829281        0.4186801905        0.1920170518
H                0.0195170509        0.5813198095        0.8079829632
H                0.1920170518        0.9804829281        0.4186801905
H                0.8079829632        0.0195170509        0.5813198095
H                0.7306697780        0.4054758851        0.4071713878
H                0.2693302220        0.5945240849        0.5928286422
H                0.4071713878        0.7306697780        0.4054758851
H                0.5928286422        0.2693302220        0.5945240849
H                0.4054758851        0.4071713878        0.7306697780
H                0.5945240849        0.5928286422        0.2693302220
H                0.7446535502        0.2053301436        0.3729875357
H                0.2553464498        0.7946698414        0.6270124643
H                0.3729875357        0.7446535502        0.2053301436
H                0.6270124643        0.2553464498        0.7946698414
H                0.2053301436        0.3729875357        0.7446535502
H                0.7946698414        0.6270124643        0.2553464498
End final coordinates



     Writing all to output data dir ./iceII/iceII.save/ :
     XML data file, charge density, pseudopotentials, collected wavefunctions

     init_run     :      2.93s CPU      3.02s WALL (       1 calls)
     electrons    :    215.23s CPU    224.00s WALL (      26 calls)
     update_pot   :      4.48s CPU      5.30s WALL (      25 calls)
     forces       :      3.83s CPU      3.86s WALL (      26 calls)
     stress       :     30.39s CPU     31.14s WALL (      26 calls)

     Called by init_run:
     wfcinit      :      0.36s CPU      0.37s WALL (       1 calls)
     potinit      :      1.71s CPU      1.77s WALL (       1 calls)
     hinit0       :      0.67s CPU      0.68s WALL (       1 calls)

     Called by electrons:
     c_bands      :    157.81s CPU    159.74s WALL (     193 calls)
     sum_band     :     22.23s CPU     22.41s WALL (     193 calls)
     v_of_rho     :     38.87s CPU     44.90s WALL (     211 calls)
     newd         :      1.03s CPU      1.07s WALL (     211 calls)
     mix_rho      :      0.64s CPU      0.65s WALL (     193 calls)
     vdW_kernel   :      1.51s CPU      1.52s WALL (       1 calls)

     Called by c_bands:
     init_us_2    :      2.93s CPU      3.02s WALL (    1756 calls)
     cegterg      :    152.59s CPU    154.08s WALL (     772 calls)

     Called by *egterg:
     cdiaghg      :     10.94s CPU     10.96s WALL (    2835 calls)
     h_psi        :    115.11s CPU    116.19s WALL (    2971 calls)
     s_psi        :      5.02s CPU      5.19s WALL (    2971 calls)
     g_psi        :      0.33s CPU      0.33s WALL (    2195 calls)

     Called by h_psi:
     h_psi:calbec :      8.40s CPU      8.46s WALL (    2971 calls)
     vloc_psi     :    100.68s CPU    101.65s WALL (    2971 calls)
     add_vuspsi   :      5.14s CPU      5.15s WALL (    2971 calls)

     General routines
     calbec       :     12.21s CPU     12.30s WALL (    4263 calls)
     fft          :     20.75s CPU     23.91s WALL (   14256 calls)
     ffts         :      0.26s CPU      0.26s WALL (     193 calls)
     fftw         :    105.04s CPU    106.00s WALL (  269300 calls)

     Parallel routines

     PWSCF        :   4m18.66s CPU   4m30.17s WALL


   This run was terminated on:  15:27:56   1Apr2026            

=------------------------------------------------------------------------------=
   JOB DONE.
=------------------------------------------------------------------------------=
