
     Program PWSCF v.7.3.1 starts on 26Mar2026 at 15: 1:49 

     This program is part of the open-source Quantum ESPRESSO suite
     for quantum simulation of materials; please cite
         "P. Giannozzi et al., J. Phys.:Condens. Matter 21 395502 (2009);
         "P. Giannozzi et al., J. Phys.:Condens. Matter 29 465901 (2017);
         "P. Giannozzi et al., J. Chem. Phys. 152 154105 (2020);
          URL http://www.quantum-espresso.org", 
     in publications or presentations arising from this work. More details at
     http://www.quantum-espresso.org/quote

     Parallel version (MPI), running on   128 processors

     MPI processes distributed on     1 nodes
     242725 MiB available memory on the printing compute node when the environment starts

     Waiting for input...
     Reading input from standard input

     Current dimensions of program PWSCF are:
     Max number of different atomic species (ntypx) = 10
     Max number of k-points (npk) =  40000
     Max angular momentum in pseudopotentials (lmaxx) =  4

     IMPORTANT: XC functional enforced from input :
     Exchange-correlation= VDW-DF2
                           (   1   4  13   0   2   0   0)
     Any further DFT definition will be discarded
     Please, verify this is what you really want


     K-points division:     npool     =       4
     R & G space division:  proc/nbgrp/npool/nimage =      32
     Subspace diagonalization in iterative solution of the eigenvalue problem:
     a serial algorithm will be used


     Parallelization info
     --------------------
     sticks:   dense  smooth     PW     G-vecs:    dense   smooth      PW
     Min         189     189     55                 8177     8177    1294
     Max         190     190     56                 8182     8182    1297
     Sum        6075    6075   1775               261745   261745   41443

     Using Slab Decomposition



     bravais-lattice index     =            5
     lattice parameter (alat)  =      15.2019  a.u.
     unit-cell volume          =    2269.8090 (a.u.)^3
     number of atoms/cell      =           36
     number of atomic types    =            2
     number of electrons       =        96.00
     number of Kohn-Sham states=           48
     kinetic-energy cutoff     =      90.0000  Ry
     charge density cutoff     =     360.0000  Ry
     scf convergence threshold =      1.0E-07
     mixing beta               =       0.7000
     number of iterations used =            8  plain     mixing
     Exchange-correlation= VDW-DF2
                           (   1   4  13   0   2   0   0)

     celldm(1)=  15.201939  celldm(2)=   0.000000  celldm(3)=   0.000000
     celldm(4)=  -0.392337  celldm(5)=   0.000000  celldm(6)=   0.000000

     crystal axes: (cart. coord. in units of alat)
               a(1) = (   0.834367  -0.481722   0.267909 )  
               a(2) = (   0.000000   0.963444   0.267909 )  
               a(3) = (  -0.834367  -0.481722   0.267909 )  

     reciprocal axes: (cart. coord. in units 2 pi/alat)
               b(1) = (  0.599257 -0.345981  1.244203 )  
               b(2) = (  0.000000  0.691962  1.244203 )  
               b(3) = ( -0.599257 -0.345981  1.244203 )  


     PseudoPot. # 1 for H  read from file:
     ./H.pbe-van_ak.UPF
     MD5 check sum: 077eb6d537518a38cb46c6de387227b7
     Pseudo is Ultrasoft, Zval =  1.0
     Generated by new atomic code, or converted to UPF format
     Using radial grid of  615 points,  1 beta functions with: 
                l(1) =   0
     Q(r) pseudized with  8 coefficients,  rinner =    0.800

     PseudoPot. # 2 for O  read from file:
     ./O.pbe-van_ak.UPF
     MD5 check sum: 78c19812648e8988a0fe644b0f25305e
     Pseudo is Ultrasoft, Zval =  6.0
     Generated by new atomic code, or converted to UPF format
     Using radial grid of  737 points,  4 beta functions with: 
                l(1) =   0
                l(2) =   0
                l(3) =   1
                l(4) =   1
     Q(r) pseudized with  8 coefficients,  rinner =    0.800   0.800   0.800


     atomic species   valence    mass     pseudopotential
     H                 1.00     1.00800     H ( 1.00)
     O                 6.00    16.00000     O ( 1.00)

      6 Sym. Ops., with inversion, found



   Cartesian axes

     site n.     atom                  positions (alat units)
         1        O      tau(   1) = (  -0.4881587  -0.5153728   0.3102004  )
         2        O      tau(   2) = (   0.4881587   0.5153729   0.4935268  )
         3        O      tau(   3) = (   0.6904053  -0.1650714   0.3102004  )
         4        O      tau(   4) = (  -0.6904053   0.1650714   0.4935268  )
         5        O      tau(   5) = (  -0.2022466   0.6804442   0.3102004  )
         6        O      tau(   6) = (   0.2022466  -0.6804442   0.4935268  )
         7        O      tau(   7) = (   0.1208629   0.3351200   0.4137471  )
         8        O      tau(   8) = (  -0.1208629  -0.3351200   0.3899800  )
         9        O      tau(   9) = (  -0.3506539  -0.0628897   0.4137471  )
        10        O      tau(  10) = (   0.3506539   0.0628897   0.3899800  )
        11        O      tau(  11) = (   0.2297910  -0.2722304   0.4137471  )
        12        O      tau(  12) = (  -0.2297910   0.2722304   0.3899800  )
        13        H      tau(  13) = (  -0.5430428  -0.4102686   0.2622098  )
        14        H      tau(  14) = (   0.5430428   0.4102686   0.5415173  )
        15        H      tau(  15) = (   0.6268245  -0.2651546   0.2622098  )
        16        H      tau(  16) = (  -0.6268245   0.2651546   0.5415173  )
        17        H      tau(  17) = (  -0.0837816   0.6754232   0.2622098  )
        18        H      tau(  18) = (   0.0837817  -0.6754232   0.5415173  )
        19        H      tau(  19) = (  -0.4681736  -0.4859583   0.4327384  )
        20        H      tau(  20) = (   0.4681736   0.4859583   0.3709887  )
        21        H      tau(  21) = (   0.6549390  -0.1624711   0.4327384  )
        22        H      tau(  22) = (  -0.6549390   0.1624711   0.3709887  )
        23        H      tau(  23) = (  -0.1867654   0.6484294   0.4327384  )
        24        H      tau(  24) = (   0.1867654  -0.6484294   0.3709887  )
        25        H      tau(  25) = (   0.2718867  -0.1516220   0.4118766  )
        26        H      tau(  26) = (  -0.2718867   0.1516219   0.3918506  )
        27        H      tau(  27) = (  -0.0046349   0.3112717   0.4118766  )
        28        H      tau(  28) = (   0.0046349  -0.3112717   0.3918506  )
        29        H      tau(  29) = (  -0.2672518  -0.1596498   0.4118766  )
        30        H      tau(  30) = (   0.2672518   0.1596498   0.3918506  )
        31        H      tau(  31) = (   0.3136186  -0.3416266   0.3473301  )
        32        H      tau(  32) = (  -0.3136186   0.3416266   0.4563970  )
        33        H      tau(  33) = (   0.1390481   0.4424150   0.3473301  )
        34        H      tau(  34) = (  -0.1390480  -0.4424150   0.4563970  )
        35        H      tau(  35) = (  -0.4526667  -0.1007884   0.3473301  )
        36        H      tau(  36) = (   0.4526666   0.1007884   0.4563970  )

     number of k points=    14
                       cart. coord. in units 2pi/alat
        k(    1) = (   0.0000000   0.0000000   0.0000000), wk =   0.0312500
        k(    2) = (  -0.1498141  -0.0864952   0.3110508), wk =   0.1875000
        k(    3) = (   0.2996283   0.1729905  -0.6221017), wk =   0.0937500
        k(    4) = (  -0.1498141   0.0864952   0.6221017), wk =   0.1875000
        k(    5) = (   0.2996283   0.3459809  -0.3110508), wk =   0.1875000
        k(    6) = (   0.1498141   0.2594857   0.0000000), wk =   0.1875000
        k(    7) = (   0.2996283  -0.1729905  -1.2442034), wk =   0.0937500
        k(    8) = (   0.0000000   0.0000000   0.9331525), wk =   0.0625000
        k(    9) = (   0.4494424   0.2594857   0.0000000), wk =   0.1875000
        k(   10) = (   0.2996283   0.1729905   0.3110508), wk =   0.1875000
        k(   11) = (   0.4494424  -0.2594857  -0.9331525), wk =   0.1875000
        k(   12) = (   0.2996283  -0.3459809  -0.6221017), wk =   0.1875000
        k(   13) = (   0.0000000   0.0000000  -1.8663050), wk =   0.0312500
        k(   14) = (   0.2996283  -0.3459809   0.3110508), wk =   0.1875000

     Dense  grid:   261745 G-vectors     FFT dimensions: (  96,  96,  96)

     Estimated max dynamical RAM per process >      17.04 MB

     Estimated total dynamical RAM >       1.94 GB

     Initial potential from superposition of free atoms

     starting charge      95.9998, renormalised to      96.0000


     %%%%%%%%%%%%%%%%%%%%%%%%%%%%%%%%%%%%%%%%%%%%%%%%%%%%%%%%%%%%%%%%%%%%%%%%
     %                                                                      %
     % You are using vdW-DF, which was implemented by the Thonhauser group. %
     % Please cite the following two papers that made this development      %
     % possible and the two reviews that describe the various versions:     %
     %                                                                      %
     %   T. Thonhauser et al., PRL 115, 136402 (2015).                      %
     %   T. Thonhauser et al., PRB 76, 125112 (2007).                       %
     %   K. Berland et al., Rep. Prog. Phys. 78, 066501 (2015).             %
     %   D.C. Langreth et al., J. Phys.: Condens. Matter 21, 084203 (2009). %
     %                                                                      %
     % If you are calculating stress with vdW-DF, please also cite:         %
     %                                                                      %
     %   R. Sabatini et al., J. Phys.: Condens. Matter 24, 424209 (2012).   %
     %                                                                      %
     %%%%%%%%%%%%%%%%%%%%%%%%%%%%%%%%%%%%%%%%%%%%%%%%%%%%%%%%%%%%%%%%%%%%%%%%

     %%%%%%%%%%%%%%%%%%%%%%%%%%%%%%%%%%%%%%%%%%%%%%%%%%%%%%%%%%%%%%%%%%%%%%%%
     %                                                                      %
     %  vdW-DF NEWS:                                                        %
     %                                                                      %
     %  * vdW-DF3 is now available. DOI: 10.1021/acs.jctc.0c00471           %
     %    use with input_dft = 'vdW-DF3-opt1' or 'vdW-DF3-opt2'             %
     %                                                                      %
     %  * Unscreened and range-separated hybrid vdW-DF-cx functionals       %
     %    DOI: 10.1063/1.4986522 and 10.1088/1361-648X/ac2ad2               %
     %    use with input_dft = 'vdW-DF-cx0'    and 'vdW-DF-ahcx'            %
     %  * Unscreened and range-separated hybrid vdW-DF2-b86r functionals    %
     %    DOI: 10.1063/1.4986522 and DOI: 10.1103/PhysRevX.12.041003        %
     %    use with input_dft = 'vdW-DF2-br0' and 'vdW-DF2-ahbr'             %
     %                                                                      %
     %%%%%%%%%%%%%%%%%%%%%%%%%%%%%%%%%%%%%%%%%%%%%%%%%%%%%%%%%%%%%%%%%%%%%%%%


     Starting wfcs are   72 randomized atomic wfcs

     total cpu time spent up to now is        3.3 secs

     per-process dynamical memory:    20.7 Mb

     Self-consistent Calculation

     iteration #  1     ecut=    90.00 Ry     beta= 0.70
     Davidson diagonalization with overlap
     ethr =  1.00E-02,  avg # of iterations =  2.0

     total cpu time spent up to now is        4.3 secs

     total energy              =    -415.91269020 Ry
     estimated scf accuracy    <       4.59360055 Ry

     iteration #  2     ecut=    90.00 Ry     beta= 0.70
     Davidson diagonalization with overlap
     ethr =  4.79E-03,  avg # of iterations =  3.0

     total cpu time spent up to now is        5.7 secs

     total energy              =    -417.39404515 Ry
     estimated scf accuracy    <       3.74615432 Ry

     iteration #  3     ecut=    90.00 Ry     beta= 0.70
     Davidson diagonalization with overlap
     ethr =  3.90E-03,  avg # of iterations =  2.0

     total cpu time spent up to now is        6.7 secs

     total energy              =    -417.87625792 Ry
     estimated scf accuracy    <       0.17359445 Ry

     iteration #  4     ecut=    90.00 Ry     beta= 0.70
     Davidson diagonalization with overlap
     ethr =  1.81E-04,  avg # of iterations =  4.0

     total cpu time spent up to now is        8.2 secs

     total energy              =    -418.00934422 Ry
     estimated scf accuracy    <       0.20380265 Ry

     iteration #  5     ecut=    90.00 Ry     beta= 0.70
     Davidson diagonalization with overlap
     ethr =  1.81E-04,  avg # of iterations =  2.0

     negative rho (up, down):  5.189E-08 0.000E+00

     total cpu time spent up to now is        9.1 secs

     total energy              =    -418.01198373 Ry
     estimated scf accuracy    <       0.03205760 Ry

     iteration #  6     ecut=    90.00 Ry     beta= 0.70
     Davidson diagonalization with overlap
     ethr =  3.34E-05,  avg # of iterations =  2.0

     negative rho (up, down):  6.822E-08 0.000E+00

     total cpu time spent up to now is       10.2 secs

     total energy              =    -418.01809935 Ry
     estimated scf accuracy    <       0.00179207 Ry

     iteration #  7     ecut=    90.00 Ry     beta= 0.70
     Davidson diagonalization with overlap
     ethr =  1.87E-06,  avg # of iterations =  3.0

     negative rho (up, down):  6.872E-08 0.000E+00

     total cpu time spent up to now is       11.4 secs

     total energy              =    -418.01917613 Ry
     estimated scf accuracy    <       0.00039661 Ry

     iteration #  8     ecut=    90.00 Ry     beta= 0.70
     Davidson diagonalization with overlap
     ethr =  4.13E-07,  avg # of iterations =  2.0

     negative rho (up, down):  5.207E-08 0.000E+00

     total cpu time spent up to now is       12.3 secs

     total energy              =    -418.01909109 Ry
     estimated scf accuracy    <       0.00055170 Ry

     iteration #  9     ecut=    90.00 Ry     beta= 0.70
     Davidson diagonalization with overlap
     ethr =  4.13E-07,  avg # of iterations =  1.0

     negative rho (up, down):  3.932E-08 0.000E+00

     total cpu time spent up to now is       13.1 secs

     total energy              =    -418.01892799 Ry
     estimated scf accuracy    <       0.00027738 Ry

     iteration # 10     ecut=    90.00 Ry     beta= 0.70
     Davidson diagonalization with overlap
     ethr =  2.89E-07,  avg # of iterations =  3.0

     negative rho (up, down):  4.139E-08 0.000E+00

     total cpu time spent up to now is       14.3 secs

     total energy              =    -418.01904773 Ry
     estimated scf accuracy    <       0.00009369 Ry

     iteration # 11     ecut=    90.00 Ry     beta= 0.70
     Davidson diagonalization with overlap
     ethr =  9.76E-08,  avg # of iterations =  1.0

     negative rho (up, down):  4.705E-08 0.000E+00

     total cpu time spent up to now is       15.2 secs

     total energy              =    -418.01903097 Ry
     estimated scf accuracy    <       0.00006835 Ry

     iteration # 12     ecut=    90.00 Ry     beta= 0.70
     Davidson diagonalization with overlap
     ethr =  7.12E-08,  avg # of iterations =  1.0

     negative rho (up, down):  5.248E-08 0.000E+00

     total cpu time spent up to now is       16.0 secs

     total energy              =    -418.01902704 Ry
     estimated scf accuracy    <       0.00001825 Ry

     iteration # 13     ecut=    90.00 Ry     beta= 0.70
     Davidson diagonalization with overlap
     ethr =  1.90E-08,  avg # of iterations =  2.0

     negative rho (up, down):  5.164E-08 0.000E+00

     total cpu time spent up to now is       17.1 secs

     total energy              =    -418.01903206 Ry
     estimated scf accuracy    <       0.00000055 Ry

     iteration # 14     ecut=    90.00 Ry     beta= 0.70
     Davidson diagonalization with overlap
     ethr =  5.76E-10,  avg # of iterations =  4.0

     negative rho (up, down):  5.271E-08 0.000E+00

     total cpu time spent up to now is       18.5 secs

     total energy              =    -418.01903289 Ry
     estimated scf accuracy    <       0.00000267 Ry

     iteration # 15     ecut=    90.00 Ry     beta= 0.70
     Davidson diagonalization with overlap
     ethr =  5.76E-10,  avg # of iterations =  1.0

     negative rho (up, down):  5.341E-08 0.000E+00

     total cpu time spent up to now is       19.4 secs

     total energy              =    -418.01903185 Ry
     estimated scf accuracy    <       0.00000283 Ry

     iteration # 16     ecut=    90.00 Ry     beta= 0.70
     Davidson diagonalization with overlap
     ethr =  5.76E-10,  avg # of iterations =  3.0

     negative rho (up, down):  5.359E-08 0.000E+00

     total cpu time spent up to now is       20.6 secs

     total energy              =    -418.01903197 Ry
     estimated scf accuracy    <       0.00000034 Ry

     iteration # 17     ecut=    90.00 Ry     beta= 0.70
     Davidson diagonalization with overlap
     ethr =  3.50E-10,  avg # of iterations =  2.0

     negative rho (up, down):  5.366E-08 0.000E+00

     total cpu time spent up to now is       21.6 secs

     End of self-consistent calculation

          k = 0.0000 0.0000 0.0000 ( 32761 PWs)   bands (ev):

   -21.2513 -20.8749 -20.8749 -20.7092 -20.7092 -20.6756 -20.6727 -20.6718
   -20.6718 -20.4350 -20.4350 -20.1843  -8.9319  -8.8622  -8.8622  -8.8462
    -8.7738  -8.7738  -8.5208  -8.5208  -8.5129  -8.4686  -8.4686  -8.4678
    -7.2288  -6.2771  -6.2771  -5.7407  -5.7407  -5.5876  -5.5876  -5.4431
    -5.3268  -4.7164  -4.7164  -4.0388  -3.5878  -3.5878  -3.5615  -3.4448
    -3.4448  -3.4136  -3.3202  -3.3202  -3.2843  -3.2262  -3.1784  -3.1784

          k =-0.1498-0.0865 0.3111 ( 32735 PWs)   bands (ev):

   -21.1917 -20.9091 -20.8677 -20.8198 -20.7894 -20.7349 -20.6354 -20.5986
   -20.5497 -20.4384 -20.4053 -20.2306  -8.9015  -8.8759  -8.8584  -8.8285
    -8.7687  -8.7421  -8.5687  -8.5467  -8.5372  -8.4631  -8.4139  -8.4077
    -7.0811  -6.4298  -6.3083  -6.0246  -5.8146  -5.5970  -5.4421  -5.3237
    -5.1706  -4.7098  -4.6558  -4.1799  -3.6563  -3.5978  -3.5738  -3.5006
    -3.4864  -3.4423  -3.3548  -3.3123  -3.2565  -3.2449  -3.1931  -3.1708

          k = 0.2996 0.1730-0.6221 ( 32696 PWs)   bands (ev):

   -21.0393 -21.0357 -20.8923 -20.8822 -20.7877 -20.7866 -20.5909 -20.5909
   -20.4474 -20.4363 -20.3439 -20.3427  -8.8826  -8.8690  -8.8319  -8.8307
    -8.7698  -8.7221  -8.5870  -8.5702  -8.5505  -8.4510  -8.3783  -8.3686
    -6.7741  -6.6844  -6.3048  -6.2959  -5.7976  -5.7421  -5.3291  -5.2487
    -4.8414  -4.7729  -4.6220  -4.4011  -3.7212  -3.6166  -3.5622  -3.5510
    -3.5011  -3.4755  -3.3969  -3.3163  -3.2966  -3.2249  -3.1787  -3.1617

          k =-0.1498 0.0865 0.6221 ( 32704 PWs)   bands (ev):

   -21.0729 -20.9590 -20.9482 -20.8514 -20.8296 -20.7767 -20.5984 -20.5337
   -20.4980 -20.4035 -20.3899 -20.3145  -8.8827  -8.8651  -8.8404  -8.8326
    -8.7648  -8.7139  -8.5853  -8.5769  -8.5625  -8.4245  -8.3936  -8.3699
    -6.8173  -6.5518  -6.5091  -6.0976  -5.9177  -5.7507  -5.3245  -5.1108
    -5.0015  -4.6916  -4.6319  -4.4146  -3.7066  -3.6417  -3.5579  -3.5344
    -3.4972  -3.4772  -3.4069  -3.3165  -3.2848  -3.2244  -3.1996  -3.1496

          k = 0.2996 0.3460-0.3111 ( 32713 PWs)   bands (ev):

   -21.1115 -20.9811 -20.9067 -20.8707 -20.8145 -20.7572 -20.5987 -20.5130
   -20.4991 -20.4347 -20.3839 -20.2994  -8.8868  -8.8819  -8.8480  -8.8155
    -8.7625  -8.7376  -8.6246  -8.5906  -8.5638  -8.4420  -8.4083  -8.3800
    -6.8274  -6.5358  -6.3623  -6.1389  -6.0810  -5.6070  -5.2485  -5.1589
    -5.0015  -4.7436  -4.6301  -4.3698  -3.6583  -3.6142  -3.5682  -3.5254
    -3.4824  -3.4284  -3.3729  -3.3483  -3.2638  -3.2613  -3.1895  -3.1158

          k = 0.1498 0.2595 0.0000 ( 32718 PWs)   bands (ev):

   -21.2072 -20.9333 -20.8882 -20.7999 -20.7742 -20.7114 -20.6384 -20.5829
   -20.5485 -20.4413 -20.4172 -20.2227  -8.9172  -8.8724  -8.8633  -8.8278
    -8.7702  -8.7635  -8.5905  -8.5659  -8.5286  -8.4773  -8.4541  -8.4119
    -7.0706  -6.3314  -6.2433  -6.0555  -6.0231  -5.5087  -5.3507  -5.2358
    -5.2095  -4.7503  -4.7065  -4.1403  -3.5914  -3.5795  -3.5738  -3.4876
    -3.4496  -3.4279  -3.3504  -3.3346  -3.2697  -3.2472  -3.1593  -3.1419

          k = 0.2996-0.1730-1.2442 ( 32722 PWs)   bands (ev):

   -21.1035 -21.0664 -20.8968 -20.8439 -20.7693 -20.7357 -20.5851 -20.5773
   -20.4742 -20.4681 -20.3255 -20.3190  -8.8975  -8.8801  -8.8554  -8.8175
    -8.7610  -8.7597  -8.6484  -8.6027  -8.5483  -8.4546  -8.4475  -8.4015
    -6.6910  -6.6615  -6.3279  -6.2015  -5.9657  -5.6306  -5.1775  -5.1647
    -4.9918  -4.8632  -4.5322  -4.3820  -3.6021  -3.5802  -3.5634  -3.5177
    -3.4559  -3.4274  -3.3790  -3.3211  -3.3165  -3.2373  -3.1299  -3.1263

          k = 0.0000 0.0000 0.9332 ( 32772 PWs)   bands (ev):

   -21.0231 -21.0231 -20.9520 -20.9342 -20.7810 -20.7810 -20.5351 -20.5351
   -20.4269 -20.4118 -20.3834 -20.3834  -8.8812  -8.8812  -8.8553  -8.7798
    -8.7798  -8.7617  -8.6559  -8.5891  -8.5891  -8.3934  -8.3934  -8.3738
    -6.6036  -6.6036  -6.5617  -6.2197  -5.8890  -5.8890  -5.0300  -5.0300
    -4.9574  -4.6882  -4.6882  -4.5801  -3.6205  -3.6205  -3.5402  -3.5224
    -3.4544  -3.4544  -3.4195  -3.3154  -3.3154  -3.2284  -3.2284  -3.0949

          k = 0.4494 0.2595 0.0000 ( 32766 PWs)   bands (ev):

   -21.1257 -20.9892 -20.9787 -20.8455 -20.7307 -20.7181 -20.6153 -20.5983
   -20.4686 -20.4129 -20.3898 -20.2922  -8.8957  -8.8739  -8.8664  -8.8089
    -8.7852  -8.7337  -8.6580  -8.5948  -8.5625  -8.4506  -8.4392  -8.4049
    -6.7991  -6.4249  -6.3869  -6.3029  -5.9286  -5.6235  -5.2572  -5.1785
    -4.9131  -4.7667  -4.6652  -4.3429  -3.5913  -3.5835  -3.5696  -3.5110
    -3.4734  -3.4329  -3.3639  -3.3405  -3.2997  -3.2159  -3.1638  -3.1118

          k = 0.2996 0.1730 0.3111 ( 32743 PWs)   bands (ev):

   -21.1503 -20.9427 -20.8806 -20.8628 -20.8039 -20.7456 -20.6120 -20.5690
   -20.5301 -20.4228 -20.3884 -20.2621  -8.8931  -8.8795  -8.8495  -8.8096
    -8.7747  -8.7187  -8.6037  -8.5579  -8.5316  -8.4960  -8.4426  -8.3930
    -6.9358  -6.4034  -6.3721  -6.0984  -5.9998  -5.5990  -5.3478  -5.1940
    -5.1319  -4.6969  -4.6467  -4.2456  -3.6769  -3.6091  -3.5854  -3.5373
    -3.5070  -3.4099  -3.3854  -3.3184  -3.2409  -3.2400  -3.1773  -3.1522

          k = 0.4494-0.2595-0.9332 ( 32742 PWs)   bands (ev):

   -21.0455 -21.0369 -20.9279 -20.8938 -20.7934 -20.7203 -20.6427 -20.5595
   -20.4597 -20.4056 -20.3721 -20.3127  -8.8859  -8.8662  -8.8563  -8.7931
    -8.7606  -8.7074  -8.6265  -8.5878  -8.5536  -8.5016  -8.4397  -8.4067
    -6.6526  -6.5543  -6.4179  -6.2180  -6.0201  -5.6268  -5.3958  -5.1250
    -4.9004  -4.6964  -4.6599  -4.3481  -3.6851  -3.6287  -3.6037  -3.5520
    -3.5280  -3.4285  -3.3452  -3.3276  -3.2591  -3.2244  -3.1592  -3.1395

          k = 0.2996-0.3460-0.6221 ( 32738 PWs)   bands (ev):

   -21.0107 -21.0043 -20.9211 -20.9130 -20.8061 -20.8055 -20.5760 -20.5738
   -20.4441 -20.4386 -20.3446 -20.3377  -8.8865  -8.8405  -8.8280  -8.8109
    -8.7944  -8.6763  -8.6158  -8.5731  -8.5451  -8.4809  -8.4064  -8.3958
    -6.6524  -6.6227  -6.3603  -6.3128  -5.8723  -5.8403  -5.2436  -5.1847
    -4.8574  -4.8241  -4.5838  -4.3776  -3.7418  -3.6310  -3.6006  -3.5959
    -3.5498  -3.4311  -3.3434  -3.3311  -3.2847  -3.2046  -3.1914  -3.1428

          k = 0.0000 0.0000-1.8663 ( 32730 PWs)   bands (ev):

   -20.9807 -20.9643 -20.8940 -20.8940 -20.8925 -20.8925 -20.5051 -20.5051
   -20.4918 -20.4918 -20.3383 -20.3251  -8.8865  -8.8111  -8.8111  -8.8045
    -8.8045  -8.6621  -8.6110  -8.5811  -8.5289  -8.5289  -8.4321  -8.4321
    -6.6412  -6.5048  -6.1922  -6.1922  -6.1187  -6.1187  -5.0114  -5.0114
    -4.9854  -4.9854  -4.5345  -4.3536  -3.7499  -3.6340  -3.6340  -3.6258
    -3.6258  -3.3815  -3.3494  -3.2686  -3.2686  -3.2206  -3.2206  -3.1169

          k = 0.2996-0.3460 0.3111 ( 32713 PWs)   bands (ev):

   -21.1116 -20.9795 -20.9114 -20.8682 -20.8136 -20.7569 -20.5977 -20.5176
   -20.4992 -20.4313 -20.3832 -20.3004  -8.8924  -8.8697  -8.8561  -8.8038
    -8.7724  -8.7384  -8.6340  -8.5863  -8.5594  -8.4386  -8.4019  -8.3889
    -6.8294  -6.5115  -6.4152  -6.1205  -6.0291  -5.6625  -5.3356  -5.0432
    -4.9295  -4.8007  -4.6824  -4.3448  -3.6666  -3.6037  -3.5611  -3.5187
    -3.4918  -3.4297  -3.3804  -3.3594  -3.2720  -3.2351  -3.1901  -3.1205

     highest occupied level (ev):    -3.0949

!    total energy              =    -418.01903202 Ry
     estimated scf accuracy    <       0.00000001 Ry

     The total energy is the sum of the following terms:
     one-electron contribution =    -305.76542303 Ry
     hartree contribution      =     186.27764803 Ry
     xc contribution           =    -105.05691260 Ry
     ewald contribution        =    -193.47434442 Ry

     convergence has been achieved in  17 iterations

     Forces acting on atoms (cartesian axes, Ry/au):

     atom    1 type  2   force =    -0.01233112    0.04461075    0.02555863
     atom    2 type  2   force =     0.01233112   -0.04461075   -0.02555863
     atom    3 type  2   force =    -0.03246848   -0.03298444    0.02555863
     atom    4 type  2   force =     0.03246848    0.03298444   -0.02555863
     atom    5 type  2   force =     0.04479960   -0.01162631    0.02555863
     atom    6 type  2   force =    -0.04479960    0.01162631   -0.02555863
     atom    7 type  2   force =    -0.03468353    0.02657530   -0.02085486
     atom    8 type  2   force =     0.03468353   -0.02657530    0.02085486
     atom    9 type  2   force =    -0.00567312   -0.04332447   -0.02085486
     atom   10 type  2   force =     0.00567312    0.04332447    0.02085486
     atom   11 type  2   force =     0.04035665    0.01674916   -0.02085486
     atom   12 type  2   force =    -0.04035665   -0.01674916    0.02085486
     atom   13 type  1   force =     0.02056088   -0.03676737    0.01988214
     atom   14 type  1   force =    -0.02056088    0.03676737   -0.01988214
     atom   15 type  1   force =     0.02156103    0.03618993    0.01988214
     atom   16 type  1   force =    -0.02156103   -0.03618993   -0.01988214
     atom   17 type  1   force =    -0.04212191    0.00057744    0.01988214
     atom   18 type  1   force =     0.04212191   -0.00057744   -0.01988214
     atom   19 type  1   force =    -0.00891733   -0.00843151   -0.04553384
     atom   20 type  1   force =     0.00891733    0.00843151    0.04553384
     atom   21 type  1   force =     0.01176056   -0.00350688   -0.04553384
     atom   22 type  1   force =    -0.01176056    0.00350688    0.04553384
     atom   23 type  1   force =    -0.00284324    0.01193838   -0.04553384
     atom   24 type  1   force =     0.00284324   -0.01193838    0.04553384
     atom   25 type  1   force =    -0.01242905   -0.04560059   -0.00120896
     atom   26 type  1   force =     0.01242905    0.04560059    0.00120896
     atom   27 type  1   force =     0.04570580    0.01203643   -0.00120896
     atom   28 type  1   force =    -0.04570580   -0.01203643    0.00120896
     atom   29 type  1   force =    -0.03327675    0.03356417   -0.00120896
     atom   30 type  1   force =     0.03327675   -0.03356417    0.00120896
     atom   31 type  1   force =    -0.02965403    0.02886248    0.02508283
     atom   32 type  1   force =     0.02965403   -0.02886248   -0.02508283
     atom   33 type  1   force =    -0.01016863   -0.04011238    0.02508283
     atom   34 type  1   force =     0.01016863    0.04011238   -0.02508283
     atom   35 type  1   force =     0.03982266    0.01124990    0.02508283
     atom   36 type  1   force =    -0.03982266   -0.01124990   -0.02508283

     Total force =     0.290967     Total SCF correction =     0.000079


     Computing stress (Cartesian axis) and pressure

          total   stress  (Ry/bohr**3)                   (kbar)     P=      -65.33
  -0.00044715  -0.00000000  -0.00000000          -65.78       -0.00       -0.00
   0.00000000  -0.00044715  -0.00000000            0.00      -65.78       -0.00
   0.00000000  -0.00000000  -0.00043803            0.00       -0.00      -64.44


     Writing all to output data dir ./iceII/iceII.save/ :
     XML data file, charge density, pseudopotentials, collected wavefunctions

     init_run     :      2.95s CPU      3.05s WALL (       1 calls)
     electrons    :     17.66s CPU     18.44s WALL (       1 calls)
     forces       :      0.14s CPU      0.15s WALL (       1 calls)
     stress       :      1.18s CPU      1.22s WALL (       1 calls)

     Called by init_run:
     wfcinit      :      0.37s CPU      0.38s WALL (       1 calls)
     potinit      :      1.72s CPU      1.78s WALL (       1 calls)
     hinit0       :      0.67s CPU      0.69s WALL (       1 calls)

     Called by electrons:
     c_bands      :     12.40s CPU     12.51s WALL (      17 calls)
     sum_band     :      1.94s CPU      1.97s WALL (      17 calls)
     v_of_rho     :      4.82s CPU      5.42s WALL (      18 calls)
     newd         :      0.08s CPU      0.08s WALL (      18 calls)
     mix_rho      :      0.08s CPU      0.08s WALL (      17 calls)
     vdW_kernel   :      1.51s CPU      1.52s WALL (       1 calls)

     Called by c_bands:
     init_us_2    :      0.23s CPU      0.25s WALL (     148 calls)
     cegterg      :     12.00s CPU     12.08s WALL (      68 calls)

     Called by *egterg:
     cdiaghg      :      0.81s CPU      0.82s WALL (     220 calls)
     h_psi        :      9.42s CPU      9.48s WALL (     224 calls)
     s_psi        :      0.42s CPU      0.42s WALL (     224 calls)
     g_psi        :      0.03s CPU      0.03s WALL (     152 calls)

     Called by h_psi:
     h_psi:calbec :      0.68s CPU      0.68s WALL (     224 calls)
     vloc_psi     :      8.26s CPU      8.33s WALL (     224 calls)
     add_vuspsi   :      0.41s CPU      0.41s WALL (     224 calls)

     General routines
     calbec       :      0.94s CPU      0.95s WALL (     312 calls)
     fft          :      2.34s CPU      2.68s WALL (    1150 calls)
     ffts         :      0.02s CPU      0.02s WALL (      17 calls)
     fftw         :      8.70s CPU      8.76s WALL (   22358 calls)

     Parallel routines

     PWSCF        :     22.26s CPU     23.53s WALL


   This run was terminated on:  15: 2:12  26Mar2026            

=------------------------------------------------------------------------------=
   JOB DONE.
=------------------------------------------------------------------------------=
