
     Program PWSCF v.7.3.1 starts on 26Mar2026 at 15: 2:15 

     This program is part of the open-source Quantum ESPRESSO suite
     for quantum simulation of materials; please cite
         "P. Giannozzi et al., J. Phys.:Condens. Matter 21 395502 (2009);
         "P. Giannozzi et al., J. Phys.:Condens. Matter 29 465901 (2017);
         "P. Giannozzi et al., J. Chem. Phys. 152 154105 (2020);
          URL http://www.quantum-espresso.org", 
     in publications or presentations arising from this work. More details at
     http://www.quantum-espresso.org/quote

     Parallel version (MPI), running on   128 processors

     MPI processes distributed on     1 nodes
     242762 MiB available memory on the printing compute node when the environment starts

     Waiting for input...
     Reading input from standard input

     Current dimensions of program PWSCF are:
     Max number of different atomic species (ntypx) = 10
     Max number of k-points (npk) =  40000
     Max angular momentum in pseudopotentials (lmaxx) =  4

     IMPORTANT: XC functional enforced from input :
     Exchange-correlation= VDW-DF2
                           (   1   4  13   0   2   0   0)
     Any further DFT definition will be discarded
     Please, verify this is what you really want


     K-points division:     npool     =       4
     R & G space division:  proc/nbgrp/npool/nimage =      32
     Subspace diagonalization in iterative solution of the eigenvalue problem:
     a serial algorithm will be used


     Parallelization info
     --------------------
     sticks:   dense  smooth     PW     G-vecs:    dense   smooth      PW
     Min         190     190     55                 8224     8224    1298
     Max         191     191     56                 8227     8227    1301
     Sum        6103    6103   1787               263227   263227   41593

     Using Slab Decomposition



     bravais-lattice index     =            5
     lattice parameter (alat)  =      15.2313  a.u.
     unit-cell volume          =    2283.0055 (a.u.)^3
     number of atoms/cell      =           36
     number of atomic types    =            2
     number of electrons       =        96.00
     number of Kohn-Sham states=           48
     kinetic-energy cutoff     =      90.0000  Ry
     charge density cutoff     =     360.0000  Ry
     scf convergence threshold =      1.0E-07
     mixing beta               =       0.7000
     number of iterations used =            8  plain     mixing
     Exchange-correlation= VDW-DF2
                           (   1   4  13   0   2   0   0)

     celldm(1)=  15.231343  celldm(2)=   0.000000  celldm(3)=   0.000000
     celldm(4)=  -0.392337  celldm(5)=   0.000000  celldm(6)=   0.000000

     crystal axes: (cart. coord. in units of alat)
               a(1) = (   0.834367  -0.481722   0.267909 )  
               a(2) = (   0.000000   0.963444   0.267909 )  
               a(3) = (  -0.834367  -0.481722   0.267909 )  

     reciprocal axes: (cart. coord. in units 2 pi/alat)
               b(1) = (  0.599257 -0.345981  1.244203 )  
               b(2) = (  0.000000  0.691962  1.244203 )  
               b(3) = ( -0.599257 -0.345981  1.244203 )  


     PseudoPot. # 1 for H  read from file:
     ./H.pbe-van_ak.UPF
     MD5 check sum: 077eb6d537518a38cb46c6de387227b7
     Pseudo is Ultrasoft, Zval =  1.0
     Generated by new atomic code, or converted to UPF format
     Using radial grid of  615 points,  1 beta functions with: 
                l(1) =   0
     Q(r) pseudized with  8 coefficients,  rinner =    0.800

     PseudoPot. # 2 for O  read from file:
     ./O.pbe-van_ak.UPF
     MD5 check sum: 78c19812648e8988a0fe644b0f25305e
     Pseudo is Ultrasoft, Zval =  6.0
     Generated by new atomic code, or converted to UPF format
     Using radial grid of  737 points,  4 beta functions with: 
                l(1) =   0
                l(2) =   0
                l(3) =   1
                l(4) =   1
     Q(r) pseudized with  8 coefficients,  rinner =    0.800   0.800   0.800


     atomic species   valence    mass     pseudopotential
     H                 1.00     1.00800     H ( 1.00)
     O                 6.00    16.00000     O ( 1.00)

      6 Sym. Ops., with inversion, found



   Cartesian axes

     site n.     atom                  positions (alat units)
         1        O      tau(   1) = (  -0.4881587  -0.5153728   0.3102004  )
         2        O      tau(   2) = (   0.4881587   0.5153729   0.4935268  )
         3        O      tau(   3) = (   0.6904053  -0.1650714   0.3102004  )
         4        O      tau(   4) = (  -0.6904053   0.1650714   0.4935268  )
         5        O      tau(   5) = (  -0.2022466   0.6804442   0.3102004  )
         6        O      tau(   6) = (   0.2022466  -0.6804442   0.4935268  )
         7        O      tau(   7) = (   0.1208629   0.3351200   0.4137471  )
         8        O      tau(   8) = (  -0.1208629  -0.3351200   0.3899800  )
         9        O      tau(   9) = (  -0.3506539  -0.0628897   0.4137471  )
        10        O      tau(  10) = (   0.3506539   0.0628897   0.3899800  )
        11        O      tau(  11) = (   0.2297910  -0.2722304   0.4137471  )
        12        O      tau(  12) = (  -0.2297910   0.2722304   0.3899800  )
        13        H      tau(  13) = (  -0.5430428  -0.4102686   0.2622098  )
        14        H      tau(  14) = (   0.5430428   0.4102686   0.5415173  )
        15        H      tau(  15) = (   0.6268245  -0.2651546   0.2622098  )
        16        H      tau(  16) = (  -0.6268245   0.2651546   0.5415173  )
        17        H      tau(  17) = (  -0.0837816   0.6754232   0.2622098  )
        18        H      tau(  18) = (   0.0837817  -0.6754232   0.5415173  )
        19        H      tau(  19) = (  -0.4681736  -0.4859583   0.4327384  )
        20        H      tau(  20) = (   0.4681736   0.4859583   0.3709887  )
        21        H      tau(  21) = (   0.6549390  -0.1624711   0.4327384  )
        22        H      tau(  22) = (  -0.6549390   0.1624711   0.3709887  )
        23        H      tau(  23) = (  -0.1867654   0.6484294   0.4327384  )
        24        H      tau(  24) = (   0.1867654  -0.6484294   0.3709887  )
        25        H      tau(  25) = (   0.2718867  -0.1516220   0.4118766  )
        26        H      tau(  26) = (  -0.2718867   0.1516219   0.3918506  )
        27        H      tau(  27) = (  -0.0046349   0.3112717   0.4118766  )
        28        H      tau(  28) = (   0.0046349  -0.3112717   0.3918506  )
        29        H      tau(  29) = (  -0.2672518  -0.1596498   0.4118766  )
        30        H      tau(  30) = (   0.2672518   0.1596498   0.3918506  )
        31        H      tau(  31) = (   0.3136186  -0.3416266   0.3473301  )
        32        H      tau(  32) = (  -0.3136186   0.3416266   0.4563970  )
        33        H      tau(  33) = (   0.1390481   0.4424150   0.3473301  )
        34        H      tau(  34) = (  -0.1390480  -0.4424150   0.4563970  )
        35        H      tau(  35) = (  -0.4526667  -0.1007884   0.3473301  )
        36        H      tau(  36) = (   0.4526666   0.1007884   0.4563970  )

     number of k points=    14
                       cart. coord. in units 2pi/alat
        k(    1) = (   0.0000000   0.0000000   0.0000000), wk =   0.0312500
        k(    2) = (  -0.1498141  -0.0864952   0.3110508), wk =   0.1875000
        k(    3) = (   0.2996283   0.1729905  -0.6221017), wk =   0.0937500
        k(    4) = (  -0.1498141   0.0864952   0.6221017), wk =   0.1875000
        k(    5) = (   0.2996283   0.3459809  -0.3110508), wk =   0.1875000
        k(    6) = (   0.1498141   0.2594857   0.0000000), wk =   0.1875000
        k(    7) = (   0.2996283  -0.1729905  -1.2442034), wk =   0.0937500
        k(    8) = (   0.0000000   0.0000000   0.9331525), wk =   0.0625000
        k(    9) = (   0.4494424   0.2594857   0.0000000), wk =   0.1875000
        k(   10) = (   0.2996283   0.1729905   0.3110508), wk =   0.1875000
        k(   11) = (   0.4494424  -0.2594857  -0.9331525), wk =   0.1875000
        k(   12) = (   0.2996283  -0.3459809  -0.6221017), wk =   0.1875000
        k(   13) = (   0.0000000   0.0000000  -1.8663050), wk =   0.0312500
        k(   14) = (   0.2996283  -0.3459809   0.3110508), wk =   0.1875000

     Dense  grid:   263227 G-vectors     FFT dimensions: (  96,  96,  96)

     Estimated max dynamical RAM per process >      17.11 MB

     Estimated total dynamical RAM >       1.95 GB

     Initial potential from superposition of free atoms

     starting charge      95.9998, renormalised to      96.0000


     %%%%%%%%%%%%%%%%%%%%%%%%%%%%%%%%%%%%%%%%%%%%%%%%%%%%%%%%%%%%%%%%%%%%%%%%
     %                                                                      %
     % You are using vdW-DF, which was implemented by the Thonhauser group. %
     % Please cite the following two papers that made this development      %
     % possible and the two reviews that describe the various versions:     %
     %                                                                      %
     %   T. Thonhauser et al., PRL 115, 136402 (2015).                      %
     %   T. Thonhauser et al., PRB 76, 125112 (2007).                       %
     %   K. Berland et al., Rep. Prog. Phys. 78, 066501 (2015).             %
     %   D.C. Langreth et al., J. Phys.: Condens. Matter 21, 084203 (2009). %
     %                                                                      %
     % If you are calculating stress with vdW-DF, please also cite:         %
     %                                                                      %
     %   R. Sabatini et al., J. Phys.: Condens. Matter 24, 424209 (2012).   %
     %                                                                      %
     %%%%%%%%%%%%%%%%%%%%%%%%%%%%%%%%%%%%%%%%%%%%%%%%%%%%%%%%%%%%%%%%%%%%%%%%

     %%%%%%%%%%%%%%%%%%%%%%%%%%%%%%%%%%%%%%%%%%%%%%%%%%%%%%%%%%%%%%%%%%%%%%%%
     %                                                                      %
     %  vdW-DF NEWS:                                                        %
     %                                                                      %
     %  * vdW-DF3 is now available. DOI: 10.1021/acs.jctc.0c00471           %
     %    use with input_dft = 'vdW-DF3-opt1' or 'vdW-DF3-opt2'             %
     %                                                                      %
     %  * Unscreened and range-separated hybrid vdW-DF-cx functionals       %
     %    DOI: 10.1063/1.4986522 and 10.1088/1361-648X/ac2ad2               %
     %    use with input_dft = 'vdW-DF-cx0'    and 'vdW-DF-ahcx'            %
     %  * Unscreened and range-separated hybrid vdW-DF2-b86r functionals    %
     %    DOI: 10.1063/1.4986522 and DOI: 10.1103/PhysRevX.12.041003        %
     %    use with input_dft = 'vdW-DF2-br0' and 'vdW-DF2-ahbr'             %
     %                                                                      %
     %%%%%%%%%%%%%%%%%%%%%%%%%%%%%%%%%%%%%%%%%%%%%%%%%%%%%%%%%%%%%%%%%%%%%%%%


     Starting wfcs are   72 randomized atomic wfcs

     total cpu time spent up to now is        3.2 secs

     per-process dynamical memory:    20.9 Mb

     Self-consistent Calculation

     iteration #  1     ecut=    90.00 Ry     beta= 0.70
     Davidson diagonalization with overlap
     ethr =  1.00E-02,  avg # of iterations =  2.0

     total cpu time spent up to now is        4.3 secs

     total energy              =    -415.90854990 Ry
     estimated scf accuracy    <       4.58400419 Ry

     iteration #  2     ecut=    90.00 Ry     beta= 0.70
     Davidson diagonalization with overlap
     ethr =  4.78E-03,  avg # of iterations =  3.0

     total cpu time spent up to now is        5.6 secs

     total energy              =    -417.38436730 Ry
     estimated scf accuracy    <       3.76901696 Ry

     iteration #  3     ecut=    90.00 Ry     beta= 0.70
     Davidson diagonalization with overlap
     ethr =  3.93E-03,  avg # of iterations =  2.0

     total cpu time spent up to now is        6.7 secs

     total energy              =    -417.86911822 Ry
     estimated scf accuracy    <       0.17541581 Ry

     iteration #  4     ecut=    90.00 Ry     beta= 0.70
     Davidson diagonalization with overlap
     ethr =  1.83E-04,  avg # of iterations =  4.0

     total cpu time spent up to now is        8.2 secs

     total energy              =    -418.00362163 Ry
     estimated scf accuracy    <       0.20501463 Ry

     iteration #  5     ecut=    90.00 Ry     beta= 0.70
     Davidson diagonalization with overlap
     ethr =  1.83E-04,  avg # of iterations =  2.0

     total cpu time spent up to now is        9.1 secs

     total energy              =    -418.00648454 Ry
     estimated scf accuracy    <       0.03247089 Ry

     iteration #  6     ecut=    90.00 Ry     beta= 0.70
     Davidson diagonalization with overlap
     ethr =  3.38E-05,  avg # of iterations =  2.0

     total cpu time spent up to now is       10.1 secs

     total energy              =    -418.01216791 Ry
     estimated scf accuracy    <       0.00220855 Ry

     iteration #  7     ecut=    90.00 Ry     beta= 0.70
     Davidson diagonalization with overlap
     ethr =  2.30E-06,  avg # of iterations =  3.0

     total cpu time spent up to now is       11.3 secs

     total energy              =    -418.01340583 Ry
     estimated scf accuracy    <       0.00042390 Ry

     iteration #  8     ecut=    90.00 Ry     beta= 0.70
     Davidson diagonalization with overlap
     ethr =  4.42E-07,  avg # of iterations =  2.0

     total cpu time spent up to now is       12.2 secs

     total energy              =    -418.01336672 Ry
     estimated scf accuracy    <       0.00055429 Ry

     iteration #  9     ecut=    90.00 Ry     beta= 0.70
     Davidson diagonalization with overlap
     ethr =  4.42E-07,  avg # of iterations =  1.0

     total cpu time spent up to now is       13.1 secs

     total energy              =    -418.01312344 Ry
     estimated scf accuracy    <       0.00039492 Ry

     iteration # 10     ecut=    90.00 Ry     beta= 0.70
     Davidson diagonalization with overlap
     ethr =  4.11E-07,  avg # of iterations =  4.0

     total cpu time spent up to now is       14.5 secs

     total energy              =    -418.01393446 Ry
     estimated scf accuracy    <       0.00173084 Ry

     iteration # 11     ecut=    90.00 Ry     beta= 0.70
     Davidson diagonalization with overlap
     ethr =  4.11E-07,  avg # of iterations =  1.0

     total cpu time spent up to now is       15.4 secs

     total energy              =    -418.01408901 Ry
     estimated scf accuracy    <       0.00231808 Ry

     iteration # 12     ecut=    90.00 Ry     beta= 0.70
     Davidson diagonalization with overlap
     ethr =  4.11E-07,  avg # of iterations =  1.0

     total cpu time spent up to now is       16.3 secs

     total energy              =    -418.01402806 Ry
     estimated scf accuracy    <       0.00277199 Ry

     iteration # 13     ecut=    90.00 Ry     beta= 0.70
     Davidson diagonalization with overlap
     ethr =  4.11E-07,  avg # of iterations =  1.0

     total cpu time spent up to now is       17.1 secs

     total energy              =    -418.01399048 Ry
     estimated scf accuracy    <       0.00270697 Ry

     iteration # 14     ecut=    90.00 Ry     beta= 0.70
     Davidson diagonalization with overlap
     ethr =  4.11E-07,  avg # of iterations =  1.0

     total cpu time spent up to now is       18.0 secs

     total energy              =    -418.01395930 Ry
     estimated scf accuracy    <       0.00262866 Ry

     iteration # 15     ecut=    90.00 Ry     beta= 0.70
     Davidson diagonalization with overlap
     ethr =  4.11E-07,  avg # of iterations =  1.0

     total cpu time spent up to now is       18.8 secs

     total energy              =    -418.01370157 Ry
     estimated scf accuracy    <       0.00254908 Ry

     iteration # 16     ecut=    90.00 Ry     beta= 0.70
     Davidson diagonalization with overlap
     ethr =  4.11E-07,  avg # of iterations =  1.0

     total cpu time spent up to now is       19.7 secs

     total energy              =    -418.01266761 Ry
     estimated scf accuracy    <       0.00180032 Ry

     iteration # 17     ecut=    90.00 Ry     beta= 0.70
     Davidson diagonalization with overlap
     ethr =  4.11E-07,  avg # of iterations =  4.0

     total cpu time spent up to now is       21.1 secs

     total energy              =    -418.01329506 Ry
     estimated scf accuracy    <       0.00031662 Ry

     iteration # 18     ecut=    90.00 Ry     beta= 0.70
     Davidson diagonalization with overlap
     ethr =  3.30E-07,  avg # of iterations =  1.0

     total cpu time spent up to now is       22.0 secs

     total energy              =    -418.01326578 Ry
     estimated scf accuracy    <       0.00014368 Ry

     iteration # 19     ecut=    90.00 Ry     beta= 0.70
     Davidson diagonalization with overlap
     ethr =  1.50E-07,  avg # of iterations =  2.0

     total cpu time spent up to now is       22.9 secs

     total energy              =    -418.01327014 Ry
     estimated scf accuracy    <       0.00003387 Ry

     iteration # 20     ecut=    90.00 Ry     beta= 0.70
     Davidson diagonalization with overlap
     ethr =  3.53E-08,  avg # of iterations =  1.0

     total cpu time spent up to now is       23.7 secs

     total energy              =    -418.01325819 Ry
     estimated scf accuracy    <       0.00002587 Ry

     iteration # 21     ecut=    90.00 Ry     beta= 0.70
     Davidson diagonalization with overlap
     ethr =  2.70E-08,  avg # of iterations =  3.0

     total cpu time spent up to now is       24.9 secs

     total energy              =    -418.01326695 Ry
     estimated scf accuracy    <       0.00000023 Ry

     iteration # 22     ecut=    90.00 Ry     beta= 0.70
     Davidson diagonalization with overlap
     ethr =  2.40E-10,  avg # of iterations =  6.4

     total cpu time spent up to now is       26.8 secs

     total energy              =    -418.01326563 Ry
     estimated scf accuracy    <       0.00000994 Ry

     iteration # 23     ecut=    90.00 Ry     beta= 0.70
     Davidson diagonalization with overlap
     ethr =  2.40E-10,  avg # of iterations =  5.0

     total cpu time spent up to now is       28.5 secs

     total energy              =    -418.01326584 Ry
     estimated scf accuracy    <       0.00000094 Ry

     iteration # 24     ecut=    90.00 Ry     beta= 0.70
     Davidson diagonalization with overlap
     ethr =  2.40E-10,  avg # of iterations =  5.0

     total cpu time spent up to now is       30.2 secs

     total energy              =    -418.01326587 Ry
     estimated scf accuracy    <       0.00000211 Ry

     iteration # 25     ecut=    90.00 Ry     beta= 0.70
     Davidson diagonalization with overlap
     ethr =  2.40E-10,  avg # of iterations =  4.0

     total cpu time spent up to now is       31.7 secs

     End of self-consistent calculation

          k = 0.0000 0.0000 0.0000 ( 32899 PWs)   bands (ev):

   -21.2520 -20.8802 -20.8802 -20.7161 -20.7161 -20.6830 -20.6799 -20.6791
   -20.6791 -20.4450 -20.4450 -20.1971  -8.9373  -8.8676  -8.8676  -8.8522
    -8.7806  -8.7806  -8.5290  -8.5290  -8.5211  -8.4773  -8.4773  -8.4760
    -7.2396  -6.2937  -6.2937  -5.7610  -5.7610  -5.6086  -5.6086  -5.4653
    -5.3489  -4.7418  -4.7418  -4.0667  -3.6094  -3.6094  -3.5834  -3.4677
    -3.4677  -3.4367  -3.3438  -3.3438  -3.3085  -3.2513  -3.2036  -3.2036

          k =-0.1498-0.0865 0.3111 ( 32920 PWs)   bands (ev):

   -21.1931 -20.9140 -20.8731 -20.8255 -20.7954 -20.7415 -20.6431 -20.6067
   -20.5584 -20.4484 -20.4157 -20.2430  -8.9071  -8.8814  -8.8642  -8.8346
    -8.7756  -8.7491  -8.5763  -8.5546  -8.5453  -8.4718  -8.4231  -8.4167
    -7.0929  -6.4456  -6.3249  -6.0431  -5.8346  -5.6181  -5.4637  -5.3462
    -5.1935  -4.7353  -4.6815  -4.2076  -3.6771  -3.6191  -3.5955  -3.5229
    -3.5088  -3.4653  -3.3784  -3.3362  -3.2808  -3.2694  -3.2181  -3.1960

          k = 0.2996 0.1730-0.6221 ( 32874 PWs)   bands (ev):

   -21.0424 -21.0389 -20.8973 -20.8874 -20.7937 -20.7927 -20.5991 -20.5991
   -20.4573 -20.4462 -20.3549 -20.3537  -8.8882  -8.8747  -8.8383  -8.8367
    -8.7768  -8.7292  -8.5946  -8.5777  -8.5586  -8.4597  -8.3878  -8.3782
    -6.7876  -6.6991  -6.3216  -6.3127  -5.8174  -5.7624  -5.3514  -5.2715
    -4.8665  -4.7976  -4.6476  -4.4281  -3.7415  -3.6376  -3.5840  -3.5728
    -3.5234  -3.4985  -3.4201  -3.3401  -3.3206  -3.2494  -3.2038  -3.1868

          k =-0.1498 0.0865 0.6221 ( 32876 PWs)   bands (ev):

   -21.0757 -20.9631 -20.9525 -20.8568 -20.8352 -20.7829 -20.6065 -20.5426
   -20.5073 -20.4138 -20.4003 -20.3258  -8.8883  -8.8708  -8.8463  -8.8389
    -8.7717  -8.7212  -8.5929  -8.5845  -8.5701  -8.4337  -8.4029  -8.3794
    -6.8309  -6.5669  -6.5246  -6.1155  -5.9371  -5.7709  -5.3469  -5.1341
    -5.0254  -4.7169  -4.6579  -4.4411  -3.7270  -3.6626  -3.5798  -3.5564
    -3.5200  -3.4997  -3.4301  -3.3403  -3.3088  -3.2489  -3.2245  -3.1748

          k = 0.2996 0.3460-0.3111 ( 32903 PWs)   bands (ev):

   -21.1137 -20.9849 -20.9115 -20.8757 -20.8205 -20.7635 -20.6069 -20.5221
   -20.5083 -20.4447 -20.3944 -20.3110  -8.8925  -8.8878  -8.8539  -8.8218
    -8.7693  -8.7444  -8.6316  -8.5980  -8.5714  -8.4509  -8.4175  -8.3896
    -6.8410  -6.5510  -6.3789  -6.1566  -6.0994  -5.6281  -5.2713  -5.1819
    -5.0255  -4.7685  -4.6562  -4.3968  -3.6793  -3.6354  -3.5899  -3.5475
    -3.5048  -3.4515  -3.3962  -3.3720  -3.2881  -3.2856  -3.2145  -3.1414

          k = 0.1498 0.2595 0.0000 ( 32912 PWs)   bands (ev):

   -21.2083 -20.9377 -20.8932 -20.8059 -20.7805 -20.7183 -20.6462 -20.5912
   -20.5572 -20.4512 -20.4275 -20.2351  -8.9228  -8.8781  -8.8690  -8.8339
    -8.7769  -8.7702  -8.5978  -8.5736  -8.5364  -8.4857  -8.4629  -8.4210
    -7.0825  -6.3478  -6.2607  -6.0737  -6.0416  -5.5302  -5.3733  -5.2587
    -5.2323  -4.7756  -4.7319  -4.1684  -3.6129  -3.6012  -3.5956  -3.5099
    -3.4723  -3.4510  -3.3738  -3.3582  -3.2943  -3.2717  -3.1846  -3.1675

          k = 0.2996-0.1730-1.2442 ( 32926 PWs)   bands (ev):

   -21.1057 -21.0692 -20.9016 -20.8495 -20.7755 -20.7425 -20.5934 -20.5858
   -20.4838 -20.4777 -20.3368 -20.3303  -8.9032  -8.8860  -8.8613  -8.8238
    -8.7675  -8.7661  -8.6550  -8.6100  -8.5559  -8.4635  -8.4563  -8.4108
    -6.7057  -6.6761  -6.3446  -6.2191  -5.9842  -5.6515  -5.2009  -5.1882
    -5.0158  -4.8877  -4.5583  -4.4093  -3.6235  -3.6018  -3.5855  -3.5397
    -3.4783  -3.4503  -3.4023  -3.3453  -3.3403  -3.2619  -3.1556  -3.1519

          k = 0.0000 0.0000 0.9332 ( 32937 PWs)   bands (ev):

   -21.0263 -21.0263 -20.9561 -20.9387 -20.7874 -20.7874 -20.5440 -20.5440
   -20.4369 -20.4221 -20.3940 -20.3940  -8.8870  -8.8870  -8.8612  -8.7864
    -8.7864  -8.7682  -8.6626  -8.5964  -8.5964  -8.4029  -8.4029  -8.3834
    -6.6185  -6.6185  -6.5765  -6.2377  -5.9082  -5.9082  -5.0538  -5.0538
    -4.9810  -4.7139  -4.7139  -4.6059  -3.6417  -3.6417  -3.5622  -3.5447
    -3.4771  -3.4771  -3.4427  -3.3392  -3.3392  -3.2530  -3.2530  -3.1208

          k = 0.4494 0.2595 0.0000 ( 32976 PWs)   bands (ev):

   -21.1277 -20.9928 -20.9826 -20.8511 -20.7375 -20.7250 -20.6233 -20.6065
   -20.4782 -20.4231 -20.4003 -20.3039  -8.9015  -8.8798  -8.8723  -8.8152
    -8.7916  -8.7404  -8.6646  -8.6020  -8.5700  -8.4595  -8.4481  -8.4142
    -6.8129  -6.4408  -6.4035  -6.3200  -5.9474  -5.6442  -5.2802  -5.2019
    -4.9375  -4.7920  -4.6907  -4.3703  -3.6128  -3.6051  -3.5915  -3.5330
    -3.4960  -3.4558  -3.3873  -3.3641  -3.3240  -3.2406  -3.1891  -3.1376

          k = 0.2996 0.1730 0.3111 ( 32929 PWs)   bands (ev):

   -21.1521 -20.9471 -20.8858 -20.8679 -20.8097 -20.7521 -20.6200 -20.5775
   -20.5391 -20.4330 -20.3990 -20.2740  -8.8989  -8.8852  -8.8554  -8.8159
    -8.7815  -8.7257  -8.6111  -8.5656  -8.5397  -8.5044  -8.4513  -8.4024
    -6.9487  -6.4196  -6.3885  -6.1162  -6.0186  -5.6203  -5.3700  -5.2174
    -5.1551  -4.7224  -4.6724  -4.2733  -3.6977  -3.6304  -3.6068  -3.5592
    -3.5292  -3.4331  -3.4086  -3.3423  -3.2654  -3.2646  -3.2025  -3.1775

          k = 0.4494-0.2595-0.9332 ( 32954 PWs)   bands (ev):

   -21.0485 -21.0401 -20.9322 -20.8989 -20.7994 -20.7270 -20.6504 -20.5681
   -20.4695 -20.4159 -20.3829 -20.3240  -8.8917  -8.8722  -8.8624  -8.7996
    -8.7674  -8.7142  -8.6337  -8.5952  -8.5612  -8.5100  -8.4484  -8.4160
    -6.6673  -6.5698  -6.4341  -6.2355  -6.0384  -5.6476  -5.4182  -5.1486
    -4.9251  -4.7218  -4.6856  -4.3754  -3.7060  -3.6498  -3.6250  -3.5738
    -3.5499  -3.4512  -3.3689  -3.3513  -3.2835  -3.2491  -3.1845  -3.1650

          k = 0.2996-0.3460-0.6221 ( 32898 PWs)   bands (ev):

   -21.0141 -21.0079 -20.9256 -20.9178 -20.8119 -20.8113 -20.5843 -20.5822
   -20.4540 -20.4486 -20.3557 -20.3488  -8.8923  -8.8464  -8.8342  -8.8173
    -8.8012  -8.6839  -8.6231  -8.5803  -8.5532  -8.4895  -8.4155  -8.4050
    -6.6670  -6.6377  -6.3767  -6.3296  -5.8916  -5.8601  -5.2665  -5.2082
    -4.8820  -4.8488  -4.6100  -4.4044  -3.7621  -3.6519  -3.6220  -3.6173
    -3.5719  -3.4538  -3.3669  -3.3548  -3.3088  -3.2293  -3.2162  -3.1683

          k = 0.0000 0.0000-1.8663 ( 32928 PWs)   bands (ev):

   -20.9846 -20.9687 -20.8988 -20.8988 -20.8971 -20.8971 -20.5143 -20.5143
   -20.5013 -20.5013 -20.3495 -20.3363  -8.8924  -8.8177  -8.8177  -8.8108
    -8.8108  -8.6693  -8.6187  -8.5880  -8.5371  -8.5371  -8.4408  -8.4408
    -6.6559  -6.5206  -6.2095  -6.2095  -6.1370  -6.1370  -5.0360  -5.0360
    -5.0093  -5.0093  -4.5609  -4.3803  -3.7706  -3.6549  -3.6549  -3.6468
    -3.6468  -3.4045  -3.3728  -3.2928  -3.2928  -3.2453  -3.2453  -3.1428

          k = 0.2996-0.3460 0.3111 ( 32903 PWs)   bands (ev):

   -21.1138 -20.9834 -20.9160 -20.8733 -20.8195 -20.7633 -20.6059 -20.5266
   -20.5085 -20.4413 -20.3938 -20.3119  -8.8982  -8.8755  -8.8620  -8.8103
    -8.7790  -8.7452  -8.6409  -8.5937  -8.5670  -8.4476  -8.4111  -8.3984
    -6.8428  -6.5272  -6.4311  -6.1384  -6.0478  -5.6831  -5.3577  -5.0675
    -4.9536  -4.8258  -4.7074  -4.3722  -3.6875  -3.6251  -3.5830  -3.5409
    -3.5142  -3.4526  -3.4036  -3.3830  -3.2962  -3.2596  -3.2151  -3.1461

     highest occupied level (ev):    -3.1208

!    total energy              =    -418.01326631 Ry
     estimated scf accuracy    <       0.00000002 Ry

     The total energy is the sum of the following terms:
     one-electron contribution =    -306.43021303 Ry
     hartree contribution      =     186.52533241 Ry
     xc contribution           =    -105.00754387 Ry
     ewald contribution        =    -193.10084183 Ry

     convergence has been achieved in  25 iterations

     Forces acting on atoms (cartesian axes, Ry/au):

     atom    1 type  2   force =    -0.01300080    0.04696970    0.02678295
     atom    2 type  2   force =     0.01300080   -0.04696970   -0.02678295
     atom    3 type  2   force =    -0.03417656   -0.03474387    0.02678295
     atom    4 type  2   force =     0.03417656    0.03474387   -0.02678295
     atom    5 type  2   force =     0.04717735   -0.01222583    0.02678295
     atom    6 type  2   force =    -0.04717735    0.01222583   -0.02678295
     atom    7 type  2   force =    -0.03653015    0.02804297   -0.02213913
     atom    8 type  2   force =     0.03653015   -0.02804297    0.02213913
     atom    9 type  2   force =    -0.00602085   -0.04565752   -0.02213913
     atom   10 type  2   force =     0.00602085    0.04565752    0.02213913
     atom   11 type  2   force =     0.04255100    0.01761455   -0.02213913
     atom   12 type  2   force =    -0.04255100   -0.01761455    0.02213913
     atom   13 type  1   force =     0.02158052   -0.03864282    0.02093948
     atom   14 type  1   force =    -0.02158052    0.03864282   -0.02093948
     atom   15 type  1   force =     0.02267540    0.03801069    0.02093948
     atom   16 type  1   force =    -0.02267540   -0.03801069   -0.02093948
     atom   17 type  1   force =    -0.04425593    0.00063213    0.02093948
     atom   18 type  1   force =     0.04425593   -0.00063213   -0.02093948
     atom   19 type  1   force =    -0.00938642   -0.00883753   -0.04788099
     atom   20 type  1   force =     0.00938642    0.00883753    0.04788099
     atom   21 type  1   force =     0.01234673   -0.00371011   -0.04788099
     atom   22 type  1   force =    -0.01234673    0.00371011    0.04788099
     atom   23 type  1   force =    -0.00296032    0.01254764   -0.04788099
     atom   24 type  1   force =     0.00296032   -0.01254764    0.04788099
     atom   25 type  1   force =    -0.01310490   -0.04788680   -0.00126895
     atom   26 type  1   force =     0.01310490    0.04788680    0.00126895
     atom   27 type  1   force =     0.04802363    0.01259422   -0.00126895
     atom   28 type  1   force =    -0.04802363   -0.01259422    0.00126895
     atom   29 type  1   force =    -0.03491874    0.03529257   -0.00126895
     atom   30 type  1   force =     0.03491874   -0.03529257    0.00126895
     atom   31 type  1   force =    -0.03116348    0.03034091    0.02635180
     atom   32 type  1   force =     0.03116348   -0.03034091   -0.02635180
     atom   33 type  1   force =    -0.01069426   -0.04215882    0.02635180
     atom   34 type  1   force =     0.01069426    0.04215882   -0.02635180
     atom   35 type  1   force =     0.04185774    0.01181791    0.02635180
     atom   36 type  1   force =    -0.04185774   -0.01181791   -0.02635180

     Total force =     0.306063     Total SCF correction =     0.000271


     Computing stress (Cartesian axis) and pressure

          total   stress  (Ry/bohr**3)                   (kbar)     P=      -68.50
  -0.00046874   0.00000000   0.00000000          -68.95        0.00        0.00
  -0.00000000  -0.00046874  -0.00000000           -0.00      -68.95       -0.00
   0.00000000  -0.00000000  -0.00045954            0.00       -0.00      -67.60


     Writing all to output data dir ./iceII/iceII.save/ :
     XML data file, charge density, pseudopotentials, collected wavefunctions

     init_run     :      2.92s CPU      3.03s WALL (       1 calls)
     electrons    :     27.23s CPU     28.53s WALL (       1 calls)
     forces       :      0.16s CPU      0.16s WALL (       1 calls)
     stress       :      1.20s CPU      1.24s WALL (       1 calls)

     Called by init_run:
     wfcinit      :      0.37s CPU      0.38s WALL (       1 calls)
     potinit      :      1.70s CPU      1.78s WALL (       1 calls)
     hinit0       :      0.67s CPU      0.68s WALL (       1 calls)

     Called by electrons:
     c_bands      :     19.56s CPU     19.81s WALL (      25 calls)
     sum_band     :      2.89s CPU      2.92s WALL (      25 calls)
     v_of_rho     :      6.12s CPU      7.16s WALL (      26 calls)
     newd         :      0.13s CPU      0.15s WALL (      26 calls)
     mix_rho      :      0.13s CPU      0.13s WALL (      25 calls)
     vdW_kernel   :      1.51s CPU      1.53s WALL (       1 calls)

     Called by c_bands:
     init_us_2    :      0.34s CPU      0.36s WALL (     212 calls)
     cegterg      :     19.00s CPU     19.18s WALL (     100 calls)

     Called by *egterg:
     cdiaghg      :      1.31s CPU      1.31s WALL (     348 calls)
     h_psi        :     14.61s CPU     14.77s WALL (     352 calls)
     s_psi        :      0.66s CPU      0.67s WALL (     352 calls)
     g_psi        :      0.04s CPU      0.04s WALL (     248 calls)

     Called by h_psi:
     h_psi:calbec :      1.06s CPU      1.07s WALL (     352 calls)
     vloc_psi     :     12.80s CPU     12.94s WALL (     352 calls)
     add_vuspsi   :      0.64s CPU      0.64s WALL (     352 calls)

     General routines
     calbec       :      1.43s CPU      1.44s WALL (     472 calls)
     fft          :      3.02s CPU      3.62s WALL (    1638 calls)
     ffts         :      0.03s CPU      0.03s WALL (      25 calls)
     fftw         :     13.37s CPU     13.51s WALL (   34366 calls)

     Parallel routines

     PWSCF        :     31.85s CPU     33.75s WALL


   This run was terminated on:  15: 2:49  26Mar2026            

=------------------------------------------------------------------------------=
   JOB DONE.
=------------------------------------------------------------------------------=
