
     Program PWSCF v.7.3.1 starts on 26Mar2026 at 15:57:59 

     This program is part of the open-source Quantum ESPRESSO suite
     for quantum simulation of materials; please cite
         "P. Giannozzi et al., J. Phys.:Condens. Matter 21 395502 (2009);
         "P. Giannozzi et al., J. Phys.:Condens. Matter 29 465901 (2017);
         "P. Giannozzi et al., J. Chem. Phys. 152 154105 (2020);
          URL http://www.quantum-espresso.org", 
     in publications or presentations arising from this work. More details at
     http://www.quantum-espresso.org/quote

     Parallel version (MPI), running on   128 processors

     MPI processes distributed on     1 nodes
     243581 MiB available memory on the printing compute node when the environment starts

     Waiting for input...
     Reading input from standard input

     Current dimensions of program PWSCF are:
     Max number of different atomic species (ntypx) = 10
     Max number of k-points (npk) =  40000
     Max angular momentum in pseudopotentials (lmaxx) =  4

     IMPORTANT: XC functional enforced from input :
     Exchange-correlation= VDW-DF2
                           (   1   4  13   0   2   0   0)
     Any further DFT definition will be discarded
     Please, verify this is what you really want


     K-points division:     npool     =       4
     R & G space division:  proc/nbgrp/npool/nimage =      32
     Subspace diagonalization in iterative solution of the eigenvalue problem:
     a serial algorithm will be used


     Parallelization info
     --------------------
     sticks:   dense  smooth     PW     G-vecs:    dense   smooth      PW
     Min         191     191     55                 8276     8276    1302
     Max         192     192     56                 8280     8280    1307
     Sum        6131    6131   1787               264895   264895   41749

     Using Slab Decomposition



     bravais-lattice index     =            5
     lattice parameter (alat)  =      15.2607  a.u.
     unit-cell volume          =    2296.2531 (a.u.)^3
     number of atoms/cell      =           36
     number of atomic types    =            2
     number of electrons       =        96.00
     number of Kohn-Sham states=           48
     kinetic-energy cutoff     =      90.0000  Ry
     charge density cutoff     =     360.0000  Ry
     scf convergence threshold =      1.0E-07
     mixing beta               =       0.7000
     number of iterations used =            8  plain     mixing
     Exchange-correlation= VDW-DF2
                           (   1   4  13   0   2   0   0)

     celldm(1)=  15.260747  celldm(2)=   0.000000  celldm(3)=   0.000000
     celldm(4)=  -0.392337  celldm(5)=   0.000000  celldm(6)=   0.000000

     crystal axes: (cart. coord. in units of alat)
               a(1) = (   0.834367  -0.481722   0.267909 )  
               a(2) = (   0.000000   0.963444   0.267909 )  
               a(3) = (  -0.834367  -0.481722   0.267909 )  

     reciprocal axes: (cart. coord. in units 2 pi/alat)
               b(1) = (  0.599257 -0.345981  1.244203 )  
               b(2) = (  0.000000  0.691962  1.244203 )  
               b(3) = ( -0.599257 -0.345981  1.244203 )  


     PseudoPot. # 1 for H  read from file:
     ./H.pbe-van_ak.UPF
     MD5 check sum: 077eb6d537518a38cb46c6de387227b7
     Pseudo is Ultrasoft, Zval =  1.0
     Generated by new atomic code, or converted to UPF format
     Using radial grid of  615 points,  1 beta functions with: 
                l(1) =   0
     Q(r) pseudized with  8 coefficients,  rinner =    0.800

     PseudoPot. # 2 for O  read from file:
     ./O.pbe-van_ak.UPF
     MD5 check sum: 78c19812648e8988a0fe644b0f25305e
     Pseudo is Ultrasoft, Zval =  6.0
     Generated by new atomic code, or converted to UPF format
     Using radial grid of  737 points,  4 beta functions with: 
                l(1) =   0
                l(2) =   0
                l(3) =   1
                l(4) =   1
     Q(r) pseudized with  8 coefficients,  rinner =    0.800   0.800   0.800


     atomic species   valence    mass     pseudopotential
     H                 1.00     1.00800     H ( 1.00)
     O                 6.00    16.00000     O ( 1.00)

      6 Sym. Ops., with inversion, found



   Cartesian axes

     site n.     atom                  positions (alat units)
         1        O      tau(   1) = (  -0.4881587  -0.5153728   0.3102004  )
         2        O      tau(   2) = (   0.4881587   0.5153729   0.4935268  )
         3        O      tau(   3) = (   0.6904053  -0.1650714   0.3102004  )
         4        O      tau(   4) = (  -0.6904053   0.1650714   0.4935268  )
         5        O      tau(   5) = (  -0.2022466   0.6804442   0.3102004  )
         6        O      tau(   6) = (   0.2022466  -0.6804442   0.4935268  )
         7        O      tau(   7) = (   0.1208629   0.3351200   0.4137471  )
         8        O      tau(   8) = (  -0.1208629  -0.3351200   0.3899800  )
         9        O      tau(   9) = (  -0.3506539  -0.0628897   0.4137471  )
        10        O      tau(  10) = (   0.3506539   0.0628897   0.3899800  )
        11        O      tau(  11) = (   0.2297910  -0.2722304   0.4137471  )
        12        O      tau(  12) = (  -0.2297910   0.2722304   0.3899800  )
        13        H      tau(  13) = (  -0.5430428  -0.4102686   0.2622098  )
        14        H      tau(  14) = (   0.5430428   0.4102686   0.5415173  )
        15        H      tau(  15) = (   0.6268245  -0.2651546   0.2622098  )
        16        H      tau(  16) = (  -0.6268245   0.2651546   0.5415173  )
        17        H      tau(  17) = (  -0.0837816   0.6754232   0.2622098  )
        18        H      tau(  18) = (   0.0837817  -0.6754232   0.5415173  )
        19        H      tau(  19) = (  -0.4681736  -0.4859583   0.4327384  )
        20        H      tau(  20) = (   0.4681736   0.4859583   0.3709887  )
        21        H      tau(  21) = (   0.6549390  -0.1624711   0.4327384  )
        22        H      tau(  22) = (  -0.6549390   0.1624711   0.3709887  )
        23        H      tau(  23) = (  -0.1867654   0.6484294   0.4327384  )
        24        H      tau(  24) = (   0.1867654  -0.6484294   0.3709887  )
        25        H      tau(  25) = (   0.2718867  -0.1516220   0.4118766  )
        26        H      tau(  26) = (  -0.2718867   0.1516219   0.3918506  )
        27        H      tau(  27) = (  -0.0046349   0.3112717   0.4118766  )
        28        H      tau(  28) = (   0.0046349  -0.3112717   0.3918506  )
        29        H      tau(  29) = (  -0.2672518  -0.1596498   0.4118766  )
        30        H      tau(  30) = (   0.2672518   0.1596498   0.3918506  )
        31        H      tau(  31) = (   0.3136186  -0.3416266   0.3473301  )
        32        H      tau(  32) = (  -0.3136186   0.3416266   0.4563970  )
        33        H      tau(  33) = (   0.1390481   0.4424150   0.3473301  )
        34        H      tau(  34) = (  -0.1390480  -0.4424150   0.4563970  )
        35        H      tau(  35) = (  -0.4526667  -0.1007884   0.3473301  )
        36        H      tau(  36) = (   0.4526666   0.1007884   0.4563970  )

     number of k points=    14
                       cart. coord. in units 2pi/alat
        k(    1) = (   0.0000000   0.0000000   0.0000000), wk =   0.0312500
        k(    2) = (  -0.1498141  -0.0864952   0.3110508), wk =   0.1875000
        k(    3) = (   0.2996283   0.1729905  -0.6221017), wk =   0.0937500
        k(    4) = (  -0.1498141   0.0864952   0.6221017), wk =   0.1875000
        k(    5) = (   0.2996283   0.3459809  -0.3110508), wk =   0.1875000
        k(    6) = (   0.1498141   0.2594857   0.0000000), wk =   0.1875000
        k(    7) = (   0.2996283  -0.1729905  -1.2442034), wk =   0.0937500
        k(    8) = (   0.0000000   0.0000000   0.9331525), wk =   0.0625000
        k(    9) = (   0.4494424   0.2594857   0.0000000), wk =   0.1875000
        k(   10) = (   0.2996283   0.1729905   0.3110508), wk =   0.1875000
        k(   11) = (   0.4494424  -0.2594857  -0.9331525), wk =   0.1875000
        k(   12) = (   0.2996283  -0.3459809  -0.6221017), wk =   0.1875000
        k(   13) = (   0.0000000   0.0000000  -1.8663050), wk =   0.0312500
        k(   14) = (   0.2996283  -0.3459809   0.3110508), wk =   0.1875000

     Dense  grid:   264895 G-vectors     FFT dimensions: (  96,  96,  96)

     Estimated max dynamical RAM per process >      17.20 MB

     Estimated total dynamical RAM >       1.96 GB

     Initial potential from superposition of free atoms

     starting charge      95.9998, renormalised to      96.0000


     %%%%%%%%%%%%%%%%%%%%%%%%%%%%%%%%%%%%%%%%%%%%%%%%%%%%%%%%%%%%%%%%%%%%%%%%
     %                                                                      %
     % You are using vdW-DF, which was implemented by the Thonhauser group. %
     % Please cite the following two papers that made this development      %
     % possible and the two reviews that describe the various versions:     %
     %                                                                      %
     %   T. Thonhauser et al., PRL 115, 136402 (2015).                      %
     %   T. Thonhauser et al., PRB 76, 125112 (2007).                       %
     %   K. Berland et al., Rep. Prog. Phys. 78, 066501 (2015).             %
     %   D.C. Langreth et al., J. Phys.: Condens. Matter 21, 084203 (2009). %
     %                                                                      %
     % If you are calculating stress with vdW-DF, please also cite:         %
     %                                                                      %
     %   R. Sabatini et al., J. Phys.: Condens. Matter 24, 424209 (2012).   %
     %                                                                      %
     %%%%%%%%%%%%%%%%%%%%%%%%%%%%%%%%%%%%%%%%%%%%%%%%%%%%%%%%%%%%%%%%%%%%%%%%

     %%%%%%%%%%%%%%%%%%%%%%%%%%%%%%%%%%%%%%%%%%%%%%%%%%%%%%%%%%%%%%%%%%%%%%%%
     %                                                                      %
     %  vdW-DF NEWS:                                                        %
     %                                                                      %
     %  * vdW-DF3 is now available. DOI: 10.1021/acs.jctc.0c00471           %
     %    use with input_dft = 'vdW-DF3-opt1' or 'vdW-DF3-opt2'             %
     %                                                                      %
     %  * Unscreened and range-separated hybrid vdW-DF-cx functionals       %
     %    DOI: 10.1063/1.4986522 and 10.1088/1361-648X/ac2ad2               %
     %    use with input_dft = 'vdW-DF-cx0'    and 'vdW-DF-ahcx'            %
     %  * Unscreened and range-separated hybrid vdW-DF2-b86r functionals    %
     %    DOI: 10.1063/1.4986522 and DOI: 10.1103/PhysRevX.12.041003        %
     %    use with input_dft = 'vdW-DF2-br0' and 'vdW-DF2-ahbr'             %
     %                                                                      %
     %%%%%%%%%%%%%%%%%%%%%%%%%%%%%%%%%%%%%%%%%%%%%%%%%%%%%%%%%%%%%%%%%%%%%%%%


     Starting wfcs are   72 randomized atomic wfcs

     total cpu time spent up to now is       13.1 secs

     per-process dynamical memory:    20.9 Mb

     Self-consistent Calculation

     iteration #  1     ecut=    90.00 Ry     beta= 0.70
     Davidson diagonalization with overlap
     ethr =  1.00E-02,  avg # of iterations =  2.0

     total cpu time spent up to now is       14.2 secs

     total energy              =    -415.90331787 Ry
     estimated scf accuracy    <       4.57557166 Ry

     iteration #  2     ecut=    90.00 Ry     beta= 0.70
     Davidson diagonalization with overlap
     ethr =  4.77E-03,  avg # of iterations =  3.0

     total cpu time spent up to now is       15.5 secs

     total energy              =    -417.37547245 Ry
     estimated scf accuracy    <       3.78969149 Ry

     iteration #  3     ecut=    90.00 Ry     beta= 0.70
     Davidson diagonalization with overlap
     ethr =  3.95E-03,  avg # of iterations =  2.0

     total cpu time spent up to now is       16.6 secs

     total energy              =    -417.86164661 Ry
     estimated scf accuracy    <       0.17746316 Ry

     iteration #  4     ecut=    90.00 Ry     beta= 0.70
     Davidson diagonalization with overlap
     ethr =  1.85E-04,  avg # of iterations =  4.0

     total cpu time spent up to now is       18.1 secs

     total energy              =    -417.99764324 Ry
     estimated scf accuracy    <       0.20591916 Ry

     iteration #  5     ecut=    90.00 Ry     beta= 0.70
     Davidson diagonalization with overlap
     ethr =  1.85E-04,  avg # of iterations =  2.0

     negative rho (up, down):  2.141E-08 0.000E+00

     total cpu time spent up to now is       19.0 secs

     total energy              =    -418.00028469 Ry
     estimated scf accuracy    <       0.03285957 Ry

     iteration #  6     ecut=    90.00 Ry     beta= 0.70
     Davidson diagonalization with overlap
     ethr =  3.42E-05,  avg # of iterations =  2.0

     negative rho (up, down):  5.719E-08 0.000E+00

     total cpu time spent up to now is       20.0 secs

     total energy              =    -418.00621288 Ry
     estimated scf accuracy    <       0.00208893 Ry

     iteration #  7     ecut=    90.00 Ry     beta= 0.70
     Davidson diagonalization with overlap
     ethr =  2.18E-06,  avg # of iterations =  3.0

     negative rho (up, down):  5.701E-08 0.000E+00

     total cpu time spent up to now is       21.2 secs

     total energy              =    -418.00736317 Ry
     estimated scf accuracy    <       0.00039734 Ry

     iteration #  8     ecut=    90.00 Ry     beta= 0.70
     Davidson diagonalization with overlap
     ethr =  4.14E-07,  avg # of iterations =  2.0

     negative rho (up, down):  2.486E-08 0.000E+00

     total cpu time spent up to now is       22.1 secs

     total energy              =    -418.00734019 Ry
     estimated scf accuracy    <       0.00049627 Ry

     iteration #  9     ecut=    90.00 Ry     beta= 0.70
     Davidson diagonalization with overlap
     ethr =  4.14E-07,  avg # of iterations =  1.0

     total cpu time spent up to now is       22.9 secs

     total energy              =    -418.00742753 Ry
     estimated scf accuracy    <       0.00039221 Ry

     iteration # 10     ecut=    90.00 Ry     beta= 0.70
     Davidson diagonalization with overlap
     ethr =  4.09E-07,  avg # of iterations =  5.0

     total cpu time spent up to now is       24.7 secs

     total energy              =    -418.00683255 Ry
     estimated scf accuracy    <       0.00713640 Ry

     iteration # 11     ecut=    90.00 Ry     beta= 0.70
     Davidson diagonalization with overlap
     ethr =  4.09E-07,  avg # of iterations =  4.0

     total cpu time spent up to now is       26.1 secs

     total energy              =    -418.00731421 Ry
     estimated scf accuracy    <       0.00089050 Ry

     iteration # 12     ecut=    90.00 Ry     beta= 0.70
     Davidson diagonalization with overlap
     ethr =  4.09E-07,  avg # of iterations =  1.0

     total cpu time spent up to now is       27.0 secs

     total energy              =    -418.01118085 Ry
     estimated scf accuracy    <       0.00052721 Ry

     iteration # 13     ecut=    90.00 Ry     beta= 0.70
     Davidson diagonalization with overlap
     ethr =  4.09E-07,  avg # of iterations =  7.0

     total cpu time spent up to now is       29.0 secs

     total energy              =    -418.00938217 Ry
     estimated scf accuracy    <       0.02652508 Ry

     iteration # 14     ecut=    90.00 Ry     beta= 0.70
     Davidson diagonalization with overlap
     ethr =  4.09E-07,  avg # of iterations =  4.0

     total cpu time spent up to now is       30.4 secs

     total energy              =    -418.00728807 Ry
     estimated scf accuracy    <       0.01100944 Ry

     iteration # 15     ecut=    90.00 Ry     beta= 0.70
     Davidson diagonalization with overlap
     ethr =  4.09E-07,  avg # of iterations =  4.0

     total cpu time spent up to now is       32.0 secs

     total energy              =    -418.00861497 Ry
     estimated scf accuracy    <       0.00274389 Ry

     iteration # 16     ecut=    90.00 Ry     beta= 0.70
     Davidson diagonalization with overlap
     ethr =  4.09E-07,  avg # of iterations =  2.0

     negative rho (up, down):  2.203E-08 0.000E+00

     total cpu time spent up to now is       33.0 secs

     total energy              =    -418.00659105 Ry
     estimated scf accuracy    <       0.00487391 Ry

     iteration # 17     ecut=    90.00 Ry     beta= 0.70
     Davidson diagonalization with overlap
     ethr =  4.09E-07,  avg # of iterations =  4.0

     negative rho (up, down):  2.634E-08 0.000E+00

     total cpu time spent up to now is       34.5 secs

     total energy              =    -418.00720691 Ry
     estimated scf accuracy    <       0.00010787 Ry

     iteration # 18     ecut=    90.00 Ry     beta= 0.70
     Davidson diagonalization with overlap
     ethr =  1.12E-07,  avg # of iterations =  3.0

     negative rho (up, down):  2.734E-08 0.000E+00

     total cpu time spent up to now is       35.6 secs

     total energy              =    -418.00723572 Ry
     estimated scf accuracy    <       0.00000409 Ry

     iteration # 19     ecut=    90.00 Ry     beta= 0.70
     Davidson diagonalization with overlap
     ethr =  4.26E-09,  avg # of iterations =  4.4

     negative rho (up, down):  2.742E-08 0.000E+00

     total cpu time spent up to now is       37.1 secs

     total energy              =    -418.00723976 Ry
     estimated scf accuracy    <       0.00000012 Ry

     iteration # 20     ecut=    90.00 Ry     beta= 0.70
     Davidson diagonalization with overlap
     ethr =  1.29E-10,  avg # of iterations =  5.4

     negative rho (up, down):  2.638E-08 0.000E+00

     total cpu time spent up to now is       38.7 secs

     total energy              =    -418.00723965 Ry
     estimated scf accuracy    <       0.00000134 Ry

     iteration # 21     ecut=    90.00 Ry     beta= 0.70
     Davidson diagonalization with overlap
     ethr =  1.29E-10,  avg # of iterations =  3.0

     negative rho (up, down):  2.594E-08 0.000E+00

     total cpu time spent up to now is       40.0 secs

     total energy              =    -418.00723961 Ry
     estimated scf accuracy    <       0.00000030 Ry

     iteration # 22     ecut=    90.00 Ry     beta= 0.70
     Davidson diagonalization with overlap
     ethr =  1.29E-10,  avg # of iterations =  2.4

     negative rho (up, down):  2.547E-08 0.000E+00

     total cpu time spent up to now is       41.1 secs

     End of self-consistent calculation

          k = 0.0000 0.0000 0.0000 ( 33091 PWs)   bands (ev):

   -21.2523 -20.8850 -20.8850 -20.7226 -20.7226 -20.6900 -20.6866 -20.6858
   -20.6858 -20.4545 -20.4545 -20.2094  -8.9424  -8.8729  -8.8729  -8.8580
    -8.7872  -8.7872  -8.5370  -8.5370  -8.5289  -8.4857  -8.4857  -8.4840
    -7.2498  -6.3097  -6.3097  -5.7805  -5.7805  -5.6289  -5.6289  -5.4869
    -5.3702  -4.7664  -4.7664  -4.0938  -3.6303  -3.6303  -3.6048  -3.4900
    -3.4900  -3.4593  -3.3669  -3.3669  -3.3320  -3.2758  -3.2282  -3.2282

          k =-0.1498-0.0865 0.3111 ( 33093 PWs)   bands (ev):

   -21.1940 -20.9184 -20.8780 -20.8307 -20.8009 -20.7477 -20.6503 -20.6143
   -20.5666 -20.4579 -20.4255 -20.2547  -8.9126  -8.8868  -8.8697  -8.8404
    -8.7823  -8.7558  -8.5838  -8.5622  -8.5530  -8.4802  -8.4321  -8.4255
    -7.1042  -6.4609  -6.3409  -6.0609  -5.8538  -5.6385  -5.4847  -5.3680
    -5.2157  -4.7600  -4.7065  -4.2344  -3.6973  -3.6399  -3.6167  -3.5445
    -3.5307  -3.4878  -3.4013  -3.3595  -3.3046  -3.2933  -3.2424  -3.2204

          k = 0.2996 0.1730-0.6221 ( 33082 PWs)   bands (ev):

   -21.0451 -21.0417 -20.9018 -20.8922 -20.7993 -20.7984 -20.6068 -20.6067
   -20.4666 -20.4557 -20.3654 -20.3643  -8.8936  -8.8803  -8.8444  -8.8424
    -8.7835  -8.7361  -8.6020  -8.5849  -8.5664  -8.4682  -8.3971  -8.3876
    -6.8006  -6.7132  -6.3379  -6.3289  -5.8365  -5.7820  -5.3730  -5.2935
    -4.8908  -4.8215  -4.6725  -4.4542  -3.7612  -3.6580  -3.6052  -3.5940
    -3.5450  -3.5208  -3.4426  -3.3634  -3.3439  -3.2735  -3.2282  -3.2113

          k =-0.1498 0.0865 0.6221 ( 33075 PWs)   bands (ev):

   -21.0780 -20.9667 -20.9565 -20.8619 -20.8404 -20.7886 -20.6141 -20.5509
   -20.5161 -20.4237 -20.4103 -20.3367  -8.8938  -8.8763  -8.8520  -8.8448
    -8.7785  -8.7283  -8.6002  -8.5918  -8.5775  -8.4426  -8.4120  -8.3887
    -6.8439  -6.5814  -6.5396  -6.1329  -5.9559  -5.7903  -5.3686  -5.1567
    -5.0486  -4.7415  -4.6831  -4.4668  -3.7468  -3.6829  -3.6011  -3.5777
    -3.5421  -3.5215  -3.4526  -3.3636  -3.3322  -3.2728  -3.2488  -3.1994

          k = 0.2996 0.3460-0.3111 ( 33097 PWs)   bands (ev):

   -21.1156 -20.9883 -20.9159 -20.8803 -20.8260 -20.7695 -20.6147 -20.5308
   -20.5170 -20.4543 -20.4045 -20.3220  -8.8980  -8.8933  -8.8596  -8.8278
    -8.7759  -8.7511  -8.6384  -8.6052  -8.5787  -8.4596  -8.4264  -8.3988
    -6.8539  -6.5657  -6.3950  -6.1736  -6.1171  -5.6486  -5.2934  -5.2042
    -5.0487  -4.7927  -4.6815  -4.4231  -3.6997  -3.6560  -3.6111  -3.5691
    -3.5267  -3.4740  -3.4189  -3.3950  -3.3117  -3.3093  -3.2390  -3.1664

          k = 0.1498 0.2595 0.0000 ( 33108 PWs)   bands (ev):

   -21.2091 -20.9417 -20.8978 -20.8115 -20.7862 -20.7248 -20.6535 -20.5991
   -20.5654 -20.4607 -20.4372 -20.2469  -8.9281  -8.8836  -8.8744  -8.8398
    -8.7833  -8.7768  -8.6049  -8.5811  -8.5440  -8.4940  -8.4715  -8.4299
    -7.0940  -6.3635  -6.2774  -6.0913  -6.0595  -5.5510  -5.3952  -5.2809
    -5.2544  -4.8002  -4.7564  -4.1956  -3.6338  -3.6223  -3.6167  -3.5317
    -3.4945  -3.4735  -3.3967  -3.3812  -3.3182  -3.2956  -3.2093  -3.1923

          k = 0.2996-0.1730-1.2442 ( 33124 PWs)   bands (ev):

   -21.1076 -21.0717 -20.9060 -20.8547 -20.7813 -20.7489 -20.6012 -20.5939
   -20.4928 -20.4868 -20.3475 -20.3411  -8.9087  -8.8917  -8.8671  -8.8299
    -8.7737  -8.7723  -8.6613  -8.6171  -8.5633  -8.4721  -8.4648  -8.4199
    -6.7198  -6.6902  -6.3607  -6.2359  -6.0021  -5.6717  -5.2235  -5.2111
    -5.0389  -4.9115  -4.5836  -4.4358  -3.6444  -3.6228  -3.6069  -3.5610
    -3.5003  -3.4728  -3.4251  -3.3688  -3.3635  -3.2858  -3.1806  -3.1768

          k = 0.0000 0.0000 0.9332 ( 33093 PWs)   bands (ev):

   -21.0292 -21.0292 -20.9598 -20.9428 -20.7932 -20.7932 -20.5525 -20.5525
   -20.4464 -20.4319 -20.4040 -20.4040  -8.8925  -8.8925  -8.8669  -8.7928
    -8.7928  -8.7746  -8.6691  -8.6034  -8.6034  -8.4120  -8.4120  -8.3927
    -6.6328  -6.6328  -6.5908  -6.2552  -5.9268  -5.9268  -5.0768  -5.0768
    -5.0040  -4.7388  -4.7388  -4.6310  -3.6624  -3.6624  -3.5836  -3.5663
    -3.4992  -3.4992  -3.4653  -3.3625  -3.3625  -3.2769  -3.2769  -3.1459

          k = 0.4494 0.2595 0.0000 ( 33125 PWs)   bands (ev):

   -21.1294 -20.9960 -20.9860 -20.8563 -20.7439 -20.7314 -20.6309 -20.6141
   -20.4873 -20.4329 -20.4103 -20.3149  -8.9070  -8.8854  -8.8779  -8.8212
    -8.7978  -8.7468  -8.6710  -8.6090  -8.5772  -8.4680  -8.4568  -8.4232
    -6.8262  -6.4561  -6.4193  -6.3365  -5.9655  -5.6642  -5.3025  -5.2245
    -4.9611  -4.8164  -4.7153  -4.3968  -3.6338  -3.6262  -3.6128  -3.5543
    -3.5180  -3.4781  -3.4100  -3.3871  -3.3476  -3.2647  -3.2137  -3.1627

          k = 0.2996 0.1730 0.3111 ( 33134 PWs)   bands (ev):

   -21.1535 -20.9511 -20.8907 -20.8725 -20.8151 -20.7582 -20.6276 -20.5854
   -20.5475 -20.4426 -20.4091 -20.2854  -8.9044  -8.8908  -8.8611  -8.8219
    -8.7881  -8.7325  -8.6181  -8.5730  -8.5475  -8.5125  -8.4596  -8.4115
    -6.9610  -6.4352  -6.4043  -6.1334  -6.0366  -5.6409  -5.3914  -5.2401
    -5.1775  -4.7470  -4.6974  -4.3002  -3.7179  -3.6511  -3.6277  -3.5806
    -3.5509  -3.4557  -3.4312  -3.3655  -3.2892  -3.2884  -3.2271  -3.2022

          k = 0.4494-0.2595-0.9332 ( 33128 PWs)   bands (ev):

   -21.0510 -21.0430 -20.9362 -20.9036 -20.8050 -20.7333 -20.6576 -20.5763
   -20.4787 -20.4258 -20.3931 -20.3349  -8.8973  -8.8779  -8.8682  -8.8059
    -8.7740  -8.7208  -8.6405  -8.6024  -8.5686  -8.5180  -8.4569  -8.4249
    -6.6814  -6.5846  -6.4497  -6.2523  -6.0562  -5.6676  -5.4398  -5.1715
    -4.9490  -4.7464  -4.7105  -4.4019  -3.7263  -3.6704  -3.6458  -3.5950
    -3.5712  -3.4733  -3.3918  -3.3745  -3.3071  -3.2731  -3.2092  -3.1899

          k = 0.2996-0.3460-0.6221 ( 33102 PWs)   bands (ev):

   -21.0172 -21.0112 -20.9298 -20.9221 -20.8172 -20.8167 -20.5922 -20.5902
   -20.4634 -20.4581 -20.3663 -20.3593  -8.8978  -8.8521  -8.8402  -8.8235
    -8.8077  -8.6912  -8.6301  -8.5874  -8.5610  -8.4978  -8.4244  -8.4140
    -6.6811  -6.6520  -6.3925  -6.3458  -5.9103  -5.8791  -5.2887  -5.2310
    -4.9059  -4.8727  -4.6353  -4.4304  -3.7818  -3.6723  -3.6428  -3.6380
    -3.5934  -3.4758  -3.3899  -3.3779  -3.3323  -3.2535  -3.2405  -3.1933

          k = 0.0000 0.0000-1.8663 ( 33186 PWs)   bands (ev):

   -20.9882 -20.9727 -20.9031 -20.9031 -20.9013 -20.9013 -20.5229 -20.5229
   -20.5102 -20.5102 -20.3601 -20.3470  -8.8980  -8.8241  -8.8241  -8.8169
    -8.8169  -8.6764  -8.6261  -8.5948  -8.5451  -8.5451  -8.4493  -8.4493
    -6.6701  -6.5359  -6.2262  -6.2262  -6.1546  -6.1546  -5.0599  -5.0599
    -5.0325  -5.0325  -4.5864  -4.4063  -3.7906  -3.6752  -3.6752  -3.6673
    -3.6673  -3.4269  -3.3958  -3.3164  -3.3164  -3.2693  -3.2693  -3.1681

          k = 0.2996-0.3460 0.3111 ( 33097 PWs)   bands (ev):

   -21.1157 -20.9868 -20.9203 -20.8780 -20.8250 -20.7693 -20.6136 -20.5351
   -20.5174 -20.4508 -20.4039 -20.3229  -8.9037  -8.8811  -8.8677  -8.8165
    -8.7853  -8.7518  -8.6475  -8.6010  -8.5743  -8.4564  -8.4200  -8.4076
    -6.8557  -6.5422  -6.4465  -6.1557  -6.0659  -5.7030  -5.3792  -5.0910
    -4.9770  -4.8502  -4.7317  -4.3988  -3.7078  -3.6459  -3.6042  -3.5624
    -3.5359  -3.4750  -3.4263  -3.4060  -3.3197  -3.2836  -3.2395  -3.1711

     highest occupied level (ev):    -3.1459

!    total energy              =    -418.00723964 Ry
     estimated scf accuracy    <       0.00000002 Ry

     The total energy is the sum of the following terms:
     one-electron contribution =    -307.09228883 Ry
     hartree contribution      =     186.77214530 Ry
     xc contribution           =    -104.95831756 Ry
     ewald contribution        =    -192.72877855 Ry

     convergence has been achieved in  22 iterations

     Forces acting on atoms (cartesian axes, Ry/au):

     atom    1 type  2   force =    -0.01355248    0.04920523    0.02803524
     atom    2 type  2   force =     0.01355248   -0.04920523   -0.02803524
     atom    3 type  2   force =    -0.03583673   -0.03633941    0.02803524
     atom    4 type  2   force =     0.03583673    0.03633941   -0.02803524
     atom    5 type  2   force =     0.04938922   -0.01286582    0.02803524
     atom    6 type  2   force =    -0.04938922    0.01286582   -0.02803524
     atom    7 type  2   force =    -0.03840248    0.02924771   -0.02325550
     atom    8 type  2   force =     0.03840248   -0.02924771    0.02325550
     atom    9 type  2   force =    -0.00612802   -0.04788137   -0.02325550
     atom   10 type  2   force =     0.00612802    0.04788137    0.02325550
     atom   11 type  2   force =     0.04453050    0.01863366   -0.02325550
     atom   12 type  2   force =    -0.04453050   -0.01863366    0.02325550
     atom   13 type  1   force =     0.02258807   -0.04050319    0.02200635
     atom   14 type  1   force =    -0.02258807    0.04050319   -0.02200635
     atom   15 type  1   force =     0.02378276    0.03981344    0.02200635
     atom   16 type  1   force =    -0.02378276   -0.03981344   -0.02200635
     atom   17 type  1   force =    -0.04637083    0.00068975    0.02200635
     atom   18 type  1   force =     0.04637083   -0.00068975   -0.02200635
     atom   19 type  1   force =    -0.00982947   -0.00922530   -0.05019513
     atom   20 type  1   force =     0.00982947    0.00922530    0.05019513
     atom   21 type  1   force =     0.01290408   -0.00389992   -0.05019513
     atom   22 type  1   force =    -0.01290408    0.00389992    0.05019513
     atom   23 type  1   force =    -0.00307461    0.01312522   -0.05019513
     atom   24 type  1   force =     0.00307461   -0.01312522    0.05019513
     atom   25 type  1   force =    -0.01376029   -0.05017478   -0.00131669
     atom   26 type  1   force =     0.01376029    0.05017478    0.00131669
     atom   27 type  1   force =     0.05033278    0.01317063   -0.00131669
     atom   28 type  1   force =    -0.05033278   -0.01317063    0.00131669
     atom   29 type  1   force =    -0.03657249    0.03700416   -0.00131669
     atom   30 type  1   force =     0.03657249   -0.03700416    0.00131669
     atom   31 type  1   force =    -0.03266678    0.03180774    0.02760900
     atom   32 type  1   force =     0.03266678   -0.03180774   -0.02760900
     atom   33 type  1   force =    -0.01121292   -0.04419413    0.02760900
     atom   34 type  1   force =     0.01121292    0.04419413   -0.02760900
     atom   35 type  1   force =     0.04387970    0.01238639    0.02760900
     atom   36 type  1   force =    -0.04387970   -0.01238639   -0.02760900

     Total force =     0.320759     Total SCF correction =     0.000070


     Computing stress (Cartesian axis) and pressure

          total   stress  (Ry/bohr**3)                   (kbar)     P=      -71.69
  -0.00049045   0.00000000  -0.00000000          -72.15        0.00       -0.00
  -0.00000000  -0.00049045  -0.00000000           -0.00      -72.15       -0.00
  -0.00000000  -0.00000000  -0.00048111           -0.00       -0.00      -70.77


     Writing all to output data dir ./iceII/iceII.save/ :
     XML data file, charge density, pseudopotentials, collected wavefunctions

     init_run     :      2.97s CPU      5.34s WALL (       1 calls)
     electrons    :     27.05s CPU     28.13s WALL (       1 calls)
     forces       :      0.15s CPU      0.16s WALL (       1 calls)
     stress       :      1.17s CPU      1.23s WALL (       1 calls)

     Called by init_run:
     wfcinit      :      0.37s CPU      2.56s WALL (       1 calls)
     potinit      :      1.75s CPU      1.84s WALL (       1 calls)
     hinit0       :      0.67s CPU      0.74s WALL (       1 calls)

     Called by electrons:
     c_bands      :     20.22s CPU     20.41s WALL (      22 calls)
     sum_band     :      2.55s CPU      2.58s WALL (      22 calls)
     v_of_rho     :      5.69s CPU      6.57s WALL (      23 calls)
     newd         :      0.14s CPU      0.16s WALL (      23 calls)
     mix_rho      :      0.11s CPU      0.11s WALL (      22 calls)
     vdW_kernel   :      1.54s CPU      1.59s WALL (       1 calls)

     Called by c_bands:
     init_us_2    :      0.31s CPU      0.32s WALL (     188 calls)
     cegterg      :     19.47s CPU     19.62s WALL (      88 calls)

     Called by *egterg:
     cdiaghg      :      1.41s CPU      3.56s WALL (     370 calls)
     h_psi        :     14.80s CPU     14.96s WALL (     374 calls)
     s_psi        :      0.65s CPU      0.67s WALL (     374 calls)
     g_psi        :      0.04s CPU      0.04s WALL (     282 calls)

     Called by h_psi:
     h_psi:calbec :      1.09s CPU      1.13s WALL (     374 calls)
     vloc_psi     :     12.93s CPU     13.04s WALL (     374 calls)
     add_vuspsi   :      0.68s CPU      0.68s WALL (     374 calls)

     General routines
     calbec       :      1.39s CPU      1.45s WALL (     482 calls)
     fft          :      2.76s CPU      3.32s WALL (    1455 calls)
     ffts         :      0.02s CPU      0.03s WALL (      22 calls)
     fftw         :     13.24s CPU     13.35s WALL (   34162 calls)

     Parallel routines

     PWSCF        :     36.37s CPU     43.23s WALL


   This run was terminated on:  15:58:42  26Mar2026            

=------------------------------------------------------------------------------=
   JOB DONE.
=------------------------------------------------------------------------------=
