
     Program PWSCF v.7.3.1 starts on 26Mar2026 at 15:58:44 

     This program is part of the open-source Quantum ESPRESSO suite
     for quantum simulation of materials; please cite
         "P. Giannozzi et al., J. Phys.:Condens. Matter 21 395502 (2009);
         "P. Giannozzi et al., J. Phys.:Condens. Matter 29 465901 (2017);
         "P. Giannozzi et al., J. Chem. Phys. 152 154105 (2020);
          URL http://www.quantum-espresso.org", 
     in publications or presentations arising from this work. More details at
     http://www.quantum-espresso.org/quote

     Parallel version (MPI), running on   128 processors

     MPI processes distributed on     1 nodes
     242774 MiB available memory on the printing compute node when the environment starts

     Waiting for input...
     Reading input from standard input

     Current dimensions of program PWSCF are:
     Max number of different atomic species (ntypx) = 10
     Max number of k-points (npk) =  40000
     Max angular momentum in pseudopotentials (lmaxx) =  4

     IMPORTANT: XC functional enforced from input :
     Exchange-correlation= VDW-DF2
                           (   1   4  13   0   2   0   0)
     Any further DFT definition will be discarded
     Please, verify this is what you really want


     K-points division:     npool     =       4
     R & G space division:  proc/nbgrp/npool/nimage =      32
     Subspace diagonalization in iterative solution of the eigenvalue problem:
     a serial algorithm will be used


     Parallelization info
     --------------------
     sticks:   dense  smooth     PW     G-vecs:    dense   smooth      PW
     Min         192     192     55                 8322     8322    1310
     Max         193     193     56                 8324     8324    1315
     Sum        6163    6163   1787               266341   266341   42025

     Using Slab Decomposition



     bravais-lattice index     =            5
     lattice parameter (alat)  =      15.2902  a.u.
     unit-cell volume          =    2309.5519 (a.u.)^3
     number of atoms/cell      =           36
     number of atomic types    =            2
     number of electrons       =        96.00
     number of Kohn-Sham states=           48
     kinetic-energy cutoff     =      90.0000  Ry
     charge density cutoff     =     360.0000  Ry
     scf convergence threshold =      1.0E-07
     mixing beta               =       0.7000
     number of iterations used =            8  plain     mixing
     Exchange-correlation= VDW-DF2
                           (   1   4  13   0   2   0   0)

     celldm(1)=  15.290151  celldm(2)=   0.000000  celldm(3)=   0.000000
     celldm(4)=  -0.392337  celldm(5)=   0.000000  celldm(6)=   0.000000

     crystal axes: (cart. coord. in units of alat)
               a(1) = (   0.834367  -0.481722   0.267909 )  
               a(2) = (   0.000000   0.963444   0.267909 )  
               a(3) = (  -0.834367  -0.481722   0.267909 )  

     reciprocal axes: (cart. coord. in units 2 pi/alat)
               b(1) = (  0.599257 -0.345981  1.244203 )  
               b(2) = ( -0.000000  0.691962  1.244203 )  
               b(3) = ( -0.599257 -0.345981  1.244203 )  


     PseudoPot. # 1 for H  read from file:
     ./H.pbe-van_ak.UPF
     MD5 check sum: 077eb6d537518a38cb46c6de387227b7
     Pseudo is Ultrasoft, Zval =  1.0
     Generated by new atomic code, or converted to UPF format
     Using radial grid of  615 points,  1 beta functions with: 
                l(1) =   0
     Q(r) pseudized with  8 coefficients,  rinner =    0.800

     PseudoPot. # 2 for O  read from file:
     ./O.pbe-van_ak.UPF
     MD5 check sum: 78c19812648e8988a0fe644b0f25305e
     Pseudo is Ultrasoft, Zval =  6.0
     Generated by new atomic code, or converted to UPF format
     Using radial grid of  737 points,  4 beta functions with: 
                l(1) =   0
                l(2) =   0
                l(3) =   1
                l(4) =   1
     Q(r) pseudized with  8 coefficients,  rinner =    0.800   0.800   0.800


     atomic species   valence    mass     pseudopotential
     H                 1.00     1.00800     H ( 1.00)
     O                 6.00    16.00000     O ( 1.00)

      6 Sym. Ops., with inversion, found



   Cartesian axes

     site n.     atom                  positions (alat units)
         1        O      tau(   1) = (  -0.4881587  -0.5153728   0.3102004  )
         2        O      tau(   2) = (   0.4881587   0.5153729   0.4935268  )
         3        O      tau(   3) = (   0.6904053  -0.1650714   0.3102004  )
         4        O      tau(   4) = (  -0.6904053   0.1650714   0.4935268  )
         5        O      tau(   5) = (  -0.2022466   0.6804442   0.3102004  )
         6        O      tau(   6) = (   0.2022466  -0.6804442   0.4935268  )
         7        O      tau(   7) = (   0.1208629   0.3351200   0.4137471  )
         8        O      tau(   8) = (  -0.1208629  -0.3351200   0.3899800  )
         9        O      tau(   9) = (  -0.3506539  -0.0628897   0.4137471  )
        10        O      tau(  10) = (   0.3506539   0.0628897   0.3899800  )
        11        O      tau(  11) = (   0.2297910  -0.2722304   0.4137471  )
        12        O      tau(  12) = (  -0.2297910   0.2722304   0.3899800  )
        13        H      tau(  13) = (  -0.5430428  -0.4102686   0.2622098  )
        14        H      tau(  14) = (   0.5430428   0.4102686   0.5415173  )
        15        H      tau(  15) = (   0.6268245  -0.2651546   0.2622098  )
        16        H      tau(  16) = (  -0.6268245   0.2651546   0.5415173  )
        17        H      tau(  17) = (  -0.0837816   0.6754232   0.2622098  )
        18        H      tau(  18) = (   0.0837817  -0.6754232   0.5415173  )
        19        H      tau(  19) = (  -0.4681736  -0.4859583   0.4327384  )
        20        H      tau(  20) = (   0.4681736   0.4859583   0.3709887  )
        21        H      tau(  21) = (   0.6549390  -0.1624711   0.4327384  )
        22        H      tau(  22) = (  -0.6549390   0.1624711   0.3709887  )
        23        H      tau(  23) = (  -0.1867654   0.6484294   0.4327384  )
        24        H      tau(  24) = (   0.1867654  -0.6484294   0.3709887  )
        25        H      tau(  25) = (   0.2718867  -0.1516220   0.4118766  )
        26        H      tau(  26) = (  -0.2718867   0.1516219   0.3918506  )
        27        H      tau(  27) = (  -0.0046349   0.3112717   0.4118766  )
        28        H      tau(  28) = (   0.0046349  -0.3112717   0.3918506  )
        29        H      tau(  29) = (  -0.2672518  -0.1596498   0.4118766  )
        30        H      tau(  30) = (   0.2672518   0.1596498   0.3918506  )
        31        H      tau(  31) = (   0.3136186  -0.3416266   0.3473301  )
        32        H      tau(  32) = (  -0.3136186   0.3416266   0.4563970  )
        33        H      tau(  33) = (   0.1390481   0.4424150   0.3473301  )
        34        H      tau(  34) = (  -0.1390480  -0.4424150   0.4563970  )
        35        H      tau(  35) = (  -0.4526667  -0.1007884   0.3473301  )
        36        H      tau(  36) = (   0.4526666   0.1007884   0.4563970  )

     number of k points=    14
                       cart. coord. in units 2pi/alat
        k(    1) = (   0.0000000   0.0000000   0.0000000), wk =   0.0312500
        k(    2) = (  -0.1498141  -0.0864952   0.3110508), wk =   0.1875000
        k(    3) = (   0.2996283   0.1729905  -0.6221017), wk =   0.0937500
        k(    4) = (  -0.1498141   0.0864952   0.6221017), wk =   0.1875000
        k(    5) = (   0.2996283   0.3459809  -0.3110508), wk =   0.1875000
        k(    6) = (   0.1498141   0.2594857   0.0000000), wk =   0.1875000
        k(    7) = (   0.2996283  -0.1729905  -1.2442034), wk =   0.0937500
        k(    8) = (   0.0000000   0.0000000   0.9331525), wk =   0.0625000
        k(    9) = (   0.4494424   0.2594857   0.0000000), wk =   0.1875000
        k(   10) = (   0.2996283   0.1729905   0.3110508), wk =   0.1875000
        k(   11) = (   0.4494424  -0.2594857  -0.9331525), wk =   0.1875000
        k(   12) = (   0.2996283  -0.3459809  -0.6221017), wk =   0.1875000
        k(   13) = (   0.0000000   0.0000000  -1.8663050), wk =   0.0312500
        k(   14) = (   0.2996283  -0.3459809   0.3110508), wk =   0.1875000

     Dense  grid:   266341 G-vectors     FFT dimensions: (  96,  96,  96)

     Estimated max dynamical RAM per process >      17.28 MB

     Estimated total dynamical RAM >       1.97 GB

     Initial potential from superposition of free atoms

     starting charge      95.9998, renormalised to      96.0000


     %%%%%%%%%%%%%%%%%%%%%%%%%%%%%%%%%%%%%%%%%%%%%%%%%%%%%%%%%%%%%%%%%%%%%%%%
     %                                                                      %
     % You are using vdW-DF, which was implemented by the Thonhauser group. %
     % Please cite the following two papers that made this development      %
     % possible and the two reviews that describe the various versions:     %
     %                                                                      %
     %   T. Thonhauser et al., PRL 115, 136402 (2015).                      %
     %   T. Thonhauser et al., PRB 76, 125112 (2007).                       %
     %   K. Berland et al., Rep. Prog. Phys. 78, 066501 (2015).             %
     %   D.C. Langreth et al., J. Phys.: Condens. Matter 21, 084203 (2009). %
     %                                                                      %
     % If you are calculating stress with vdW-DF, please also cite:         %
     %                                                                      %
     %   R. Sabatini et al., J. Phys.: Condens. Matter 24, 424209 (2012).   %
     %                                                                      %
     %%%%%%%%%%%%%%%%%%%%%%%%%%%%%%%%%%%%%%%%%%%%%%%%%%%%%%%%%%%%%%%%%%%%%%%%

     %%%%%%%%%%%%%%%%%%%%%%%%%%%%%%%%%%%%%%%%%%%%%%%%%%%%%%%%%%%%%%%%%%%%%%%%
     %                                                                      %
     %  vdW-DF NEWS:                                                        %
     %                                                                      %
     %  * vdW-DF3 is now available. DOI: 10.1021/acs.jctc.0c00471           %
     %    use with input_dft = 'vdW-DF3-opt1' or 'vdW-DF3-opt2'             %
     %                                                                      %
     %  * Unscreened and range-separated hybrid vdW-DF-cx functionals       %
     %    DOI: 10.1063/1.4986522 and 10.1088/1361-648X/ac2ad2               %
     %    use with input_dft = 'vdW-DF-cx0'    and 'vdW-DF-ahcx'            %
     %  * Unscreened and range-separated hybrid vdW-DF2-b86r functionals    %
     %    DOI: 10.1063/1.4986522 and DOI: 10.1103/PhysRevX.12.041003        %
     %    use with input_dft = 'vdW-DF2-br0' and 'vdW-DF2-ahbr'             %
     %                                                                      %
     %%%%%%%%%%%%%%%%%%%%%%%%%%%%%%%%%%%%%%%%%%%%%%%%%%%%%%%%%%%%%%%%%%%%%%%%


     Starting wfcs are   72 randomized atomic wfcs

     total cpu time spent up to now is        3.3 secs

     per-process dynamical memory:    21.0 Mb

     Self-consistent Calculation

     iteration #  1     ecut=    90.00 Ry     beta= 0.70
     Davidson diagonalization with overlap
     ethr =  1.00E-02,  avg # of iterations =  2.0

     negative rho (up, down):  2.470E-07 0.000E+00

     total cpu time spent up to now is        4.4 secs

     total energy              =    -415.89753611 Ry
     estimated scf accuracy    <       4.56748438 Ry

     iteration #  2     ecut=    90.00 Ry     beta= 0.70
     Davidson diagonalization with overlap
     ethr =  4.76E-03,  avg # of iterations =  3.0

     negative rho (up, down):  4.745E-08 0.000E+00

     total cpu time spent up to now is        5.7 secs

     total energy              =    -417.36561243 Ry
     estimated scf accuracy    <       3.81254249 Ry

     iteration #  3     ecut=    90.00 Ry     beta= 0.70
     Davidson diagonalization with overlap
     ethr =  3.97E-03,  avg # of iterations =  2.0

     negative rho (up, down):  9.416E-08 0.000E+00

     total cpu time spent up to now is        6.7 secs

     total energy              =    -417.85374426 Ry
     estimated scf accuracy    <       0.17954241 Ry

     iteration #  4     ecut=    90.00 Ry     beta= 0.70
     Davidson diagonalization with overlap
     ethr =  1.87E-04,  avg # of iterations =  4.0

     negative rho (up, down):  3.710E-07 0.000E+00

     total cpu time spent up to now is        8.2 secs

     total energy              =    -417.99127706 Ry
     estimated scf accuracy    <       0.20710418 Ry

     iteration #  5     ecut=    90.00 Ry     beta= 0.70
     Davidson diagonalization with overlap
     ethr =  1.87E-04,  avg # of iterations =  1.9

     negative rho (up, down):  8.142E-07 0.000E+00

     total cpu time spent up to now is        9.1 secs

     total energy              =    -417.99387604 Ry
     estimated scf accuracy    <       0.03318849 Ry

     iteration #  6     ecut=    90.00 Ry     beta= 0.70
     Davidson diagonalization with overlap
     ethr =  3.46E-05,  avg # of iterations =  2.0

     negative rho (up, down):  9.672E-07 0.000E+00

     total cpu time spent up to now is       10.2 secs

     total energy              =    -417.99984177 Ry
     estimated scf accuracy    <       0.00211111 Ry

     iteration #  7     ecut=    90.00 Ry     beta= 0.70
     Davidson diagonalization with overlap
     ethr =  2.20E-06,  avg # of iterations =  2.9

     negative rho (up, down):  9.661E-07 0.000E+00

     total cpu time spent up to now is       11.4 secs

     total energy              =    -418.00098374 Ry
     estimated scf accuracy    <       0.00038446 Ry

     iteration #  8     ecut=    90.00 Ry     beta= 0.70
     Davidson diagonalization with overlap
     ethr =  4.00E-07,  avg # of iterations =  1.9

     negative rho (up, down):  8.431E-07 0.000E+00

     total cpu time spent up to now is       12.3 secs

     total energy              =    -418.00095958 Ry
     estimated scf accuracy    <       0.00047821 Ry

     iteration #  9     ecut=    90.00 Ry     beta= 0.70
     Davidson diagonalization with overlap
     ethr =  4.00E-07,  avg # of iterations =  1.0

     negative rho (up, down):  2.011E-07 0.000E+00

     total cpu time spent up to now is       13.1 secs

     total energy              =    -418.00150784 Ry
     estimated scf accuracy    <       0.00037760 Ry

     iteration # 10     ecut=    90.00 Ry     beta= 0.70
     Davidson diagonalization with overlap
     ethr =  3.93E-07,  avg # of iterations =  6.0

     negative rho (up, down):  9.537E-07 0.000E+00

     total cpu time spent up to now is       15.0 secs

     total energy              =    -417.99761397 Ry
     estimated scf accuracy    <       0.01329350 Ry

     iteration # 11     ecut=    90.00 Ry     beta= 0.70
     Davidson diagonalization with overlap
     ethr =  3.93E-07,  avg # of iterations =  6.1

     negative rho (up, down):  5.680E-06 0.000E+00

     total cpu time spent up to now is       16.9 secs

     total energy              =    -418.00672613 Ry
     estimated scf accuracy    <       0.00061273 Ry

     iteration # 12     ecut=    90.00 Ry     beta= 0.70
     Davidson diagonalization with overlap
     ethr =  3.93E-07,  avg # of iterations =  6.5

     negative rho (up, down):  3.802E-06 0.000E+00

     total cpu time spent up to now is       19.0 secs

     total energy              =    -418.00791556 Ry
     estimated scf accuracy    <       0.04207988 Ry

     iteration # 13     ecut=    90.00 Ry     beta= 0.70
     Davidson diagonalization with overlap
     ethr =  3.93E-07,  avg # of iterations =  3.0

     negative rho (up, down):  8.932E-07 0.000E+00

     total cpu time spent up to now is       20.3 secs

     total energy              =    -417.99645329 Ry
     estimated scf accuracy    <       0.02774239 Ry

     iteration # 14     ecut=    90.00 Ry     beta= 0.70
     Davidson diagonalization with overlap
     ethr =  3.93E-07,  avg # of iterations =  6.0

     negative rho (up, down):  8.655E-07 0.000E+00

     total cpu time spent up to now is       22.4 secs

     total energy              =    -418.00085450 Ry
     estimated scf accuracy    <       0.00014008 Ry

     iteration # 15     ecut=    90.00 Ry     beta= 0.70
     Davidson diagonalization with overlap
     ethr =  1.46E-07,  avg # of iterations =  2.0

     negative rho (up, down):  8.246E-07 0.000E+00

     total cpu time spent up to now is       23.4 secs

     total energy              =    -418.00085158 Ry
     estimated scf accuracy    <       0.00004472 Ry

     iteration # 16     ecut=    90.00 Ry     beta= 0.70
     Davidson diagonalization with overlap
     ethr =  4.66E-08,  avg # of iterations =  3.0

     negative rho (up, down):  8.152E-07 0.000E+00

     total cpu time spent up to now is       24.5 secs

     total energy              =    -418.00086578 Ry
     estimated scf accuracy    <       0.00000089 Ry

     iteration # 17     ecut=    90.00 Ry     beta= 0.70
     Davidson diagonalization with overlap
     ethr =  9.23E-10,  avg # of iterations =  6.0

     negative rho (up, down):  8.447E-07 0.000E+00

     total cpu time spent up to now is       26.1 secs

     total energy              =    -418.00086507 Ry
     estimated scf accuracy    <       0.00000448 Ry

     iteration # 18     ecut=    90.00 Ry     beta= 0.70
     Davidson diagonalization with overlap
     ethr =  9.23E-10,  avg # of iterations =  4.0

     negative rho (up, down):  8.395E-07 0.000E+00

     total cpu time spent up to now is       27.5 secs

     total energy              =    -418.00086623 Ry
     estimated scf accuracy    <       0.00000043 Ry

     iteration # 19     ecut=    90.00 Ry     beta= 0.70
     Davidson diagonalization with overlap
     ethr =  4.47E-10,  avg # of iterations =  2.0

     negative rho (up, down):  8.398E-07 0.000E+00

     total cpu time spent up to now is       28.5 secs

     End of self-consistent calculation

          k = 0.0000 0.0000 0.0000 ( 33295 PWs)   bands (ev):

   -21.2528 -20.8901 -20.8901 -20.7293 -20.7293 -20.6973 -20.6936 -20.6928
   -20.6928 -20.4643 -20.4643 -20.2219  -8.9477  -8.8782  -8.8782  -8.8639
    -8.7939  -8.7939  -8.5450  -8.5450  -8.5368  -8.4942  -8.4942  -8.4919
    -7.2603  -6.3260  -6.3260  -5.8004  -5.8004  -5.6494  -5.6494  -5.5086
    -5.3918  -4.7913  -4.7913  -4.1212  -3.6513  -3.6513  -3.6262  -3.5124
    -3.5124  -3.4820  -3.3900  -3.3900  -3.3555  -3.3003  -3.2527  -3.2527

          k =-0.1498-0.0865 0.3111 ( 33302 PWs)   bands (ev):

   -21.1953 -20.9231 -20.8832 -20.8362 -20.8066 -20.7541 -20.6578 -20.6221
   -20.5750 -20.4676 -20.4356 -20.2667  -8.9181  -8.8923  -8.8752  -8.8463
    -8.7890  -8.7627  -8.5912  -8.5699  -8.5608  -8.4886  -8.4411  -8.4342
    -7.1156  -6.4763  -6.3571  -6.0790  -5.8733  -5.6591  -5.5058  -5.3901
    -5.2382  -4.7849  -4.7317  -4.2616  -3.7176  -3.6606  -3.6379  -3.5663
    -3.5527  -3.5103  -3.4243  -3.3829  -3.3284  -3.3172  -3.2667  -3.2449

          k = 0.2996 0.1730-0.6221 ( 33260 PWs)   bands (ev):

   -21.0480 -21.0448 -20.9065 -20.8972 -20.8051 -20.8043 -20.6147 -20.6146
   -20.4762 -20.4654 -20.3760 -20.3751  -8.8991  -8.8859  -8.8506  -8.8482
    -8.7903  -8.7431  -8.6094  -8.5921  -8.5742  -8.4767  -8.4063  -8.3969
    -6.8137  -6.7275  -6.3543  -6.3452  -5.8558  -5.8018  -5.3947  -5.3157
    -4.9153  -4.8456  -4.6976  -4.4807  -3.7809  -3.6784  -3.6265  -3.6153
    -3.5668  -3.5434  -3.4651  -3.3868  -3.3672  -3.2975  -3.2527  -3.2358

          k =-0.1498 0.0865 0.6221 ( 33279 PWs)   bands (ev):

   -21.0806 -20.9706 -20.9606 -20.8671 -20.8459 -20.7946 -20.6219 -20.5595
   -20.5251 -20.4337 -20.4205 -20.3478  -8.8994  -8.8820  -8.8578  -8.8509
    -8.7853  -8.7355  -8.6075  -8.5991  -8.5849  -8.4515  -8.4211  -8.3980
    -6.8570  -6.5961  -6.5547  -6.1505  -5.9748  -5.8099  -5.3905  -5.1795
    -5.0720  -4.7663  -4.7085  -4.4928  -3.7667  -3.7032  -3.6225  -3.5992
    -3.5643  -3.5435  -3.4751  -3.3869  -3.3557  -3.2967  -3.2732  -3.2240

          k = 0.2996 0.3460-0.3111 ( 33298 PWs)   bands (ev):

   -21.1177 -20.9920 -20.9206 -20.8852 -20.8317 -20.7757 -20.6226 -20.5396
   -20.5259 -20.4640 -20.4147 -20.3332  -8.9035  -8.8990  -8.8653  -8.8340
    -8.7825  -8.7578  -8.6451  -8.6124  -8.5861  -8.4683  -8.4354  -8.4081
    -6.8670  -6.5805  -6.4112  -6.1909  -6.1350  -5.6692  -5.3157  -5.2267
    -5.0722  -4.8170  -4.7070  -4.4497  -3.7201  -3.6767  -3.6322  -3.5907
    -3.5486  -3.4966  -3.4416  -3.4181  -3.3354  -3.3330  -3.2634  -3.1915

          k = 0.1498 0.2595 0.0000 ( 33303 PWs)   bands (ev):

   -21.2101 -20.9459 -20.9026 -20.8173 -20.7923 -20.7315 -20.6610 -20.6071
   -20.5739 -20.4703 -20.4471 -20.2590  -8.9336  -8.8891  -8.8799  -8.8457
    -8.7897  -8.7833  -8.6120  -8.5886  -8.5516  -8.5022  -8.4801  -8.4388
    -7.1056  -6.3794  -6.2942  -6.1091  -6.0775  -5.5720  -5.4173  -5.3033
    -5.2767  -4.8249  -4.7813  -4.2232  -3.6548  -3.6434  -3.6379  -3.5535
    -3.5168  -3.4960  -3.4196  -3.4042  -3.3421  -3.3196  -3.2340  -3.2172

          k = 0.2996-0.1730-1.2442 ( 33300 PWs)   bands (ev):

   -21.1097 -21.0744 -20.9106 -20.8602 -20.7873 -20.7555 -20.6093 -20.6021
   -20.5021 -20.4961 -20.3584 -20.3521  -8.9142  -8.8975  -8.8729  -8.8361
    -8.7800  -8.7785  -8.6677  -8.6243  -8.5707  -8.4807  -8.4732  -8.4289
    -6.7340  -6.7044  -6.3770  -6.2530  -6.0202  -5.6920  -5.2463  -5.2341
    -5.0624  -4.9354  -4.6092  -4.4626  -3.6653  -3.6439  -3.6284  -3.5825
    -3.5223  -3.4952  -3.4479  -3.3924  -3.3866  -3.3097  -3.2056  -3.2018

          k = 0.0000 0.0000 0.9332 ( 33270 PWs)   bands (ev):

   -21.0323 -21.0323 -20.9638 -20.9472 -20.7993 -20.7993 -20.5611 -20.5611
   -20.4561 -20.4420 -20.4142 -20.4142  -8.8982  -8.8982  -8.8727  -8.7993
    -8.7993  -8.7810  -8.6755  -8.6105  -8.6105  -8.4212  -8.4212  -8.4021
    -6.6473  -6.6473  -6.6052  -6.2728  -5.9456  -5.9456  -5.1001  -5.1001
    -5.0271  -4.7639  -4.7639  -4.6564  -3.6832  -3.6832  -3.6051  -3.5880
    -3.5214  -3.5214  -3.4880  -3.3857  -3.3857  -3.3009  -3.3009  -3.1711

          k = 0.4494 0.2595 0.0000 ( 33313 PWs)   bands (ev):

   -21.1313 -20.9995 -20.9898 -20.8618 -20.7505 -20.7381 -20.6387 -20.6220
   -20.4966 -20.4428 -20.4205 -20.3262  -8.9127  -8.8912  -8.8836  -8.8274
    -8.8040  -8.7533  -8.6774  -8.6160  -8.5844  -8.4766  -8.4655  -8.4322
    -6.8396  -6.4716  -6.4354  -6.3532  -5.9838  -5.6843  -5.3251  -5.2474
    -4.9848  -4.8412  -4.7403  -4.4237  -3.6548  -3.6473  -3.6341  -3.5758
    -3.5401  -3.5005  -3.4329  -3.4101  -3.3713  -3.2888  -3.2383  -3.1878

          k = 0.2996 0.1730 0.3111 ( 33303 PWs)   bands (ev):

   -21.1552 -20.9553 -20.8957 -20.8774 -20.8207 -20.7645 -20.6354 -20.5936
   -20.5562 -20.4524 -20.4193 -20.2971  -8.9099  -8.8963  -8.8668  -8.8280
    -8.7947  -8.7394  -8.6252  -8.5805  -8.5553  -8.5207  -8.4680  -8.4206
    -6.9736  -6.4511  -6.4202  -6.1507  -6.0549  -5.6617  -5.4131  -5.2630
    -5.2002  -4.7719  -4.7225  -4.3274  -3.7382  -3.6719  -3.6486  -3.6020
    -3.5726  -3.4783  -3.4539  -3.3887  -3.3131  -3.3123  -3.2517  -3.2269

          k = 0.4494-0.2595-0.9332 ( 33335 PWs)   bands (ev):

   -21.0538 -21.0462 -20.9404 -20.9085 -20.8107 -20.7398 -20.6650 -20.5846
   -20.4882 -20.4358 -20.4035 -20.3460  -8.9030  -8.8837  -8.8741  -8.8123
    -8.7807  -8.7274  -8.6475  -8.6096  -8.5761  -8.5261  -8.4654  -8.4338
    -6.6958  -6.5996  -6.4655  -6.2693  -6.0741  -5.6878  -5.4617  -5.1945
    -4.9732  -4.7712  -4.7357  -4.4287  -3.7466  -3.6910  -3.6666  -3.6163
    -3.5927  -3.4955  -3.4149  -3.3977  -3.3309  -3.2971  -3.2339  -3.2149

          k = 0.2996-0.3460-0.6221 ( 33306 PWs)   bands (ev):

   -21.0205 -21.0147 -20.9341 -20.9267 -20.8228 -20.8223 -20.6003 -20.5983
   -20.4730 -20.4678 -20.3770 -20.3701  -8.9035  -8.8579  -8.8463  -8.8298
    -8.8143  -8.6986  -8.6372  -8.5943  -8.5687  -8.5061  -8.4333  -8.4230
    -6.6954  -6.6666  -6.4084  -6.3622  -5.9292  -5.8984  -5.3110  -5.2540
    -4.9300  -4.8969  -4.6608  -4.4567  -3.8016  -3.6927  -3.6636  -3.6588
    -3.6150  -3.4979  -3.4130  -3.4011  -3.3558  -3.2776  -3.2648  -3.2183

          k = 0.0000 0.0000-1.8663 ( 33366 PWs)   bands (ev):

   -20.9920 -20.9770 -20.9077 -20.9077 -20.9058 -20.9058 -20.5318 -20.5318
   -20.5194 -20.5194 -20.3710 -20.3579  -8.9037  -8.8305  -8.8305  -8.8231
    -8.8231  -8.6834  -8.6336  -8.6016  -8.5531  -8.5531  -8.4578  -8.4578
    -6.6846  -6.5513  -6.2431  -6.2431  -6.1723  -6.1723  -5.0839  -5.0839
    -5.0560  -5.0560  -4.6122  -4.4325  -3.8107  -3.6956  -3.6956  -3.6879
    -3.6879  -3.4492  -3.4188  -3.3400  -3.3400  -3.2934  -3.2934  -3.1935

          k = 0.2996-0.3460 0.3111 ( 33298 PWs)   bands (ev):

   -21.1178 -20.9905 -20.9248 -20.8830 -20.8308 -20.7754 -20.6216 -20.5438
   -20.5264 -20.4605 -20.4142 -20.3341  -8.9093  -8.8867  -8.8734  -8.8229
    -8.7918  -8.7585  -8.6542  -8.6082  -8.5817  -8.4651  -8.4290  -8.4168
    -6.8688  -6.5574  -6.4620  -6.1732  -6.0842  -5.7231  -5.4008  -5.1146
    -5.0007  -4.8747  -4.7562  -4.4257  -3.7281  -3.6667  -3.6255  -3.5840
    -3.5577  -3.4974  -3.4491  -3.4290  -3.3432  -3.3076  -3.2639  -3.1961

     highest occupied level (ev):    -3.1711

!    total energy              =    -418.00086627 Ry
     estimated scf accuracy    <       0.00000002 Ry

     The total energy is the sum of the following terms:
     one-electron contribution =    -307.75399829 Ry
     hartree contribution      =     187.02118329 Ry
     xc contribution           =    -104.90990499 Ry
     ewald contribution        =    -192.35814628 Ry

     convergence has been achieved in  19 iterations

     Forces acting on atoms (cartesian axes, Ry/au):

     atom    1 type  2   force =    -0.01411715    0.05158033    0.02920085
     atom    2 type  2   force =     0.01411715   -0.05158033   -0.02920085
     atom    3 type  2   force =    -0.03761130   -0.03801598    0.02920085
     atom    4 type  2   force =     0.03761130    0.03801598   -0.02920085
     atom    5 type  2   force =     0.05172846   -0.01356435    0.02920085
     atom    6 type  2   force =    -0.05172846    0.01356435   -0.02920085
     atom    7 type  2   force =    -0.04001689    0.03067545   -0.02438921
     atom    8 type  2   force =     0.04001689   -0.03067545    0.02438921
     atom    9 type  2   force =    -0.00655728   -0.04999337   -0.02438921
     atom   10 type  2   force =     0.00655728    0.04999337    0.02438921
     atom   11 type  2   force =     0.04657416    0.01931791   -0.02438921
     atom   12 type  2   force =    -0.04657416   -0.01931791    0.02438921
     atom   13 type  1   force =     0.02358608   -0.04233292    0.02307424
     atom   14 type  1   force =    -0.02358608    0.04233292   -0.02307424
     atom   15 type  1   force =     0.02486835    0.04159260    0.02307424
     atom   16 type  1   force =    -0.02486835   -0.04159260   -0.02307424
     atom   17 type  1   force =    -0.04845442    0.00074032    0.02307424
     atom   18 type  1   force =     0.04845442   -0.00074032   -0.02307424
     atom   19 type  1   force =    -0.01028978   -0.00960721   -0.05249040
     atom   20 type  1   force =     0.01028978    0.00960721    0.05249040
     atom   21 type  1   force =     0.01346498   -0.00410761   -0.05249040
     atom   22 type  1   force =    -0.01346498    0.00410761    0.05249040
     atom   23 type  1   force =    -0.00317520    0.01371482   -0.05249040
     atom   24 type  1   force =     0.00317520   -0.01371482    0.05249040
     atom   25 type  1   force =    -0.01439528   -0.05243230   -0.00138475
     atom   26 type  1   force =     0.01439528    0.05243230    0.00138475
     atom   27 type  1   force =     0.05260534    0.01374947   -0.00138475
     atom   28 type  1   force =    -0.05260534   -0.01374947    0.00138475
     atom   29 type  1   force =    -0.03821006    0.03868282   -0.00138475
     atom   30 type  1   force =     0.03821006   -0.03868282    0.00138475
     atom   31 type  1   force =    -0.03414934    0.03322122    0.02881352
     atom   32 type  1   force =     0.03414934   -0.03322122   -0.02881352
     atom   33 type  1   force =    -0.01169575   -0.04618481    0.02881352
     atom   34 type  1   force =     0.01169575    0.04618481   -0.02881352
     atom   35 type  1   force =     0.04584509    0.01296359    0.02881352
     atom   36 type  1   force =    -0.04584509   -0.01296359   -0.02881352

     Total force =     0.335341     Total SCF correction =     0.000119


     Computing stress (Cartesian axis) and pressure

          total   stress  (Ry/bohr**3)                   (kbar)     P=      -74.58
  -0.00051016  -0.00000000   0.00000000          -75.05       -0.00        0.00
   0.00000000  -0.00051016  -0.00000000            0.00      -75.05       -0.00
   0.00000000  -0.00000000  -0.00050066            0.00       -0.00      -73.65


     Writing all to output data dir ./iceII/iceII.save/ :
     XML data file, charge density, pseudopotentials, collected wavefunctions

     init_run     :      2.91s CPU      3.02s WALL (       1 calls)
     electrons    :     24.36s CPU     25.28s WALL (       1 calls)
     forces       :      0.15s CPU      0.16s WALL (       1 calls)
     stress       :      1.19s CPU      1.23s WALL (       1 calls)

     Called by init_run:
     wfcinit      :      0.37s CPU      0.37s WALL (       1 calls)
     potinit      :      1.69s CPU      1.77s WALL (       1 calls)
     hinit0       :      0.67s CPU      0.67s WALL (       1 calls)

     Called by electrons:
     c_bands      :     18.44s CPU     18.61s WALL (      19 calls)
     sum_band     :      2.19s CPU      2.23s WALL (      19 calls)
     v_of_rho     :      5.14s CPU      5.86s WALL (      20 calls)
     newd         :      0.11s CPU      0.12s WALL (      20 calls)
     mix_rho      :      0.09s CPU      0.10s WALL (      19 calls)
     vdW_kernel   :      1.50s CPU      1.52s WALL (       1 calls)

     Called by c_bands:
     init_us_2    :      0.28s CPU      0.29s WALL (     164 calls)
     cegterg      :     17.88s CPU     18.01s WALL (      76 calls)

     Called by *egterg:
     cdiaghg      :      1.32s CPU      1.32s WALL (     335 calls)
     h_psi        :     13.56s CPU     13.66s WALL (     339 calls)
     s_psi        :      0.62s CPU      0.63s WALL (     339 calls)
     g_psi        :      0.04s CPU      0.04s WALL (     259 calls)

     Called by h_psi:
     h_psi:calbec :      1.01s CPU      1.01s WALL (     339 calls)
     vloc_psi     :     11.83s CPU     11.92s WALL (     339 calls)
     add_vuspsi   :      0.63s CPU      0.63s WALL (     339 calls)

     General routines
     calbec       :      1.29s CPU      1.30s WALL (     435 calls)
     fft          :      2.52s CPU      2.94s WALL (    1272 calls)
     ffts         :      0.03s CPU      0.03s WALL (      19 calls)
     fftw         :     12.03s CPU     12.11s WALL (   30864 calls)

     Parallel routines

     PWSCF        :     28.95s CPU     30.35s WALL


   This run was terminated on:  15:59:15  26Mar2026            

=------------------------------------------------------------------------------=
   JOB DONE.
=------------------------------------------------------------------------------=
