
     Program PWSCF v.7.3.1 starts on  1Apr2026 at 15:37:19 

     This program is part of the open-source Quantum ESPRESSO suite
     for quantum simulation of materials; please cite
         "P. Giannozzi et al., J. Phys.:Condens. Matter 21 395502 (2009);
         "P. Giannozzi et al., J. Phys.:Condens. Matter 29 465901 (2017);
         "P. Giannozzi et al., J. Chem. Phys. 152 154105 (2020);
          URL http://www.quantum-espresso.org", 
     in publications or presentations arising from this work. More details at
     http://www.quantum-espresso.org/quote

     Parallel version (MPI), running on   128 processors

     MPI processes distributed on     1 nodes
     242563 MiB available memory on the printing compute node when the environment starts

     Waiting for input...
     Reading input from standard input

     Current dimensions of program PWSCF are:
     Max number of different atomic species (ntypx) = 10
     Max number of k-points (npk) =  40000
     Max angular momentum in pseudopotentials (lmaxx) =  4

     IMPORTANT: XC functional enforced from input :
     Exchange-correlation= VDW-DF2
                           (   1   4  13   0   2   0   0)
     Any further DFT definition will be discarded
     Please, verify this is what you really want


     K-points division:     npool     =       4
     R & G space division:  proc/nbgrp/npool/nimage =      32
     Subspace diagonalization in iterative solution of the eigenvalue problem:
     a serial algorithm will be used


     Parallelization info
     --------------------
     sticks:   dense  smooth     PW     G-vecs:    dense   smooth      PW
     Min         193     193     55                 8374     8374    1314
     Max         194     194     56                 8377     8377    1319
     Sum        6187    6187   1791               268003   268003   42145

     Using Slab Decomposition



     bravais-lattice index     =            5
     lattice parameter (alat)  =      15.3196  a.u.
     unit-cell volume          =    2322.9018 (a.u.)^3
     number of atoms/cell      =           36
     number of atomic types    =            2
     number of electrons       =        96.00
     number of Kohn-Sham states=           48
     kinetic-energy cutoff     =      90.0000  Ry
     charge density cutoff     =     360.0000  Ry
     scf convergence threshold =      1.0E-07
     mixing beta               =       0.7000
     number of iterations used =            8  plain     mixing
     energy convergence thresh.=      1.0E-04
     force convergence thresh. =      1.0E-03
     Exchange-correlation= VDW-DF2
                           (   1   4  13   0   2   0   0)
     nstep                     =           50


     celldm(1)=  15.319555  celldm(2)=   0.000000  celldm(3)=   0.000000
     celldm(4)=  -0.392337  celldm(5)=   0.000000  celldm(6)=   0.000000

     crystal axes: (cart. coord. in units of alat)
               a(1) = (   0.834367  -0.481722   0.267909 )  
               a(2) = (   0.000000   0.963444   0.267909 )  
               a(3) = (  -0.834367  -0.481722   0.267909 )  

     reciprocal axes: (cart. coord. in units 2 pi/alat)
               b(1) = (  0.599257 -0.345981  1.244203 )  
               b(2) = (  0.000000  0.691962  1.244203 )  
               b(3) = ( -0.599257 -0.345981  1.244203 )  


     PseudoPot. # 1 for H  read from file:
     ./H.pbe-van_ak.UPF
     MD5 check sum: 077eb6d537518a38cb46c6de387227b7
     Pseudo is Ultrasoft, Zval =  1.0
     Generated by new atomic code, or converted to UPF format
     Using radial grid of  615 points,  1 beta functions with: 
                l(1) =   0
     Q(r) pseudized with  8 coefficients,  rinner =    0.800

     PseudoPot. # 2 for O  read from file:
     ./O.pbe-van_ak.UPF
     MD5 check sum: 78c19812648e8988a0fe644b0f25305e
     Pseudo is Ultrasoft, Zval =  6.0
     Generated by new atomic code, or converted to UPF format
     Using radial grid of  737 points,  4 beta functions with: 
                l(1) =   0
                l(2) =   0
                l(3) =   1
                l(4) =   1
     Q(r) pseudized with  8 coefficients,  rinner =    0.800   0.800   0.800


     atomic species   valence    mass     pseudopotential
     H                 1.00     1.00800     H ( 1.00)
     O                 6.00    16.00000     O ( 1.00)

      6 Sym. Ops., with inversion, found



   Cartesian axes

     site n.     atom                  positions (alat units)
         1        O      tau(   1) = (  -0.4847673  -0.5197781   0.3083633  )
         2        O      tau(   2) = (   0.4847673   0.5197782   0.4953638  )
         3        O      tau(   3) = (   0.6925247  -0.1599317   0.3083633  )
         4        O      tau(   4) = (  -0.6925248   0.1599317   0.4953638  )
         5        O      tau(   5) = (  -0.2077574   0.6797099   0.3083633  )
         6        O      tau(   6) = (   0.2077574  -0.6797099   0.4953638  )
         7        O      tau(   7) = (   0.1218176   0.3323883   0.4179381  )
         8        O      tau(   8) = (  -0.1218176  -0.3323883   0.3857890  )
         9        O      tau(   9) = (  -0.3487655  -0.0606970   0.4179381  )
        10        O      tau(  10) = (   0.3487655   0.0606970   0.3857890  )
        11        O      tau(  11) = (   0.2269479  -0.2716913   0.4179381  )
        12        O      tau(  12) = (  -0.2269479   0.2716912   0.3857890  )
        13        H      tau(  13) = (  -0.5381668  -0.4032014   0.2796970  )
        14        H      tau(  14) = (   0.5381668   0.4032014   0.5240301  )
        15        H      tau(  15) = (   0.6182661  -0.2644654   0.2796970  )
        16        H      tau(  16) = (  -0.6182661   0.2644654   0.5240301  )
        17        H      tau(  17) = (  -0.0800993   0.6676668   0.2796970  )
        18        H      tau(  18) = (   0.0800993  -0.6676668   0.5240301  )
        19        H      tau(  19) = (  -0.4872704  -0.4817221   0.4326731  )
        20        H      tau(  20) = (   0.4872704   0.4817221   0.3710540  )
        21        H      tau(  21) = (   0.6608188  -0.1811275   0.4326731  )
        22        H      tau(  22) = (  -0.6608188   0.1811275   0.3710540  )
        23        H      tau(  23) = (  -0.1735484   0.6628496   0.4326731  )
        24        H      tau(  24) = (   0.1735484  -0.6628496   0.3710540  )
        25        H      tau(  25) = (   0.2703349  -0.1502973   0.4058822  )
        26        H      tau(  26) = (  -0.2703350   0.1502973   0.3978449  )
        27        H      tau(  27) = (  -0.0050062   0.3092656   0.4058822  )
        28        H      tau(  28) = (   0.0050062  -0.3092656   0.3978449  )
        29        H      tau(  29) = (  -0.2653287  -0.1589683   0.4058822  )
        30        H      tau(  30) = (   0.2653287   0.1589683   0.3978449  )
        31        H      tau(  31) = (   0.3178939  -0.3347969   0.3493534  )
        32        H      tau(  32) = (  -0.3178939   0.3347969   0.4543737  )
        33        H      tau(  33) = (   0.1309957   0.4427026   0.3493534  )
        34        H      tau(  34) = (  -0.1309956  -0.4427026   0.4543737  )
        35        H      tau(  35) = (  -0.4488895  -0.1079057   0.3493534  )
        36        H      tau(  36) = (   0.4488895   0.1079057   0.4543737  )

     number of k points=    14
                       cart. coord. in units 2pi/alat
        k(    1) = (   0.0000000   0.0000000   0.0000000), wk =   0.0312500
        k(    2) = (  -0.1498141  -0.0864952   0.3110508), wk =   0.1875000
        k(    3) = (   0.2996283   0.1729905  -0.6221017), wk =   0.0937500
        k(    4) = (  -0.1498141   0.0864952   0.6221017), wk =   0.1875000
        k(    5) = (   0.2996283   0.3459809  -0.3110508), wk =   0.1875000
        k(    6) = (   0.1498141   0.2594857   0.0000000), wk =   0.1875000
        k(    7) = (   0.2996283  -0.1729905  -1.2442034), wk =   0.0937500
        k(    8) = (   0.0000000   0.0000000   0.9331525), wk =   0.0625000
        k(    9) = (   0.4494424   0.2594857   0.0000000), wk =   0.1875000
        k(   10) = (   0.2996283   0.1729905   0.3110508), wk =   0.1875000
        k(   11) = (   0.4494424  -0.2594857  -0.9331525), wk =   0.1875000
        k(   12) = (   0.2996283  -0.3459809  -0.6221017), wk =   0.1875000
        k(   13) = (   0.0000000   0.0000000  -1.8663050), wk =   0.0312500
        k(   14) = (   0.2996283  -0.3459809   0.3110508), wk =   0.1875000

     Dense  grid:   268003 G-vectors     FFT dimensions: (  96,  96,  96)

     Estimated max dynamical RAM per process >      17.36 MB

     Estimated total dynamical RAM >       1.98 GB

     Initial potential from superposition of free atoms

     starting charge      95.9998, renormalised to      96.0000


     %%%%%%%%%%%%%%%%%%%%%%%%%%%%%%%%%%%%%%%%%%%%%%%%%%%%%%%%%%%%%%%%%%%%%%%%
     %                                                                      %
     % You are using vdW-DF, which was implemented by the Thonhauser group. %
     % Please cite the following two papers that made this development      %
     % possible and the two reviews that describe the various versions:     %
     %                                                                      %
     %   T. Thonhauser et al., PRL 115, 136402 (2015).                      %
     %   T. Thonhauser et al., PRB 76, 125112 (2007).                       %
     %   K. Berland et al., Rep. Prog. Phys. 78, 066501 (2015).             %
     %   D.C. Langreth et al., J. Phys.: Condens. Matter 21, 084203 (2009). %
     %                                                                      %
     % If you are calculating stress with vdW-DF, please also cite:         %
     %                                                                      %
     %   R. Sabatini et al., J. Phys.: Condens. Matter 24, 424209 (2012).   %
     %                                                                      %
     %%%%%%%%%%%%%%%%%%%%%%%%%%%%%%%%%%%%%%%%%%%%%%%%%%%%%%%%%%%%%%%%%%%%%%%%

     %%%%%%%%%%%%%%%%%%%%%%%%%%%%%%%%%%%%%%%%%%%%%%%%%%%%%%%%%%%%%%%%%%%%%%%%
     %                                                                      %
     %  vdW-DF NEWS:                                                        %
     %                                                                      %
     %  * vdW-DF3 is now available. DOI: 10.1021/acs.jctc.0c00471           %
     %    use with input_dft = 'vdW-DF3-opt1' or 'vdW-DF3-opt2'             %
     %                                                                      %
     %  * Unscreened and range-separated hybrid vdW-DF-cx functionals       %
     %    DOI: 10.1063/1.4986522 and 10.1088/1361-648X/ac2ad2               %
     %    use with input_dft = 'vdW-DF-cx0'    and 'vdW-DF-ahcx'            %
     %  * Unscreened and range-separated hybrid vdW-DF2-b86r functionals    %
     %    DOI: 10.1063/1.4986522 and DOI: 10.1103/PhysRevX.12.041003        %
     %    use with input_dft = 'vdW-DF2-br0' and 'vdW-DF2-ahbr'             %
     %                                                                      %
     %%%%%%%%%%%%%%%%%%%%%%%%%%%%%%%%%%%%%%%%%%%%%%%%%%%%%%%%%%%%%%%%%%%%%%%%


     Starting wfcs are   72 randomized atomic wfcs

     total cpu time spent up to now is        3.3 secs

     per-process dynamical memory:    21.1 Mb

     Self-consistent Calculation

     iteration #  1     ecut=    90.00 Ry     beta= 0.70
     Davidson diagonalization with overlap
     ethr =  1.00E-02,  avg # of iterations =  2.0

     negative rho (up, down):  2.238E-07 0.000E+00

     total cpu time spent up to now is        4.3 secs

     total energy              =    -415.82369332 Ry
     estimated scf accuracy    <       4.33726732 Ry

     iteration #  2     ecut=    90.00 Ry     beta= 0.70
     Davidson diagonalization with overlap
     ethr =  4.52E-03,  avg # of iterations =  3.0

     negative rho (up, down):  1.646E-07 0.000E+00

     total cpu time spent up to now is        5.7 secs

     total energy              =    -417.21399542 Ry
     estimated scf accuracy    <       3.80904642 Ry

     iteration #  3     ecut=    90.00 Ry     beta= 0.70
     Davidson diagonalization with overlap
     ethr =  3.97E-03,  avg # of iterations =  2.0

     negative rho (up, down):  2.122E-07 0.000E+00

     total cpu time spent up to now is        6.7 secs

     total energy              =    -417.69081191 Ry
     estimated scf accuracy    <       0.19235297 Ry

     iteration #  4     ecut=    90.00 Ry     beta= 0.70
     Davidson diagonalization with overlap
     ethr =  2.00E-04,  avg # of iterations =  4.0

     negative rho (up, down):  3.281E-07 0.000E+00

     total cpu time spent up to now is        8.2 secs

     total energy              =    -417.83592100 Ry
     estimated scf accuracy    <       0.19615400 Ry

     iteration #  5     ecut=    90.00 Ry     beta= 0.70
     Davidson diagonalization with overlap
     ethr =  2.00E-04,  avg # of iterations =  1.0

     negative rho (up, down):  3.883E-07 0.000E+00

     total cpu time spent up to now is        9.0 secs

     total energy              =    -417.83609259 Ry
     estimated scf accuracy    <       0.03608002 Ry

     iteration #  6     ecut=    90.00 Ry     beta= 0.70
     Davidson diagonalization with overlap
     ethr =  3.76E-05,  avg # of iterations =  2.0

     negative rho (up, down):  4.152E-07 0.000E+00

     total cpu time spent up to now is       10.1 secs

     total energy              =    -417.84215053 Ry
     estimated scf accuracy    <       0.00220549 Ry

     iteration #  7     ecut=    90.00 Ry     beta= 0.70
     Davidson diagonalization with overlap
     ethr =  2.30E-06,  avg # of iterations =  2.0

     negative rho (up, down):  4.237E-07 0.000E+00

     total cpu time spent up to now is       11.2 secs

     total energy              =    -417.84275976 Ry
     estimated scf accuracy    <       0.00013414 Ry

     iteration #  8     ecut=    90.00 Ry     beta= 0.70
     Davidson diagonalization with overlap
     ethr =  1.40E-07,  avg # of iterations =  4.1

     negative rho (up, down):  4.168E-07 0.000E+00

     total cpu time spent up to now is       12.5 secs

     total energy              =    -417.84285023 Ry
     estimated scf accuracy    <       0.00016563 Ry

     iteration #  9     ecut=    90.00 Ry     beta= 0.70
     Davidson diagonalization with overlap
     ethr =  1.40E-07,  avg # of iterations =  2.0

     negative rho (up, down):  3.961E-07 0.000E+00

     total cpu time spent up to now is       13.5 secs

     total energy              =    -417.84273940 Ry
     estimated scf accuracy    <       0.00031110 Ry

     iteration # 10     ecut=    90.00 Ry     beta= 0.70
     Davidson diagonalization with overlap
     ethr =  1.40E-07,  avg # of iterations =  2.0

     negative rho (up, down):  3.944E-07 0.000E+00

     total cpu time spent up to now is       14.7 secs

     total energy              =    -417.84275757 Ry
     estimated scf accuracy    <       0.00002814 Ry

     iteration # 11     ecut=    90.00 Ry     beta= 0.70
     Davidson diagonalization with overlap
     ethr =  2.93E-08,  avg # of iterations =  4.0

     negative rho (up, down):  3.950E-07 0.000E+00

     total cpu time spent up to now is       16.0 secs

     total energy              =    -417.84277298 Ry
     estimated scf accuracy    <       0.00000610 Ry

     iteration # 12     ecut=    90.00 Ry     beta= 0.70
     Davidson diagonalization with overlap
     ethr =  6.35E-09,  avg # of iterations =  2.0

     negative rho (up, down):  3.960E-07 0.000E+00

     total cpu time spent up to now is       17.0 secs

     total energy              =    -417.84277217 Ry
     estimated scf accuracy    <       0.00000582 Ry

     iteration # 13     ecut=    90.00 Ry     beta= 0.70
     Davidson diagonalization with overlap
     ethr =  6.06E-09,  avg # of iterations =  1.0

     negative rho (up, down):  3.998E-07 0.000E+00

     total cpu time spent up to now is       17.8 secs

     total energy              =    -417.84277116 Ry
     estimated scf accuracy    <       0.00000261 Ry

     iteration # 14     ecut=    90.00 Ry     beta= 0.70
     Davidson diagonalization with overlap
     ethr =  2.72E-09,  avg # of iterations =  2.0

     negative rho (up, down):  4.009E-07 0.000E+00

     total cpu time spent up to now is       18.9 secs

     End of self-consistent calculation

          k = 0.0000 0.0000 0.0000 ( 33553 PWs)   bands (ev):

   -21.2296 -20.8685 -20.8685 -20.6893 -20.6893 -20.6647 -20.6647 -20.6575
   -20.6531 -20.4150 -20.4150 -20.1660  -8.7070  -8.5317  -8.4678  -8.4678
    -8.4183  -8.4183  -7.9985  -7.8714  -7.8714  -7.6696  -7.6696  -7.5546
    -7.4983  -6.7360  -6.7360  -6.2175  -6.2175  -6.1217  -6.1217  -5.8772
    -5.7078  -5.1123  -5.1123  -4.4914  -3.6803  -3.6803  -3.5964  -3.5186
    -3.4802  -3.4802  -3.3522  -3.3522  -3.3498  -3.3339  -3.2895  -3.2895

          k =-0.1498-0.0865 0.3111 ( 33497 PWs)   bands (ev):

   -21.1706 -20.9017 -20.8597 -20.8037 -20.7822 -20.7248 -20.6120 -20.5771
   -20.5345 -20.4194 -20.3863 -20.2136  -8.6595  -8.5857  -8.5160  -8.4799
    -8.3978  -8.3415  -7.9922  -7.8386  -7.8292  -7.7009  -7.5949  -7.5587
    -7.3902  -6.8634  -6.7521  -6.5037  -6.2057  -6.1093  -5.9695  -5.7720
    -5.7170  -5.1058  -5.0473  -4.6197  -3.7766  -3.7149  -3.6155  -3.5595
    -3.5129  -3.4873  -3.4481  -3.3882  -3.3378  -3.2982  -3.2754  -3.2342

          k = 0.2996 0.1730-0.6221 ( 33488 PWs)   bands (ev):

   -21.0215 -21.0151 -20.8815 -20.8794 -20.7819 -20.7807 -20.5647 -20.5628
   -20.4247 -20.4211 -20.3327 -20.3240  -8.6377  -8.5878  -8.5105  -8.4920
    -8.3981  -8.3442  -7.9447  -7.8397  -7.8039  -7.7092  -7.5249  -7.5234
    -7.1879  -7.0605  -6.8001  -6.6466  -6.2174  -6.1412  -5.9721  -5.8287
    -5.3510  -5.2221  -4.9906  -4.7800  -3.8637  -3.7312  -3.6358  -3.6084
    -3.5469  -3.5316  -3.4525  -3.4045  -3.3783  -3.2688  -3.2583  -3.1945

          k =-0.1498 0.0865 0.6221 ( 33454 PWs)   bands (ev):

   -21.0520 -20.9437 -20.9377 -20.8437 -20.8236 -20.7709 -20.5720 -20.5077
   -20.4799 -20.3864 -20.3713 -20.3011  -8.6446  -8.5653  -8.5513  -8.4527
    -8.4147  -8.3346  -7.9482  -7.8689  -7.8253  -7.6242  -7.5659  -7.5192
    -7.1920  -7.0022  -6.9191  -6.5017  -6.3464  -6.1821  -5.9016  -5.7182
    -5.5250  -5.0740  -5.0528  -4.7875  -3.8456  -3.7663  -3.6259  -3.5871
    -3.5571  -3.5115  -3.4761  -3.3999  -3.3737  -3.2769  -3.2607  -3.1897

          k = 0.2996 0.3460-0.3111 ( 33494 PWs)   bands (ev):

   -21.0932 -20.9690 -20.8910 -20.8608 -20.8042 -20.7456 -20.5766 -20.4949
   -20.4834 -20.4192 -20.3668 -20.2806  -8.6490  -8.6305  -8.4942  -8.4719
    -8.4218  -8.3377  -7.9730  -7.9232  -7.8123  -7.5965  -7.5686  -7.5111
    -7.2992  -7.0394  -6.8265  -6.5086  -6.4856  -6.0463  -5.8771  -5.6327
    -5.4276  -5.2168  -5.0283  -4.7659  -3.7736  -3.7117  -3.6397  -3.5768
    -3.5293  -3.4870  -3.4328  -3.4257  -3.3553  -3.3161  -3.2645  -3.1795

          k = 0.1498 0.2595 0.0000 ( 33507 PWs)   bands (ev):

   -21.1867 -20.9250 -20.8819 -20.7800 -20.7571 -20.6916 -20.6277 -20.5701
   -20.5381 -20.4230 -20.3959 -20.2039  -8.6927  -8.5959  -8.5088  -8.4766
    -8.3726  -8.3669  -8.0341  -7.9198  -7.7562  -7.6743  -7.6227  -7.5259
    -7.4989  -6.8533  -6.7371  -6.4917  -6.3886  -5.9937  -5.8760  -5.7534
    -5.5893  -5.1760  -5.0874  -4.5844  -3.6801  -3.6655  -3.6253  -3.5455
    -3.5108  -3.4875  -3.3922  -3.3748  -3.3515  -3.3392  -3.2525  -3.2409

          k = 0.2996-0.1730-1.2442 ( 33484 PWs)   bands (ev):

   -21.0833 -21.0552 -20.8916 -20.8219 -20.7553 -20.7137 -20.5818 -20.5585
   -20.4641 -20.4512 -20.3076 -20.2963  -8.6720  -8.6405  -8.5231  -8.4941
    -8.3457  -8.3449  -8.0276  -7.9713  -7.7345  -7.6980  -7.5414  -7.5061
    -7.2493  -7.2058  -6.7951  -6.5894  -6.3061  -6.1092  -5.7725  -5.5260
    -5.4376  -5.3450  -4.9516  -4.7807  -3.6909  -3.6513  -3.6425  -3.5770
    -3.5094  -3.4679  -3.4442  -3.3851  -3.3748  -3.3373  -3.2241  -3.2098

          k = 0.0000 0.0000 0.9332 ( 33420 PWs)   bands (ev):

   -21.0073 -21.0073 -20.9446 -20.9117 -20.7724 -20.7724 -20.5158 -20.5158
   -20.4117 -20.3957 -20.3652 -20.3652  -8.6305  -8.6305  -8.5122  -8.4201
    -8.4201  -8.4022  -7.9805  -7.8937  -7.8937  -7.5176  -7.5176  -7.4855
    -7.1304  -7.1198  -7.1198  -6.5294  -6.2756  -6.2756  -5.6930  -5.5090
    -5.5090  -5.0882  -5.0882  -4.9270  -3.7245  -3.7245  -3.6205  -3.5715
    -3.5041  -3.5041  -3.4622  -3.4018  -3.4018  -3.3021  -3.3021  -3.1594

          k = 0.4494 0.2595 0.0000 ( 33507 PWs)   bands (ev):

   -21.1075 -20.9747 -20.9714 -20.8236 -20.7120 -20.7070 -20.5967 -20.5898
   -20.4648 -20.3933 -20.3677 -20.2721  -8.6688  -8.6290  -8.5725  -8.4375
    -8.3854  -8.3267  -8.0432  -7.9291  -7.8147  -7.6074  -7.5662  -7.5220
    -7.3362  -7.0076  -6.9370  -6.5425  -6.3307  -6.1009  -5.6901  -5.6559
    -5.4755  -5.1822  -5.0510  -4.7557  -3.6768  -3.6705  -3.6332  -3.5801
    -3.5256  -3.4769  -3.4173  -3.3974  -3.3560  -3.3183  -3.2668  -3.1947

          k = 0.2996 0.1730 0.3111 ( 33499 PWs)   bands (ev):

   -21.1308 -20.9362 -20.8686 -20.8518 -20.7830 -20.7373 -20.5878 -20.5604
   -20.5084 -20.4086 -20.3686 -20.2439  -8.6686  -8.6148  -8.5406  -8.4332
    -8.4261  -8.2995  -8.0038  -7.8970  -7.7370  -7.6751  -7.6354  -7.5525
    -7.3230  -6.8699  -6.7199  -6.6335  -6.4171  -6.1268  -5.8634  -5.6851
    -5.5263  -5.1750  -5.0338  -4.6631  -3.7902  -3.7195  -3.6576  -3.6055
    -3.5256  -3.4911  -3.4266  -3.3980  -3.3287  -3.2920  -3.2419  -3.2246

          k = 0.4494-0.2595-0.9332 ( 33514 PWs)   bands (ev):

   -21.0278 -21.0262 -20.9162 -20.8800 -20.7741 -20.7119 -20.6190 -20.5504
   -20.4393 -20.3939 -20.3550 -20.2911  -8.6931  -8.6058  -8.5686  -8.4383
    -8.3972  -8.2811  -8.0402  -7.8551  -7.7533  -7.7036  -7.5819  -7.5590
    -7.1021  -7.0621  -6.7822  -6.6425  -6.4749  -6.2052  -5.8260  -5.5720
    -5.2804  -5.2699  -5.0777  -4.7226  -3.7940  -3.7350  -3.7036  -3.6040
    -3.5745  -3.5056  -3.3844  -3.3647  -3.3403  -3.3038  -3.2431  -3.1945

          k = 0.2996-0.3460-0.6221 ( 33488 PWs)   bands (ev):

   -20.9942 -20.9888 -20.9075 -20.9045 -20.7974 -20.7961 -20.5522 -20.5498
   -20.4279 -20.4236 -20.3268 -20.3210  -8.7058  -8.5315  -8.5039  -8.4863
    -8.4554  -8.2855  -7.9712  -7.8644  -7.7376  -7.6947  -7.5650  -7.5600
    -7.0713  -6.9528  -6.8131  -6.6936  -6.4085  -6.3734  -5.7557  -5.6883
    -5.2908  -5.2483  -5.1006  -4.7091  -3.8925  -3.7472  -3.7027  -3.6396
    -3.5946  -3.4808  -3.4218  -3.3870  -3.3707  -3.2627  -3.2479  -3.1794

          k = 0.0000 0.0000-1.8663 ( 33534 PWs)   bands (ev):

   -20.9660 -20.9647 -20.8824 -20.8824 -20.8699 -20.8699 -20.4896 -20.4896
   -20.4740 -20.4740 -20.3146 -20.3123  -8.7472  -8.5001  -8.5001  -8.4795
    -8.4795  -8.2571  -8.0126  -7.8600  -7.6564  -7.6564  -7.6243  -7.6243
    -6.9245  -6.7420  -6.7172  -6.7172  -6.6816  -6.6816  -5.5634  -5.5634
    -5.3155  -5.3155  -5.1351  -4.6621  -3.9208  -3.7475  -3.7475  -3.6681
    -3.6681  -3.4366  -3.4149  -3.3365  -3.3365  -3.2739  -3.2739  -3.1576

          k = 0.2996-0.3460 0.3111 ( 33494 PWs)   bands (ev):

   -21.0929 -20.9703 -20.8876 -20.8641 -20.8023 -20.7462 -20.5763 -20.5015
   -20.4767 -20.4218 -20.3637 -20.2817  -8.6646  -8.5989  -8.5245  -8.4742
    -8.3933  -8.3454  -8.0125  -7.8958  -7.7912  -7.6295  -7.5375  -7.5293
    -7.2946  -6.9783  -6.9083  -6.5656  -6.3417  -6.1024  -5.9494  -5.5585
    -5.4124  -5.1982  -5.0895  -4.7485  -3.7800  -3.6879  -3.6549  -3.5712
    -3.5343  -3.4931  -3.4299  -3.4273  -3.3716  -3.2900  -3.2651  -3.1866

     highest occupied level (ev):    -3.1576

!    total energy              =    -417.84277166 Ry
     estimated scf accuracy    <       0.00000003 Ry

     The total energy is the sum of the following terms:
     one-electron contribution =    -305.93329184 Ry
     hartree contribution      =     186.06222564 Ry
     xc contribution           =    -104.55079169 Ry
     ewald contribution        =    -193.42091378 Ry

     convergence has been achieved in  14 iterations

     Forces acting on atoms (cartesian axes, Ry/au):

     atom    1 type  2   force =    -0.05281631    0.12236247    0.07041475
     atom    2 type  2   force =     0.05281631   -0.12236247   -0.07041475
     atom    3 type  2   force =    -0.07956085   -0.10692150    0.07041475
     atom    4 type  2   force =     0.07956085    0.10692150   -0.07041475
     atom    5 type  2   force =     0.13237716   -0.01544097    0.07041475
     atom    6 type  2   force =    -0.13237716    0.01544097   -0.07041475
     atom    7 type  2   force =    -0.07766385    0.05741105   -0.05245351
     atom    8 type  2   force =     0.07766385   -0.05741105    0.05245351
     atom    9 type  2   force =    -0.01088750   -0.09596439   -0.05245351
     atom   10 type  2   force =     0.01088750    0.09596439    0.05245351
     atom   11 type  2   force =     0.08855135    0.03855334   -0.05245351
     atom   12 type  2   force =    -0.08855135   -0.03855334    0.05245351
     atom   13 type  1   force =     0.02513116   -0.07176733   -0.03404776
     atom   14 type  1   force =    -0.02513116    0.07176733    0.03404776
     atom   15 type  1   force =     0.04958675    0.05764789   -0.03404776
     atom   16 type  1   force =    -0.04958675   -0.05764789    0.03404776
     atom   17 type  1   force =    -0.07471791    0.01411944   -0.03404776
     atom   18 type  1   force =     0.07471791   -0.01411944    0.03404776
     atom   19 type  1   force =     0.02772458   -0.05654333   -0.04566240
     atom   20 type  1   force =    -0.02772458    0.05654333    0.04566240
     atom   21 type  1   force =     0.03510567    0.05228186   -0.04566240
     atom   22 type  1   force =    -0.03510567   -0.05228186    0.04566240
     atom   23 type  1   force =    -0.06283025    0.00426148   -0.04566240
     atom   24 type  1   force =     0.06283025   -0.00426148    0.04566240
     atom   25 type  1   force =    -0.03010489   -0.05792864    0.01570853
     atom   26 type  1   force =     0.03010489    0.05792864   -0.01570853
     atom   27 type  1   force =     0.06522012    0.00289273    0.01570853
     atom   28 type  1   force =    -0.06522012   -0.00289273   -0.01570853
     atom   29 type  1   force =    -0.03511523    0.05503592    0.01570853
     atom   30 type  1   force =     0.03511523   -0.05503592   -0.01570853
     atom   31 type  1   force =    -0.06422470    0.02096733    0.04372102
     atom   32 type  1   force =     0.06422470   -0.02096733   -0.04372102
     atom   33 type  1   force =     0.01395411   -0.06610389    0.04372102
     atom   34 type  1   force =    -0.01395411    0.06610389   -0.04372102
     atom   35 type  1   force =     0.05027059    0.04513656    0.04372102
     atom   36 type  1   force =    -0.05027059   -0.04513656   -0.04372102

     Total force =     0.593851     Total SCF correction =     0.000178


     Computing stress (Cartesian axis) and pressure

          total   stress  (Ry/bohr**3)                   (kbar)     P=      -89.15
  -0.00068362  -0.00000000  -0.00000000         -100.56       -0.00       -0.00
   0.00000000  -0.00068362  -0.00000000            0.00     -100.56       -0.00
  -0.00000000  -0.00000000  -0.00045080           -0.00       -0.00      -66.31


     BFGS Geometry Optimization
     Energy error            =      0.0E+00 Ry
     Gradient error          =      1.3E-01 Ry/Bohr

     number of scf cycles    =   1
     number of bfgs steps    =   0

     energy             new  =    -417.8427716609 Ry

     new trust radius        =       0.1507327872 bohr
     new conv_thr            =       0.0000001000 Ry


ATOMIC_POSITIONS (crystal)
O                0.2738893667        0.0352457858        0.8590213783
O                0.7261106333        0.9647542252        0.1409785917
O                0.8590213783        0.2738893667        0.0352457858
O                0.1409785917        0.7261106333        0.9647542252
O                0.0352457858        0.8590213783        0.2738893667
O                0.9647542252        0.1409785917        0.7261106333
O                0.4694053147        0.7483330735        0.3294812856
O                0.5305946853        0.2516669265        0.6705186844
O                0.3294812856        0.4694053147        0.7483330735
O                0.6705186844        0.5305946853        0.2516669265
O                0.7483330735        0.3294812856        0.4694053147
O                0.2516669265        0.6705186844        0.5305946853
H                0.1648386316        0.0629931264        0.8078725104
H                0.8351613544        0.9370068656        0.1921274896
H                0.8078725104        0.1648386316        0.0629931264
H                0.1921274896        0.8351613544        0.9370068656
H                0.0629931264        0.8078725104        0.1648386316
H                0.9370068656        0.1921274896        0.8351613544
H                0.4116529345        0.1987374698        0.9934839151
H                0.5883470655        0.8012625452        0.0065160639
H                0.9934839151        0.4116529345        0.1987374698
H                0.0065160639        0.5883470655        0.8012625452
H                0.1987374698        0.9934839151        0.4116529345
H                0.8012625452        0.0065160639        0.5883470655
H                0.7204064365        0.3996592354        0.3987616972
H                0.2795935635        0.6003407346        0.6012383328
H                0.3987616972        0.7204064365        0.3996592354
H                0.6012383328        0.2795935635        0.6003407346
H                0.3996592354        0.3987616972        0.7204064365
H                0.6003407346        0.6012383328        0.2795935635
H                0.7415650569        0.2074979336        0.3655896423
H                0.2584349431        0.7925020514        0.6344103577
H                0.3655896423        0.7415650569        0.2074979336
H                0.6344103577        0.2584349431        0.7925020514
H                0.2074979336        0.3655896423        0.7415650569
H                0.7925020514        0.6344103577        0.2584349431



     Writing config-only to output data dir ./iceII/iceII.save/ :
     XML data file
     NEW-OLD atomic charge density approx. for the potential

     negative rho (up, down):  3.978E-07 0.000E+00

     total cpu time spent up to now is       20.7 secs

     per-process dynamical memory:    22.4 Mb

     Self-consistent Calculation

     iteration #  1     ecut=    90.00 Ry     beta= 0.70
     Davidson diagonalization with overlap
     ethr =  1.00E-06,  avg # of iterations = 10.0

     negative rho (up, down):  7.348E-07 0.000E+00

     total cpu time spent up to now is       23.5 secs

     total energy              =    -417.96679607 Ry
     estimated scf accuracy    <       0.12971818 Ry

     iteration #  2     ecut=    90.00 Ry     beta= 0.70
     Davidson diagonalization with overlap
     ethr =  1.35E-04,  avg # of iterations =  3.0

     negative rho (up, down):  5.823E-07 0.000E+00

     total cpu time spent up to now is       24.7 secs

     total energy              =    -418.00230529 Ry
     estimated scf accuracy    <       0.06913673 Ry

     iteration #  3     ecut=    90.00 Ry     beta= 0.70
     Davidson diagonalization with overlap
     ethr =  7.20E-05,  avg # of iterations =  2.0

     negative rho (up, down):  5.810E-07 0.000E+00

     total cpu time spent up to now is       25.8 secs

     total energy              =    -418.01399974 Ry
     estimated scf accuracy    <       0.00163265 Ry

     iteration #  4     ecut=    90.00 Ry     beta= 0.70
     Davidson diagonalization with overlap
     ethr =  1.70E-06,  avg # of iterations =  4.2

     negative rho (up, down):  6.695E-07 0.000E+00

     total cpu time spent up to now is       27.3 secs

     total energy              =    -418.01531211 Ry
     estimated scf accuracy    <       0.00252385 Ry

     iteration #  5     ecut=    90.00 Ry     beta= 0.70
     Davidson diagonalization with overlap
     ethr =  1.70E-06,  avg # of iterations =  2.2

     negative rho (up, down):  7.133E-07 0.000E+00

     total cpu time spent up to now is       28.4 secs

     total energy              =    -418.01567632 Ry
     estimated scf accuracy    <       0.00006508 Ry

     iteration #  6     ecut=    90.00 Ry     beta= 0.70
     Davidson diagonalization with overlap
     ethr =  6.78E-08,  avg # of iterations =  4.0

     negative rho (up, down):  7.078E-07 0.000E+00

     total cpu time spent up to now is       29.9 secs

     total energy              =    -418.01572183 Ry
     estimated scf accuracy    <       0.00014068 Ry

     iteration #  7     ecut=    90.00 Ry     beta= 0.70
     Davidson diagonalization with overlap
     ethr =  6.78E-08,  avg # of iterations =  2.0

     negative rho (up, down):  6.998E-07 0.000E+00

     total cpu time spent up to now is       31.0 secs

     total energy              =    -418.01573126 Ry
     estimated scf accuracy    <       0.00001232 Ry

     iteration #  8     ecut=    90.00 Ry     beta= 0.70
     Davidson diagonalization with overlap
     ethr =  1.28E-08,  avg # of iterations =  3.0

     negative rho (up, down):  7.004E-07 0.000E+00

     total cpu time spent up to now is       32.3 secs

     total energy              =    -418.01573631 Ry
     estimated scf accuracy    <       0.00000037 Ry

     iteration #  9     ecut=    90.00 Ry     beta= 0.70
     Davidson diagonalization with overlap
     ethr =  3.85E-10,  avg # of iterations =  4.0

     negative rho (up, down):  7.015E-07 0.000E+00

     total cpu time spent up to now is       33.6 secs

     total energy              =    -418.01573643 Ry
     estimated scf accuracy    <       0.00000036 Ry

     iteration # 10     ecut=    90.00 Ry     beta= 0.70
     Davidson diagonalization with overlap
     ethr =  3.74E-10,  avg # of iterations =  1.0

     negative rho (up, down):  7.024E-07 0.000E+00

     total cpu time spent up to now is       34.4 secs

     total energy              =    -418.01573638 Ry
     estimated scf accuracy    <       0.00000013 Ry

     iteration # 11     ecut=    90.00 Ry     beta= 0.70
     Davidson diagonalization with overlap
     ethr =  1.33E-10,  avg # of iterations =  2.0

     negative rho (up, down):  7.027E-07 0.000E+00

     total cpu time spent up to now is       35.5 secs

     End of self-consistent calculation

          k = 0.0000 0.0000 0.0000 ( 33553 PWs)   bands (ev):

   -21.9063 -21.6106 -21.6106 -21.4279 -21.4279 -21.4046 -21.4046 -21.4046
   -21.3978 -21.1813 -21.1813 -20.9858  -9.5020  -9.3516  -9.3055  -9.3055
    -9.2760  -9.2760  -8.8476  -8.8476  -8.7585  -8.7580  -8.7580  -8.6462
    -7.4889  -6.6278  -6.6278  -6.0684  -6.0684  -6.0514  -6.0514  -5.8182
    -5.7605  -5.1619  -5.1619  -4.5970  -3.8483  -3.8483  -3.8389  -3.6637
    -3.6637  -3.6399  -3.5225  -3.4970  -3.4970  -3.4821  -3.4162  -3.4162

          k =-0.1498-0.0865 0.3111 ( 33497 PWs)   bands (ev):

   -21.8555 -21.6322 -21.6098 -21.5183 -21.5022 -21.4716 -21.3593 -21.3270
   -21.2992 -21.1881 -21.1613 -21.0223  -9.4707  -9.3673  -9.3314  -9.3262
    -9.2676  -9.2265  -8.8553  -8.8331  -8.7737  -8.7231  -8.7137  -8.6800
    -7.3449  -6.7474  -6.6614  -6.3660  -6.1582  -5.9859  -5.9023  -5.7182
    -5.6617  -5.1617  -5.0958  -4.7017  -3.9316  -3.8752  -3.8319  -3.6955
    -3.6871  -3.6639  -3.6063  -3.5341  -3.4767  -3.4409  -3.4140  -3.3747

          k = 0.2996 0.1730-0.6221 ( 33488 PWs)   bands (ev):

   -21.7467 -21.7004 -21.6338 -21.5672 -21.5330 -21.5057 -21.3319 -21.2949
   -21.2236 -21.1830 -21.1406 -21.0895  -9.4183  -9.3984  -9.3553  -9.3188
    -9.2653  -9.2128  -8.8444  -8.8181  -8.7611  -8.7502  -8.6843  -8.6744
    -7.0734  -6.9444  -6.7123  -6.5504  -6.1711  -6.0781  -5.8388  -5.6868
    -5.3602  -5.2305  -5.0422  -4.8487  -4.0040  -3.8884  -3.8144  -3.7622
    -3.7186  -3.7028  -3.5969  -3.5459  -3.5435  -3.4055  -3.3979  -3.3376

          k =-0.1498 0.0865 0.6221 ( 33454 PWs)   bands (ev):

   -21.7581 -21.6626 -21.6546 -21.5683 -21.5413 -21.5094 -21.3218 -21.2802
   -21.2432 -21.1707 -21.1563 -21.0836  -9.4204  -9.3877  -9.3742  -9.2983
    -9.2758  -9.2119  -8.8410  -8.8223  -8.7814  -8.7165  -8.6942  -8.6775
    -7.1012  -6.8488  -6.8228  -6.4356  -6.2608  -6.1225  -5.7761  -5.6231
    -5.4741  -5.1256  -5.0978  -4.8510  -3.9874  -3.9193  -3.8014  -3.7641
    -3.7278  -3.6568  -3.6345  -3.5553  -3.5209  -3.4113  -3.4026  -3.3331

          k = 0.2996 0.3460-0.3111 ( 33494 PWs)   bands (ev):

   -21.7902 -21.6961 -21.6236 -21.5650 -21.5178 -21.4865 -21.3244 -21.2945
   -21.2483 -21.1838 -21.1477 -21.0686  -9.4406  -9.4102  -9.3422  -9.3080
    -9.2691  -9.2057  -8.8921  -8.8692  -8.8049  -8.7028  -8.6757  -8.6624
    -7.1256  -6.8822  -6.6740  -6.4711  -6.4049  -6.0187  -5.7223  -5.6252
    -5.4355  -5.2276  -5.0712  -4.8218  -3.9336  -3.8775  -3.8242  -3.7665
    -3.6797  -3.6379  -3.5980  -3.5733  -3.5025  -3.4497  -3.4065  -3.3195

          k = 0.1498 0.2595 0.0000 ( 33507 PWs)   bands (ev):

   -21.8698 -21.6581 -21.6214 -21.5022 -21.4732 -21.4146 -21.3942 -21.3320
   -21.3162 -21.1871 -21.1602 -21.0140  -9.4842  -9.3798  -9.3302  -9.3251
    -9.2456  -9.2332  -8.9090  -8.8753  -8.7670  -8.7475  -8.7066  -8.6472
    -7.3529  -6.7100  -6.6157  -6.3975  -6.2887  -5.9558  -5.8208  -5.6771
    -5.6198  -5.2047  -5.1335  -4.6695  -3.8552  -3.8402  -3.8387  -3.7242
    -3.6664  -3.6410  -3.5412  -3.5220  -3.5154  -3.4749  -3.3875  -3.3766

          k = 0.2996-0.1730-1.2442 ( 33484 PWs)   bands (ev):

   -21.7785 -21.7662 -21.6310 -21.5329 -21.4840 -21.4222 -21.3733 -21.3141
   -21.2676 -21.1969 -21.1021 -21.0740  -9.4483  -9.4252  -9.3387  -9.3316
    -9.2262  -9.2088  -8.9492  -8.8999  -8.7760  -8.7417  -8.6661  -8.6562
    -7.0340  -7.0068  -6.6281  -6.5606  -6.2404  -6.0749  -5.7292  -5.5599
    -5.4265  -5.3315  -4.9980  -4.8262  -3.8675  -3.8351  -3.8307  -3.7690
    -3.6726  -3.6123  -3.5865  -3.5516  -3.5116  -3.4724  -3.3619  -3.3526

          k = 0.0000 0.0000 0.9332 ( 33420 PWs)   bands (ev):

   -21.7154 -21.7154 -21.7002 -21.5781 -21.5045 -21.5045 -21.2821 -21.2821
   -21.2480 -21.1462 -21.1462 -21.1239  -9.4173  -9.4173  -9.3765  -9.2624
    -9.2624  -9.2442  -8.9072  -8.8507  -8.8507  -8.6681  -8.6681  -8.6524
    -6.9206  -6.9206  -6.9189  -6.4822  -6.2481  -6.2481  -5.5512  -5.5058
    -5.5058  -5.1134  -5.1134  -4.9725  -3.8924  -3.8924  -3.8135  -3.7662
    -3.6578  -3.6578  -3.6240  -3.5487  -3.5487  -3.4317  -3.4317  -3.2979

          k = 0.4494 0.2595 0.0000 ( 33507 PWs)   bands (ev):

   -21.8029 -21.6993 -21.6903 -21.5167 -21.4707 -21.4354 -21.3585 -21.3339
   -21.2732 -21.1633 -21.1357 -21.0628  -9.4531  -9.4065  -9.3776  -9.2925
    -9.2526  -9.1967  -8.9583  -8.8727  -8.8173  -8.7014  -8.6826  -8.6561
    -7.1225  -6.8263  -6.7599  -6.5167  -6.2604  -6.0494  -5.6889  -5.6513
    -5.4580  -5.1883  -5.0871  -4.8080  -3.8586  -3.8445  -3.8256  -3.7734
    -3.6818  -3.6213  -3.5800  -3.5450  -3.5015  -3.4543  -3.4002  -3.3371

          k = 0.2996 0.1730 0.3111 ( 33499 PWs)   bands (ev):

   -21.8223 -21.6668 -21.6089 -21.5596 -21.5026 -21.4722 -21.3490 -21.3304
   -21.2501 -21.2005 -21.1412 -21.0428  -9.4564  -9.3867  -9.3506  -9.3132
    -9.2754  -9.1890  -8.9056  -8.8194  -8.7699  -8.7518  -8.6903  -8.6796
    -7.2235  -6.7688  -6.6424  -6.5027  -6.3030  -6.0125  -5.8284  -5.6650
    -5.4964  -5.2083  -5.0776  -4.7332  -3.9483  -3.8817  -3.8422  -3.7490
    -3.7020  -3.6472  -3.5932  -3.5411  -3.4692  -3.4451  -3.3834  -3.3694

          k = 0.4494-0.2595-0.9332 ( 33514 PWs)   bands (ev):

   -21.7453 -21.7305 -21.6465 -21.5721 -21.5045 -21.4621 -21.3603 -21.3203
   -21.2064 -21.1914 -21.1375 -21.0696  -9.4287  -9.4124  -9.3712  -9.3065
    -9.2692  -9.1638  -8.9362  -8.8310  -8.7698  -8.7571  -8.6841  -8.6760
    -7.0005  -6.8820  -6.6546  -6.6203  -6.3587  -6.0589  -5.8218  -5.5940
    -5.2785  -5.2714  -5.1043  -4.7776  -3.9561  -3.8947  -3.8628  -3.7600
    -3.7192  -3.6843  -3.5484  -3.5155  -3.4878  -3.4462  -3.3871  -3.3452

          k = 0.2996-0.3460-0.6221 ( 33488 PWs)   bands (ev):

   -21.7315 -21.6744 -21.6433 -21.6024 -21.5332 -21.5199 -21.3228 -21.3023
   -21.1999 -21.1845 -21.1562 -21.0796  -9.4322  -9.3736  -9.3538  -9.3193
    -9.3020  -9.1688  -8.8620  -8.8269  -8.7509  -8.7438  -8.6972  -8.6921
    -6.9904  -6.8556  -6.7053  -6.6359  -6.2684  -6.2254  -5.7069  -5.6378
    -5.2930  -5.2497  -5.1334  -4.7808  -4.0288  -3.9009  -3.8648  -3.7826
    -3.7558  -3.6209  -3.6009  -3.5450  -3.5240  -3.4062  -3.3966  -3.3269

          k = 0.0000 0.0000-1.8663 ( 33534 PWs)   bands (ev):

   -21.7192 -21.6331 -21.6331 -21.6187 -21.5659 -21.5659 -21.2924 -21.2924
   -21.2012 -21.2012 -21.1563 -21.0706  -9.4394  -9.3526  -9.3526  -9.3224
    -9.3224  -9.1404  -8.8774  -8.8357  -8.7320  -8.7320  -8.7180  -8.7180
    -6.9270  -6.7839  -6.5721  -6.5721  -6.4795  -6.4795  -5.5586  -5.5586
    -5.3066  -5.3066  -5.1490  -4.7347  -4.0535  -3.8976  -3.8976  -3.8038
    -3.8038  -3.6227  -3.5674  -3.4893  -3.4893  -3.4282  -3.4282  -3.3099

          k = 0.2996-0.3460 0.3111 ( 33494 PWs)   bands (ev):

   -21.7912 -21.6885 -21.6364 -21.5634 -21.5103 -21.4865 -21.3345 -21.2915
   -21.2347 -21.2016 -21.1372 -21.0708  -9.4464  -9.3936  -9.3508  -9.3235
    -9.2473  -9.2140  -8.9022  -8.8615  -8.8014  -8.7001  -8.6810  -8.6614
    -7.1328  -6.8110  -6.7713  -6.4984  -6.2854  -6.0684  -5.8234  -5.5252
    -5.4089  -5.2358  -5.1097  -4.8098  -3.9362  -3.8705  -3.8316  -3.7553
    -3.6773  -3.6464  -3.5901  -3.5880  -3.5138  -3.4237  -3.4100  -3.3257

     highest occupied level (ev):    -3.2979

!    total energy              =    -418.01573641 Ry
     estimated scf accuracy    <          2.0E-10 Ry

     The total energy is the sum of the following terms:
     one-electron contribution =    -319.28428026 Ry
     hartree contribution      =     192.10077926 Ry
     xc contribution           =    -105.97197523 Ry
     ewald contribution        =    -184.86026019 Ry

     convergence has been achieved in  11 iterations

     Forces acting on atoms (cartesian axes, Ry/au):

     atom    1 type  2   force =     0.00058774   -0.01157194   -0.00854591
     atom    2 type  2   force =    -0.00058774    0.01157194    0.00854591
     atom    3 type  2   force =     0.00972773    0.00629497   -0.00854591
     atom    4 type  2   force =    -0.00972773   -0.00629497    0.00854591
     atom    5 type  2   force =    -0.01031547    0.00527698   -0.00854591
     atom    6 type  2   force =     0.01031547   -0.00527698    0.00854591
     atom    7 type  2   force =     0.01078733   -0.01275244    0.00711007
     atom    8 type  2   force =    -0.01078733    0.01275244   -0.00711007
     atom    9 type  2   force =     0.00565027    0.01571832    0.00711007
     atom   10 type  2   force =    -0.00565027   -0.01571832   -0.00711007
     atom   11 type  2   force =    -0.01643760   -0.00296588    0.00711007
     atom   12 type  2   force =     0.01643760    0.00296588   -0.00711007
     atom   13 type  1   force =    -0.01659446    0.02264534   -0.04040345
     atom   14 type  1   force =     0.01659446   -0.02264534    0.04040345
     atom   15 type  1   force =    -0.01131421   -0.02569389   -0.04040345
     atom   16 type  1   force =     0.01131421    0.02569389    0.04040345
     atom   17 type  1   force =     0.02790867    0.00304856   -0.04040345
     atom   18 type  1   force =    -0.02790867   -0.00304856    0.04040345
     atom   19 type  1   force =     0.01889121   -0.01449428    0.04332603
     atom   20 type  1   force =    -0.01889121    0.01449428   -0.04332603
     atom   21 type  1   force =     0.00310681    0.02360741    0.04332603
     atom   22 type  1   force =    -0.00310681   -0.02360741   -0.04332603
     atom   23 type  1   force =    -0.02199802   -0.00911313    0.04332603
     atom   24 type  1   force =     0.02199802    0.00911313   -0.04332603
     atom   25 type  1   force =     0.00802471    0.01656208    0.00140047
     atom   26 type  1   force =    -0.00802471   -0.01656208   -0.00140047
     atom   27 type  1   force =    -0.01835553   -0.00133143    0.00140047
     atom   28 type  1   force =     0.01835553    0.00133143   -0.00140047
     atom   29 type  1   force =     0.01033082   -0.01523064    0.00140047
     atom   30 type  1   force =    -0.01033082    0.01523064   -0.00140047
     atom   31 type  1   force =     0.00620418   -0.01228014   -0.00668336
     atom   32 type  1   force =    -0.00620418    0.01228014    0.00668336
     atom   33 type  1   force =     0.00753283    0.01151304   -0.00668336
     atom   34 type  1   force =    -0.00753283   -0.01151304    0.00668336
     atom   35 type  1   force =    -0.01373700    0.00076710   -0.00668336
     atom   36 type  1   force =     0.01373700   -0.00076710    0.00668336

     Total force =     0.189360     Total SCF correction =     0.000011


     Computing stress (Cartesian axis) and pressure

          total   stress  (Ry/bohr**3)                   (kbar)     P=       13.18
   0.00003365  -0.00000000   0.00000000            4.95       -0.00        0.00
   0.00000000   0.00003365   0.00000000            0.00        4.95        0.00
   0.00000000   0.00000000   0.00020157            0.00        0.00       29.65

     Energy error            =      1.7E-01 Ry
     Gradient error          =      4.3E-02 Ry/Bohr

     number of scf cycles    =   2
     number of bfgs steps    =   1

     energy             old  =    -417.8427716609 Ry
     energy             new  =    -418.0157364123 Ry

     CASE: energy            _new < energy            _old

     new trust radius        =       0.0433391776 bohr
     new conv_thr            =       0.0000000433 Ry


ATOMIC_POSITIONS (crystal)
O                0.2735856759        0.0349255629        0.8589561594
O                0.7264143241        0.9650744481        0.1410438106
O                0.8589561594        0.2735856759        0.0349255629
O                0.1410438106        0.7264143241        0.9650744481
O                0.0349255629        0.8589561594        0.2735856759
O                0.9650744481        0.1410438106        0.7264143241
O                0.4699674852        0.7482216853        0.3297048158
O                0.5300325148        0.2517783147        0.6702951542
O                0.3297048158        0.4699674852        0.7482216853
O                0.6702951542        0.5300325148        0.2517783147
O                0.7482216853        0.3297048158        0.4699674852
O                0.2517783147        0.6702951542        0.5300325148
H                0.1608836658        0.0605817031        0.8049373728
H                0.8391163202        0.9394182889        0.1950626272
H                0.8049373728        0.1608836658        0.0605817031
H                0.1950626272        0.8391163202        0.9394182889
H                0.0605817031        0.8049373728        0.1608836658
H                0.9394182889        0.1950626272        0.8391163202
H                0.4156330167        0.2008572185        0.9960051193
H                0.5843669833        0.7991427965        0.0039948597
H                0.9960051193        0.4156330167        0.2008572185
H                0.0039948597        0.5843669833        0.7991427965
H                0.2008572185        0.9960051193        0.4156330167
H                0.7991427965        0.0039948597        0.5843669833
H                0.7205490976        0.4003338277        0.3985061244
H                0.2794509024        0.5996661423        0.6014939056
H                0.3985061244        0.7205490976        0.4003338277
H                0.6014939056        0.2794509024        0.5996661423
H                0.4003338277        0.3985061244        0.7205490976
H                0.5996661423        0.6014939056        0.2794509024
H                0.7415830314        0.2068275119        0.3655162750
H                0.2584169686        0.7931724731        0.6344837250
H                0.3655162750        0.7415830314        0.2068275119
H                0.6344837250        0.2584169686        0.7931724731
H                0.2068275119        0.3655162750        0.7415830314
H                0.7931724731        0.6344837250        0.2584169686



     Writing config-only to output data dir ./iceII/iceII.save/ :
     XML data file
     NEW-OLD atomic charge density approx. for the potential

     negative rho (up, down):  6.615E-07 0.000E+00

     total cpu time spent up to now is       37.3 secs

     per-process dynamical memory:    21.6 Mb

     Self-consistent Calculation

     iteration #  1     ecut=    90.00 Ry     beta= 0.70
     Davidson diagonalization with overlap
     ethr =  1.00E-06,  avg # of iterations =  4.9

     negative rho (up, down):  5.807E-07 0.000E+00

     total cpu time spent up to now is       38.9 secs

     total energy              =    -418.03478042 Ry
     estimated scf accuracy    <       0.00286964 Ry

     iteration #  2     ecut=    90.00 Ry     beta= 0.70
     Davidson diagonalization with overlap
     ethr =  2.99E-06,  avg # of iterations =  3.0

     negative rho (up, down):  5.988E-07 0.000E+00

     total cpu time spent up to now is       40.1 secs

     total energy              =    -418.03554743 Ry
     estimated scf accuracy    <       0.00137307 Ry

     iteration #  3     ecut=    90.00 Ry     beta= 0.70
     Davidson diagonalization with overlap
     ethr =  1.43E-06,  avg # of iterations =  2.0

     negative rho (up, down):  6.142E-07 0.000E+00

     total cpu time spent up to now is       41.1 secs

     total energy              =    -418.03577393 Ry
     estimated scf accuracy    <       0.00003903 Ry

     iteration #  4     ecut=    90.00 Ry     beta= 0.70
     Davidson diagonalization with overlap
     ethr =  4.07E-08,  avg # of iterations =  4.5

     negative rho (up, down):  6.078E-07 0.000E+00

     total cpu time spent up to now is       42.6 secs

     total energy              =    -418.03580430 Ry
     estimated scf accuracy    <       0.00005571 Ry

     iteration #  5     ecut=    90.00 Ry     beta= 0.70
     Davidson diagonalization with overlap
     ethr =  4.07E-08,  avg # of iterations =  2.0

     negative rho (up, down):  6.024E-07 0.000E+00

     total cpu time spent up to now is       43.6 secs

     total energy              =    -418.03580377 Ry
     estimated scf accuracy    <       0.00001011 Ry

     iteration #  6     ecut=    90.00 Ry     beta= 0.70
     Davidson diagonalization with overlap
     ethr =  1.05E-08,  avg # of iterations =  3.0

     negative rho (up, down):  6.037E-07 0.000E+00

     total cpu time spent up to now is       44.9 secs

     total energy              =    -418.03580801 Ry
     estimated scf accuracy    <       0.00000196 Ry

     iteration #  7     ecut=    90.00 Ry     beta= 0.70
     Davidson diagonalization with overlap
     ethr =  2.04E-09,  avg # of iterations =  2.0

     negative rho (up, down):  6.047E-07 0.000E+00

     total cpu time spent up to now is       45.9 secs

     total energy              =    -418.03580804 Ry
     estimated scf accuracy    <       0.00000041 Ry

     iteration #  8     ecut=    90.00 Ry     beta= 0.70
     Davidson diagonalization with overlap
     ethr =  4.23E-10,  avg # of iterations =  2.0

     negative rho (up, down):  6.054E-07 0.000E+00

     total cpu time spent up to now is       46.8 secs

     End of self-consistent calculation

          k = 0.0000 0.0000 0.0000 ( 33553 PWs)   bands (ev):

   -21.7584 -21.4369 -21.4369 -21.2733 -21.2733 -21.2597 -21.2597 -21.2492
   -21.2349 -21.0300 -21.0300 -20.8290  -9.4284  -9.2815  -9.2312  -9.2312
    -9.2072  -9.2072  -8.7799  -8.7799  -8.6931  -8.6816  -8.6816  -8.5671
    -7.4564  -6.5335  -6.5335  -6.0616  -6.0616  -5.9673  -5.9673  -5.7214
    -5.7025  -5.1083  -5.1083  -4.5349  -3.8298  -3.8298  -3.7905  -3.6218
    -3.6218  -3.5952  -3.5026  -3.4588  -3.4444  -3.4444  -3.3961  -3.3961

          k =-0.1498-0.0865 0.3111 ( 33497 PWs)   bands (ev):

   -21.7055 -21.4632 -21.4291 -21.3768 -21.3582 -21.3083 -21.2065 -21.1749
   -21.1395 -21.0365 -21.0094 -20.8675  -9.3973  -9.2960  -9.2615  -9.2537
    -9.1974  -9.1550  -8.7867  -8.7653  -8.6982  -8.6512  -8.6359  -8.6038
    -7.3026  -6.6731  -6.5741  -6.3183  -6.1530  -5.9152  -5.8161  -5.6585
    -5.5700  -5.1061  -5.0429  -4.6510  -3.9094  -3.8562  -3.7879  -3.6595
    -3.6518  -3.6205  -3.5837  -3.4894  -3.4503  -3.3944  -3.3901  -3.3454

          k = 0.2996 0.1730-0.6221 ( 33488 PWs)   bands (ev):

   -21.5813 -21.5557 -21.4515 -21.4327 -21.3689 -21.3518 -21.1713 -21.1490
   -21.0622 -21.0291 -20.9751 -20.9504  -9.3449  -9.3261  -9.2839  -9.2496
    -9.1964  -9.1403  -8.7721  -8.7460  -8.6896  -8.6786  -8.6058  -8.5962
    -6.9997  -6.8981  -6.6315  -6.5244  -6.1312  -6.0578  -5.7207  -5.5904
    -5.2655  -5.1807  -4.9945  -4.8233  -3.9807  -3.8702  -3.7873  -3.7118
    -3.6794  -3.6704  -3.5665  -3.5337  -3.4954  -3.3783  -3.3510  -3.3066

          k =-0.1498 0.0865 0.6221 ( 33454 PWs)   bands (ev):

   -21.6004 -21.5014 -21.4935 -21.4124 -21.3935 -21.3493 -21.1696 -21.1156
   -21.0913 -21.0151 -20.9999 -20.9370  -9.3471  -9.3154  -9.3027  -9.2315
    -9.2038  -9.1398  -8.7687  -8.7505  -8.7121  -8.6411  -8.6173  -8.5993
    -7.0335  -6.7909  -6.7651  -6.3875  -6.2274  -6.0848  -5.6806  -5.5101
    -5.3962  -5.0736  -5.0447  -4.8260  -3.9659  -3.8963  -3.7766  -3.7072
    -3.6961  -3.6264  -3.6061  -3.5168  -3.4957  -3.3829  -3.3570  -3.3007

          k = 0.2996 0.3460-0.3111 ( 33494 PWs)   bands (ev):

   -21.6367 -21.5244 -21.4669 -21.4193 -21.3690 -21.3225 -21.1784 -21.1211
   -21.0688 -21.0578 -20.9889 -20.9211  -9.3673  -9.3378  -9.2699  -9.2354
    -9.2007  -9.1349  -8.8286  -8.8026  -8.7322  -8.6263  -8.5985  -8.5826
    -7.0763  -6.8090  -6.6012  -6.4196  -6.3852  -5.9592  -5.6043  -5.5408
    -5.3840  -5.1669  -5.0219  -4.7869  -3.9095  -3.8533  -3.7940  -3.7221
    -3.6398  -3.6019  -3.5625  -3.5422  -3.4839  -3.4226  -3.3588  -3.2865

          k = 0.1498 0.2595 0.0000 ( 33507 PWs)   bands (ev):

   -21.7201 -21.4895 -21.4510 -21.3511 -21.3281 -21.2722 -21.2265 -21.1766
   -21.1454 -21.0387 -21.0126 -20.8593  -9.4105  -9.3083  -9.2577  -9.2521
    -9.1749  -9.1636  -8.8476  -8.8089  -8.6963  -8.6709  -8.6309  -8.5677
    -7.3156  -6.6177  -6.5343  -6.3562  -6.2586  -5.8828  -5.7398  -5.5988
    -5.5615  -5.1530  -5.0858  -4.6120  -3.8292  -3.8192  -3.8031  -3.6818
    -3.6226  -3.5962  -3.5128  -3.5011  -3.4766  -3.4421  -3.3546  -3.3451

          k = 0.2996-0.1730-1.2442 ( 33484 PWs)   bands (ev):

   -21.6262 -21.6059 -21.4625 -21.3850 -21.3294 -21.2869 -21.1910 -21.1618
   -21.0858 -21.0598 -20.9481 -20.9285  -9.3749  -9.3516  -9.2660  -9.2592
    -9.1549  -9.1397  -8.8910  -8.8352  -8.7058  -8.6649  -8.5886  -8.5760
    -6.9724  -6.9623  -6.5536  -6.5137  -6.1942  -5.9908  -5.6303  -5.4964
    -5.3287  -5.3165  -4.9377  -4.7881  -3.8361  -3.8082  -3.8069  -3.7268
    -3.6267  -3.5704  -3.5545  -3.5248  -3.4832  -3.4477  -3.3288  -3.3130

          k = 0.0000 0.0000 0.9332 ( 33420 PWs)   bands (ev):

   -21.5585 -21.5585 -21.5221 -21.4558 -21.3437 -21.3437 -21.1264 -21.1264
   -21.0525 -20.9958 -20.9958 -20.9958  -9.3448  -9.3448  -9.3025  -9.1899
    -9.1899  -9.1791  -8.8456  -8.7812  -8.7812  -8.5902  -8.5902  -8.5704
    -6.8719  -6.8719  -6.8140  -6.4916  -6.1849  -6.1849  -5.4188  -5.4188
    -5.4112  -5.0728  -5.0728  -4.9643  -3.8677  -3.8677  -3.7794  -3.7370
    -3.6142  -3.6142  -3.5845  -3.5257  -3.5257  -3.3948  -3.3948  -3.2650

          k = 0.4494 0.2595 0.0000 ( 33507 PWs)   bands (ev):

   -21.6494 -21.5325 -21.5314 -21.3850 -21.2963 -21.2821 -21.1999 -21.1860
   -21.0889 -21.0169 -20.9893 -20.9132  -9.3795  -9.3338  -9.3040  -9.2205
    -9.1814  -9.1276  -8.9002  -8.8067  -8.7482  -8.6229  -8.6058  -8.5769
    -7.0748  -6.7478  -6.7026  -6.4931  -6.1837  -5.9601  -5.6241  -5.5938
    -5.3571  -5.1437  -5.0406  -4.7639  -3.8241  -3.8193  -3.8039  -3.7300
    -3.6398  -3.5848  -3.5424  -3.5168  -3.4684  -3.4286  -3.3723  -3.2962

          k = 0.2996 0.1730 0.3111 ( 33499 PWs)   bands (ev):

   -21.6700 -21.4963 -21.4359 -21.4215 -21.3506 -21.3191 -21.1840 -21.1692
   -21.1088 -21.0376 -20.9914 -20.8906  -9.3829  -9.3143  -9.2794  -9.2404
    -9.2062  -9.1176  -8.8421  -8.7504  -8.6945  -8.6793  -8.6129  -8.6030
    -7.1775  -6.6910  -6.5929  -6.4126  -6.2881  -5.9497  -5.7309  -5.5857
    -5.4584  -5.1331  -5.0270  -4.6881  -3.9267  -3.8534  -3.8087  -3.7102
    -3.6574  -3.6121  -3.5611  -3.5127  -3.4517  -3.4145  -3.3504  -3.3216

          k = 0.4494-0.2595-0.9332 ( 33514 PWs)   bands (ev):

   -21.5803 -21.5759 -21.4817 -21.4367 -21.3461 -21.2985 -21.2086 -21.1548
   -21.0543 -21.0283 -20.9871 -20.9224  -9.3553  -9.3390  -9.2985  -9.2350
    -9.1992  -9.0925  -8.8755  -8.7628  -8.6970  -8.6826  -8.6071  -8.5980
    -6.9383  -6.8320  -6.6157  -6.5489  -6.2956  -5.9660  -5.7639  -5.5320
    -5.2406  -5.1673  -5.0526  -4.7411  -3.9345  -3.8621  -3.8324  -3.7167
    -3.6789  -3.6470  -3.5212  -3.4874  -3.4711  -3.4229  -3.3533  -3.2900

          k = 0.2996-0.3460-0.6221 ( 33488 PWs)   bands (ev):

   -21.5584 -21.5304 -21.4707 -21.4646 -21.3741 -21.3656 -21.1579 -21.1464
   -21.0511 -21.0408 -20.9819 -20.9369  -9.3587  -9.3007  -9.2811  -9.2497
    -9.2323  -9.0973  -8.7915  -8.7579  -8.6779  -8.6708  -8.6199  -8.6150
    -6.9077  -6.8222  -6.6337  -6.5923  -6.2125  -6.1819  -5.6085  -5.5497
    -5.2465  -5.2055  -5.0444  -4.7563  -4.0058  -3.8743  -3.8353  -3.7403
    -3.7106  -3.6027  -3.5603  -3.5167  -3.5032  -3.3798  -3.3624  -3.2761

          k = 0.0000 0.0000-1.8663 ( 33534 PWs)   bands (ev):

   -21.5332 -21.5020 -21.4666 -21.4666 -21.4167 -21.4167 -21.1091 -21.1091
   -21.0782 -21.0782 -20.9783 -20.9238  -9.3657  -9.2787  -9.2787  -9.2528
    -9.2528  -9.0692  -8.8086  -8.7694  -8.6565  -8.6565  -8.6433  -8.6433
    -6.8351  -6.7807  -6.4681  -6.4681  -6.4550  -6.4550  -5.4540  -5.4540
    -5.2997  -5.2997  -5.0243  -4.7105  -4.0278  -3.8684  -3.8684  -3.7627
    -3.7627  -3.5679  -3.5637  -3.4725  -3.4725  -3.3937  -3.3937  -3.2514

          k = 0.2996-0.3460 0.3111 ( 33494 PWs)   bands (ev):

   -21.6361 -21.5301 -21.4500 -21.4322 -21.3675 -21.3240 -21.1741 -21.1176
   -21.0945 -21.0325 -20.9954 -20.9210  -9.3731  -9.3214  -9.2775  -9.2520
    -9.1799  -9.1417  -8.8392  -8.7940  -8.7288  -8.6240  -8.6033  -8.5817
    -7.0814  -6.7601  -6.6835  -6.4392  -6.2808  -6.0031  -5.7127  -5.4356
    -5.3247  -5.1983  -5.0643  -4.7719  -3.9140  -3.8376  -3.8076  -3.7120
    -3.6382  -3.6096  -3.5624  -3.5430  -3.5008  -3.3995  -3.3599  -3.2922

     highest occupied level (ev):    -3.2514

!    total energy              =    -418.03580806 Ry
     estimated scf accuracy    <       0.00000004 Ry

     The total energy is the sum of the following terms:
     one-electron contribution =    -316.67918236 Ry
     hartree contribution      =     190.92759670 Ry
     xc contribution           =    -105.73510981 Ry
     ewald contribution        =    -186.54911259 Ry

     convergence has been achieved in   8 iterations

     Forces acting on atoms (cartesian axes, Ry/au):

     atom    1 type  2   force =    -0.00599025    0.01000529    0.00998506
     atom    2 type  2   force =     0.00599025   -0.01000529   -0.00998506
     atom    3 type  2   force =    -0.00566971   -0.01019036    0.00998506
     atom    4 type  2   force =     0.00566971    0.01019036   -0.00998506
     atom    5 type  2   force =     0.01165996    0.00018506    0.00998506
     atom    6 type  2   force =    -0.01165996   -0.00018506   -0.00998506
     atom    7 type  2   force =     0.00122225   -0.00479786   -0.00002420
     atom    8 type  2   force =    -0.00122225    0.00479786    0.00002420
     atom    9 type  2   force =     0.00354395    0.00345743   -0.00002420
     atom   10 type  2   force =    -0.00354395   -0.00345743    0.00002420
     atom   11 type  2   force =    -0.00476619    0.00134043   -0.00002420
     atom   12 type  2   force =     0.00476619   -0.00134043    0.00002420
     atom   13 type  1   force =    -0.00589532    0.00063344   -0.02365162
     atom   14 type  1   force =     0.00589532   -0.00063344    0.02365162
     atom   15 type  1   force =     0.00239908   -0.00542222   -0.02365162
     atom   16 type  1   force =    -0.00239908    0.00542222    0.02365162
     atom   17 type  1   force =     0.00349624    0.00478878   -0.02365162
     atom   18 type  1   force =    -0.00349624   -0.00478878    0.02365162
     atom   19 type  1   force =     0.01444728   -0.01377874    0.00842332
     atom   20 type  1   force =    -0.01444728    0.01377874   -0.00842332
     atom   21 type  1   force =     0.00470910    0.01940109    0.00842332
     atom   22 type  1   force =    -0.00470910   -0.01940109   -0.00842332
     atom   23 type  1   force =    -0.01915638   -0.00562234    0.00842332
     atom   24 type  1   force =     0.01915638    0.00562234   -0.00842332
     atom   25 type  1   force =     0.00408965    0.00510170    0.00260686
     atom   26 type  1   force =    -0.00408965   -0.00510170   -0.00260686
     atom   27 type  1   force =    -0.00646303    0.00099089    0.00260686
     atom   28 type  1   force =     0.00646303   -0.00099089   -0.00260686
     atom   29 type  1   force =     0.00237338   -0.00609259    0.00260686
     atom   30 type  1   force =    -0.00237338    0.00609259   -0.00260686
     atom   31 type  1   force =    -0.00163034   -0.00580523   -0.00045814
     atom   32 type  1   force =     0.00163034    0.00580523    0.00045814
     atom   33 type  1   force =     0.00584264    0.00149070   -0.00045814
     atom   34 type  1   force =    -0.00584264   -0.00149070    0.00045814
     atom   35 type  1   force =    -0.00421230    0.00431453   -0.00045814
     atom   36 type  1   force =     0.00421230   -0.00431453    0.00045814

     Total force =     0.091992     Total SCF correction =     0.000176


     Computing stress (Cartesian axis) and pressure

          total   stress  (Ry/bohr**3)                   (kbar)     P=       -7.60
  -0.00007888  -0.00000000   0.00000000          -11.60       -0.00        0.00
   0.00000000  -0.00007888  -0.00000000            0.00      -11.60       -0.00
   0.00000000  -0.00000000   0.00000282            0.00       -0.00        0.41

     Energy error            =      2.0E-02 Ry
     Gradient error          =      2.4E-02 Ry/Bohr

     number of scf cycles    =   3
     number of bfgs steps    =   2

     energy             old  =    -418.0157364123 Ry
     energy             new  =    -418.0358080645 Ry

     CASE: energy            _new < energy            _old

     new trust radius        =       0.0652664318 bohr
     new conv_thr            =       0.0000000237 Ry


ATOMIC_POSITIONS (crystal)
O                0.2740536662        0.0375191486        0.8605855882
O                0.7259463338        0.9624808624        0.1394143818
O                0.8605855882        0.2740536662        0.0375191486
O                0.1394143818        0.7259463338        0.9624808624
O                0.0375191486        0.8605855882        0.2740536662
O                0.9624808624        0.1394143818        0.7259463338
O                0.4700378432        0.7476950050        0.3297809819
O                0.5299621568        0.2523049950        0.6702189881
O                0.3297809819        0.4700378432        0.7476950050
O                0.6702189881        0.5299621568        0.2523049950
O                0.7476950050        0.3297809819        0.4700378432
O                0.2523049950        0.6702189881        0.5299621568
H                0.1550197594        0.0557024583        0.8003048557
H                0.8449802266        0.9442975337        0.1996951443
H                0.8003048557        0.1550197594        0.0557024583
H                0.1996951443        0.8449802266        0.9442975337
H                0.0557024583        0.8003048557        0.1550197594
H                0.9442975337        0.1996951443        0.8449802266
H                0.4204092171        0.2017877089        0.9979397997
H                0.5795907829        0.7982123061        0.0020601793
H                0.9979397997        0.4204092171        0.2017877089
H                0.0020601793        0.5795907829        0.7982123061
H                0.2017877089        0.9979397997        0.4204092171
H                0.7982123061        0.0020601793        0.5795907829
H                0.7211413812        0.4013754351        0.3984766864
H                0.2788586188        0.5986245349        0.6015233436
H                0.3984766864        0.7211413812        0.4013754351
H                0.6015233436        0.2788586188        0.5986245349
H                0.4013754351        0.3984766864        0.7211413812
H                0.5986245349        0.6015233436        0.2788586188
H                0.7416767607        0.2062125326        0.3660670171
H                0.2583232393        0.7937874524        0.6339329829
H                0.3660670171        0.7416767607        0.2062125326
H                0.6339329829        0.2583232393        0.7937874524
H                0.2062125326        0.3660670171        0.7416767607
H                0.7937874524        0.6339329829        0.2583232393



     Writing config-only to output data dir ./iceII/iceII.save/ :
     XML data file
     NEW-OLD atomic charge density approx. for the potential

     negative rho (up, down):  5.857E-07 0.000E+00

     total cpu time spent up to now is       48.6 secs

     per-process dynamical memory:    21.6 Mb

     Self-consistent Calculation

     iteration #  1     ecut=    90.00 Ry     beta= 0.70
     Davidson diagonalization with overlap
     ethr =  1.00E-06,  avg # of iterations =  7.0

     negative rho (up, down):  4.572E-07 0.000E+00

     total cpu time spent up to now is       50.4 secs

     total energy              =    -418.04802951 Ry
     estimated scf accuracy    <       0.00147693 Ry

     iteration #  2     ecut=    90.00 Ry     beta= 0.70
     Davidson diagonalization with overlap
     ethr =  1.54E-06,  avg # of iterations =  2.4

     negative rho (up, down):  4.469E-07 0.000E+00

     total cpu time spent up to now is       51.5 secs

     total energy              =    -418.04829506 Ry
     estimated scf accuracy    <       0.00022975 Ry

     iteration #  3     ecut=    90.00 Ry     beta= 0.70
     Davidson diagonalization with overlap
     ethr =  2.39E-07,  avg # of iterations =  2.6

     negative rho (up, down):  4.405E-07 0.000E+00

     total cpu time spent up to now is       52.6 secs

     total energy              =    -418.04834679 Ry
     estimated scf accuracy    <       0.00002024 Ry

     iteration #  4     ecut=    90.00 Ry     beta= 0.70
     Davidson diagonalization with overlap
     ethr =  2.11E-08,  avg # of iterations =  2.0

     negative rho (up, down):  4.374E-07 0.000E+00

     total cpu time spent up to now is       53.6 secs

     total energy              =    -418.04834872 Ry
     estimated scf accuracy    <       0.00000152 Ry

     iteration #  5     ecut=    90.00 Ry     beta= 0.70
     Davidson diagonalization with overlap
     ethr =  1.58E-09,  avg # of iterations =  3.4

     negative rho (up, down):  4.375E-07 0.000E+00

     total cpu time spent up to now is       54.8 secs

     total energy              =    -418.04834919 Ry
     estimated scf accuracy    <       0.00000009 Ry

     iteration #  6     ecut=    90.00 Ry     beta= 0.70
     Davidson diagonalization with overlap
     ethr =  9.05E-11,  avg # of iterations =  3.0

     negative rho (up, down):  4.377E-07 0.000E+00

     total cpu time spent up to now is       56.0 secs

     End of self-consistent calculation

          k = 0.0000 0.0000 0.0000 ( 33553 PWs)   bands (ev):

   -21.6809 -21.3668 -21.3668 -21.1830 -21.1830 -21.1633 -21.1633 -21.1520
   -21.1478 -20.9178 -20.9178 -20.7240  -9.3893  -9.2540  -9.2320  -9.2320
    -9.2014  -9.2014  -8.8887  -8.8887  -8.8680  -8.8550  -8.8550  -8.7514
    -7.3392  -6.3907  -6.3907  -6.0013  -6.0013  -5.8230  -5.8230  -5.6145
    -5.5642  -5.0064  -5.0064  -4.4384  -3.8115  -3.8115  -3.7732  -3.6056
    -3.6056  -3.5651  -3.4915  -3.4271  -3.4153  -3.4153  -3.3757  -3.3757

          k =-0.1498-0.0865 0.3111 ( 33497 PWs)   bands (ev):

   -21.6290 -21.3914 -21.3677 -21.2793 -21.2514 -21.2183 -21.1173 -21.0822
   -21.0518 -20.9236 -20.8982 -20.7603  -9.3601  -9.2820  -9.2477  -9.2321
    -9.1930  -9.1479  -8.9260  -8.9012  -8.8719  -8.8117  -8.7943  -8.7775
    -7.1869  -6.5500  -6.4350  -6.2174  -6.0917  -5.8184  -5.6392  -5.5691
    -5.4064  -5.0070  -4.9449  -4.5638  -3.8845  -3.8353  -3.7699  -3.6425
    -3.6357  -3.5923  -3.5665  -3.4610  -3.4316  -3.3769  -3.3593  -3.3254

          k = 0.2996 0.1730-0.6221 ( 33488 PWs)   bands (ev):

   -21.5217 -21.4648 -21.3885 -21.3283 -21.2815 -21.2493 -21.0921 -21.0486
   -20.9800 -20.9160 -20.8777 -20.8258  -9.3126  -9.3026  -9.2576  -9.2392
    -9.1864  -9.1257  -8.9262  -8.9114  -8.8538  -8.8367  -8.7657  -8.7528
    -6.8509  -6.8143  -6.4742  -6.4650  -6.0274  -6.0019  -5.5141  -5.4580
    -5.1143  -5.0778  -4.9038  -4.7718  -3.9499  -3.8488  -3.7678  -3.6866
    -3.6553  -3.6536  -3.5458  -3.5249  -3.4675  -3.3642  -3.3184  -3.2884

          k =-0.1498 0.0865 0.6221 ( 33454 PWs)   bands (ev):

   -21.5321 -21.4274 -21.4135 -21.3241 -21.2909 -21.2557 -21.0802 -21.0342
   -20.9950 -20.9099 -20.8926 -20.8189  -9.3154  -9.2880  -9.2820  -9.2237
    -9.1883  -9.1252  -8.9239  -8.9145  -8.8774  -8.7956  -8.7772  -8.7595
    -6.9088  -6.6785  -6.6495  -6.2870  -6.1449  -5.9962  -5.5230  -5.3248
    -5.2655  -4.9915  -4.9321  -4.7749  -3.9354  -3.8718  -3.7596  -3.6831
    -3.6717  -3.6101  -3.5886  -3.4968  -3.4762  -3.3643  -3.3296  -3.2800

          k = 0.2996 0.3460-0.3111 ( 33494 PWs)   bands (ev):

   -21.5617 -21.4511 -21.4031 -21.3166 -21.2651 -21.2335 -21.0905 -21.0397
   -20.9826 -20.9413 -20.8769 -20.8082  -9.3330  -9.3096  -9.2431  -9.2208
    -9.1935  -9.1241  -8.9804  -8.9613  -8.9033  -8.7843  -8.7630  -8.7436
    -6.9587  -6.6625  -6.5039  -6.3328  -6.2768  -5.8535  -5.4514  -5.3595
    -5.3129  -5.0499  -4.9298  -4.7121  -3.8841  -3.8337  -3.7748  -3.7039
    -3.6169  -3.5756  -3.5470  -3.5208  -3.4697  -3.4039  -3.3261  -3.2644

          k = 0.1498 0.2595 0.0000 ( 33507 PWs)   bands (ev):

   -21.6426 -21.4184 -21.3802 -21.2587 -21.2313 -21.1697 -21.1444 -21.0827
   -21.0601 -20.9267 -20.8984 -20.7530  -9.3720  -9.2841  -9.2489  -9.2266
    -9.1719  -9.1663  -8.9881  -8.9461  -8.8722  -8.8250  -8.7882  -8.7454
    -7.1978  -6.4537  -6.4285  -6.2499  -6.1785  -5.7576  -5.6119  -5.4711
    -5.4540  -5.0486  -4.9907  -4.5158  -3.8117  -3.8006  -3.7864  -3.6647
    -3.6032  -3.5659  -3.5033  -3.4750  -3.4536  -3.4175  -3.3284  -3.3191

          k = 0.2996-0.1730-1.2442 ( 33484 PWs)   bands (ev):

   -21.5470 -21.5333 -21.3917 -21.2917 -21.2381 -21.1809 -21.1168 -21.0645
   -21.0025 -20.9425 -20.8445 -20.8126  -9.3396  -9.3172  -9.2526  -9.2287
    -9.1454  -9.1316  -9.0503  -8.9925  -8.8839  -8.8139  -8.7570  -8.7389
    -6.8479  -6.8384  -6.4261  -6.4250  -6.0886  -5.8572  -5.4783  -5.3991
    -5.2495  -5.1778  -4.8385  -4.7012  -3.8178  -3.7900  -3.7899  -3.7106
    -3.6033  -3.5383  -3.5312  -3.5164  -3.4639  -3.4258  -3.3015  -3.2854

          k = 0.0000 0.0000 0.9332 ( 33420 PWs)   bands (ev):

   -21.4802 -21.4802 -21.4717 -21.3310 -21.2568 -21.2568 -21.0319 -21.0319
   -20.9940 -20.8875 -20.8875 -20.8609  -9.3139  -9.3139  -9.2692  -9.1790
    -9.1762  -9.1762  -9.0060  -8.9450  -8.9450  -8.7485  -8.7485  -8.7325
    -6.7552  -6.7552  -6.6205  -6.4792  -6.0781  -6.0781  -5.2780  -5.2780
    -5.1829  -4.9947  -4.9947  -4.9318  -3.8450  -3.8450  -3.7592  -3.7252
    -3.5867  -3.5867  -3.5605  -3.5147  -3.5147  -3.3666  -3.3666  -3.2430

          k = 0.4494 0.2595 0.0000 ( 33507 PWs)   bands (ev):

   -21.5724 -21.4623 -21.4544 -21.2799 -21.2217 -21.1887 -21.1070 -21.0807
   -21.0126 -20.9082 -20.8761 -20.8022  -9.3425  -9.3024  -9.2773  -9.2022
    -9.1741  -9.1170  -9.0589  -8.9635  -8.9198  -8.7859  -8.7615  -8.7461
    -6.9537  -6.5997  -6.5848  -6.4289  -6.0569  -5.8219  -5.5170  -5.4876
    -5.2051  -5.0486  -4.9504  -4.6736  -3.8045  -3.8019  -3.7871  -3.7135
    -3.6173  -3.5608  -3.5221  -3.4989  -3.4456  -3.4069  -3.3487  -3.2667

          k = 0.2996 0.1730 0.3111 ( 33499 PWs)   bands (ev):

   -21.5941 -21.4257 -21.3742 -21.3212 -21.2488 -21.2199 -21.1047 -21.0816
   -21.0012 -20.9408 -20.8781 -20.7800  -9.3461  -9.2929  -9.2592  -9.2123
    -9.2014  -9.1107  -8.9881  -8.8978  -8.8603  -8.8524  -8.7778  -8.7662
    -7.0617  -6.5679  -6.4964  -6.2564  -6.2117  -5.8451  -5.5542  -5.4721
    -5.3783  -5.0050  -4.9320  -4.6035  -3.9002  -3.8321  -3.7894  -3.6884
    -3.6385  -3.5904  -3.5421  -3.4912  -3.4381  -3.3941  -3.3314  -3.2881

          k = 0.4494-0.2595-0.9332 ( 33514 PWs)   bands (ev):

   -21.5104 -21.4985 -21.4114 -21.3351 -21.2530 -21.2063 -21.1169 -21.0639
   -20.9518 -20.9389 -20.8818 -20.8019  -9.3209  -9.3078  -9.2732  -9.2113
    -9.1824  -9.0780  -9.0294  -8.9314  -8.8739  -8.8429  -8.7736  -8.7590
    -6.8225  -6.7177  -6.5240  -6.4337  -6.1554  -5.8191  -5.6499  -5.4386
    -5.1517  -5.0143  -4.9559  -4.6613  -3.9065  -3.8395  -3.8100  -3.6956
    -3.6559  -3.6300  -3.5046  -3.4700  -3.4567  -3.4056  -3.3318  -3.2555

          k = 0.2996-0.3460-0.6221 ( 33488 PWs)   bands (ev):

   -21.5017 -21.4409 -21.4042 -21.3676 -21.2784 -21.2621 -21.0781 -21.0548
   -20.9498 -20.9278 -20.9006 -20.8084  -9.3258  -9.2726  -9.2530  -9.2353
    -9.2163  -9.0798  -8.9434  -8.9289  -8.8459  -8.8328  -8.7830  -8.7766
    -6.7738  -6.7413  -6.5156  -6.4864  -6.0978  -6.0654  -5.4543  -5.4130
    -5.1509  -5.1279  -4.8812  -4.7125  -3.9682  -3.8515  -3.8131  -3.7166
    -3.6862  -3.5925  -3.5389  -3.5010  -3.4860  -3.3644  -3.3430  -3.2443

          k = 0.0000 0.0000-1.8663 ( 33534 PWs)   bands (ev):

   -21.4793 -21.4099 -21.4099 -21.3836 -21.3048 -21.3048 -21.0370 -21.0370
   -20.9519 -20.9519 -20.9099 -20.7942  -9.3296  -9.2500  -9.2500  -9.2316
    -9.2316  -9.0444  -8.9599  -8.9465  -8.8278  -8.8278  -8.8081  -8.8081
    -6.7635  -6.6575  -6.4015  -6.4015  -6.2677  -6.2677  -5.2749  -5.2749
    -5.2737  -5.2737  -4.8414  -4.6684  -3.9815  -3.8452  -3.8452  -3.7400
    -3.7400  -3.5604  -3.5422  -3.4599  -3.4599  -3.3753  -3.3753  -3.2166

          k = 0.2996-0.3460 0.3111 ( 33494 PWs)   bands (ev):

   -21.5604 -21.4613 -21.3872 -21.3207 -21.2695 -21.2350 -21.0767 -21.0477
   -20.9964 -20.9224 -20.8855 -20.8074  -9.3369  -9.2981  -9.2525  -9.2296
    -9.1743  -9.1326  -8.9946  -8.9501  -8.8992  -8.7797  -8.7673  -8.7450
    -6.9582  -6.6680  -6.5206  -6.3093  -6.2489  -5.8927  -5.5291  -5.2918
    -5.2314  -5.0822  -4.9771  -4.6951  -3.8888  -3.8172  -3.7877  -3.6961
    -3.6150  -3.5835  -3.5457  -3.5187  -3.4893  -3.3822  -3.3269  -3.2695

     highest occupied level (ev):    -3.2166

!    total energy              =    -418.04834922 Ry
     estimated scf accuracy    <          9.3E-09 Ry

     The total energy is the sum of the following terms:
     one-electron contribution =    -315.20363482 Ry
     hartree contribution      =     190.26113394 Ry
     xc contribution           =    -105.63909916 Ry
     ewald contribution        =    -187.46674918 Ry

     convergence has been achieved in   6 iterations

     Forces acting on atoms (cartesian axes, Ry/au):

     atom    1 type  2   force =    -0.00400986    0.00445977    0.00022304
     atom    2 type  2   force =     0.00400986   -0.00445977   -0.00022304
     atom    3 type  2   force =    -0.00185735   -0.00570253    0.00022304
     atom    4 type  2   force =     0.00185735    0.00570253   -0.00022304
     atom    5 type  2   force =     0.00586721    0.00124275    0.00022304
     atom    6 type  2   force =    -0.00586721   -0.00124275   -0.00022304
     atom    7 type  2   force =    -0.00344414    0.00101773   -0.00530034
     atom    8 type  2   force =     0.00344414   -0.00101773    0.00530034
     atom    9 type  2   force =     0.00084069   -0.00349157   -0.00530034
     atom   10 type  2   force =    -0.00084069    0.00349157    0.00530034
     atom   11 type  2   force =     0.00260345    0.00247384   -0.00530034
     atom   12 type  2   force =    -0.00260345   -0.00247384    0.00530034
     atom   13 type  1   force =    -0.00095984   -0.00674918   -0.00291056
     atom   14 type  1   force =     0.00095984    0.00674918    0.00291056
     atom   15 type  1   force =     0.00632488    0.00254334   -0.00291056
     atom   16 type  1   force =    -0.00632488   -0.00254334    0.00291056
     atom   17 type  1   force =    -0.00536504    0.00420583   -0.00291056
     atom   18 type  1   force =     0.00536504   -0.00420583    0.00291056
     atom   19 type  1   force =     0.00706193   -0.00021110   -0.00181210
     atom   20 type  1   force =    -0.00706193    0.00021110    0.00181210
     atom   21 type  1   force =    -0.00334815    0.00622135   -0.00181210
     atom   22 type  1   force =     0.00334815   -0.00622135    0.00181210
     atom   23 type  1   force =    -0.00371378   -0.00601026   -0.00181210
     atom   24 type  1   force =     0.00371378    0.00601026    0.00181210
     atom   25 type  1   force =     0.00170961   -0.00323946    0.00306530
     atom   26 type  1   force =    -0.00170961    0.00323946   -0.00306530
     atom   27 type  1   force =     0.00195065    0.00310030    0.00306530
     atom   28 type  1   force =    -0.00195065   -0.00310030   -0.00306530
     atom   29 type  1   force =    -0.00366026    0.00013916    0.00306530
     atom   30 type  1   force =     0.00366026   -0.00013916   -0.00306530
     atom   31 type  1   force =    -0.00617790    0.00025581    0.00343952
     atom   32 type  1   force =     0.00617790   -0.00025581   -0.00343952
     atom   33 type  1   force =     0.00286741   -0.00547812    0.00343952
     atom   34 type  1   force =    -0.00286741    0.00547812   -0.00343952
     atom   35 type  1   force =     0.00331048    0.00522231    0.00343952
     atom   36 type  1   force =    -0.00331048   -0.00522231   -0.00343952

     Total force =     0.039347     Total SCF correction =     0.000174


     Computing stress (Cartesian axis) and pressure

          total   stress  (Ry/bohr**3)                   (kbar)     P=      -17.61
  -0.00014097   0.00000000   0.00000000          -20.74        0.00        0.00
  -0.00000000  -0.00014097  -0.00000000           -0.00      -20.74       -0.00
   0.00000000  -0.00000000  -0.00007720            0.00       -0.00      -11.36

     Energy error            =      1.3E-02 Ry
     Gradient error          =      7.1E-03 Ry/Bohr

     number of scf cycles    =   4
     number of bfgs steps    =   3

     energy             old  =    -418.0358080645 Ry
     energy             new  =    -418.0483492196 Ry

     CASE: energy            _new < energy            _old

     new trust radius        =       0.0175357534 bohr
     new conv_thr            =       0.0000000071 Ry


ATOMIC_POSITIONS (crystal)
O                0.2737490215        0.0379465994        0.8607988406
O                0.7262509785        0.9620534116        0.1392011294
O                0.8607988406        0.2737490215        0.0379465994
O                0.1392011294        0.7262509785        0.9620534116
O                0.0379465994        0.8607988406        0.2737490215
O                0.9620534116        0.1392011294        0.7262509785
O                0.4694291782        0.7471731195        0.3294447640
[...]
H                0.1896164871        0.9782379176        0.4163222244
H                0.8103835279        0.0217620614        0.5836777756
H                0.7310389075        0.4050139966        0.4084704487
H                0.2689610925        0.5949859734        0.5915295813
H                0.4084704487        0.7310389075        0.4050139966
H                0.5915295813        0.2689610925        0.5949859734
H                0.4050139966        0.4084704487        0.7310389075
H                0.5949859734        0.5915295813        0.2689610925
H                0.7460190120        0.2076527435        0.3760397400
H                0.2539809880        0.7923472415        0.6239602600
H                0.3760397400        0.7460190120        0.2076527435
H                0.6239602600        0.2539809880        0.7923472415
H                0.2076527435        0.3760397400        0.7460190120
H                0.7923472415        0.6239602600        0.2539809880



     Writing config-only to output data dir ./iceII/iceII.save/ :
     XML data file
     NEW-OLD atomic charge density approx. for the potential

     negative rho (up, down):  4.541E-07 0.000E+00

     total cpu time spent up to now is      275.8 secs

     per-process dynamical memory:    22.5 Mb

     Self-consistent Calculation

     iteration #  1     ecut=    90.00 Ry     beta= 0.70
     Davidson diagonalization with overlap
     ethr =  1.00E-06,  avg # of iterations =  2.0

     Threshold (ethr) on eigenvalues was too large:
     Diagonalizing with lowered threshold

     Davidson diagonalization with overlap
     ethr =  8.86E-09,  avg # of iterations =  3.0

     negative rho (up, down):  4.544E-07 0.000E+00

     total cpu time spent up to now is      277.9 secs

     total energy              =    -418.05751582 Ry
     estimated scf accuracy    <       0.00001126 Ry

     iteration #  2     ecut=    90.00 Ry     beta= 0.70
     Davidson diagonalization with overlap
     ethr =  1.17E-08,  avg # of iterations =  2.0

     negative rho (up, down):  4.542E-07 0.000E+00

     total cpu time spent up to now is      278.9 secs

     total energy              =    -418.05751745 Ry
     estimated scf accuracy    <       0.00000122 Ry

     iteration #  3     ecut=    90.00 Ry     beta= 0.70
     Davidson diagonalization with overlap
     ethr =  1.28E-09,  avg # of iterations =  2.1

     negative rho (up, down):  4.541E-07 0.000E+00

     total cpu time spent up to now is      280.0 secs

     total energy              =    -418.05751773 Ry
     estimated scf accuracy    <       0.00000018 Ry

     iteration #  4     ecut=    90.00 Ry     beta= 0.70
     Davidson diagonalization with overlap
     ethr =  1.85E-10,  avg # of iterations =  2.2

     negative rho (up, down):  4.541E-07 0.000E+00

     total cpu time spent up to now is      281.0 secs

     total energy              =    -418.05751776 Ry
     estimated scf accuracy    <          5.9E-09 Ry

     iteration #  5     ecut=    90.00 Ry     beta= 0.70
     Davidson diagonalization with overlap
     ethr =  6.17E-12,  avg # of iterations =  5.0

     negative rho (up, down):  4.541E-07 0.000E+00

     total cpu time spent up to now is      282.4 secs

     total energy              =    -418.05751776 Ry
     estimated scf accuracy    <          5.2E-09 Ry

     iteration #  6     ecut=    90.00 Ry     beta= 0.70
     Davidson diagonalization with overlap
     ethr =  5.42E-12,  avg # of iterations =  2.1

     negative rho (up, down):  4.541E-07 0.000E+00

     total cpu time spent up to now is      283.5 secs

     End of self-consistent calculation

          k = 0.0000 0.0000 0.0000 ( 33553 PWs)   bands (ev):

   -21.6817 -21.3477 -21.3477 -21.1995 -21.1995 -21.1772 -21.1707 -21.1699
   -21.1699 -20.9623 -20.9623 -20.7392  -9.2915  -9.2276  -9.2276  -9.2240
    -9.1600  -9.1600  -8.9364  -8.9364  -8.9201  -8.9143  -8.9058  -8.9058
    -7.2602  -6.4208  -6.4208  -5.9232  -5.9232  -5.7753  -5.7753  -5.6456
    -5.5644  -4.9959  -4.9959  -4.3743  -3.7829  -3.7829  -3.7510  -3.6292
    -3.6292  -3.5975  -3.4881  -3.4881  -3.4810  -3.4434  -3.3868  -3.3868

          k =-0.1498-0.0865 0.3111 ( 33497 PWs)   bands (ev):

   -21.6287 -21.3779 -21.3413 -21.2996 -21.2717 -21.2271 -21.1372 -21.1039
   -21.0638 -20.9646 -20.9352 -20.7805  -9.2688  -9.2420  -9.2224  -9.2071
    -9.1553  -9.1341  -8.9742  -8.9563  -8.9437  -8.9026  -8.8702  -8.8568
    -7.1297  -6.5580  -6.4530  -6.1807  -5.9880  -5.7909  -5.6318  -5.5505
    -5.3939  -4.9912  -4.9368  -4.4996  -3.8479  -3.7939  -3.7571  -3.6743
    -3.6689  -3.6314  -3.5546  -3.4872  -3.4514  -3.4327  -3.3918  -3.3738

          k = 0.2996 0.1730-0.6221 ( 33488 PWs)   bands (ev):

   -21.4943 -21.4887 -21.3594 -21.3592 -21.2738 -21.2686 -21.1024 -21.0943
   -20.9771 -20.9559 -20.8863 -20.8754  -9.2518  -9.2392  -9.2070  -9.2063
    -9.1549  -9.1039  -8.9931  -8.9907  -8.9453  -8.9016  -8.8371  -8.8253
    -6.8495  -6.7877  -6.4469  -6.4435  -5.9637  -5.9209  -5.5277  -5.4759
    -5.0901  -5.0312  -4.8926  -4.7166  -3.9101  -3.8066  -3.7375  -3.7372
    -3.6871  -3.6734  -3.5848  -3.4964  -3.4928  -3.4077  -3.3718  -3.3593

          k =-0.1498 0.0865 0.6221 ( 33454 PWs)   bands (ev):

   -21.5230 -21.4225 -21.4119 -21.3286 -21.3075 -21.2632 -21.1040 -21.0497
   -21.0158 -20.9331 -20.9208 -20.8552  -9.2530  -9.2334  -9.2128  -9.2097
    -9.1490  -9.1027  -8.9907  -8.9849  -8.9728  -8.8673  -8.8489  -8.8311
    -6.8973  -6.6603  -6.6285  -6.2623  -6.0815  -5.9320  -5.5307  -5.3276
    -5.2329  -4.9672  -4.9074  -4.7219  -3.8977  -3.8289  -3.7318  -3.7265
    -3.6894  -3.6607  -3.6048  -3.4938  -3.4788  -3.4156  -3.3844  -3.3479

          k = 0.2996 0.3460-0.3111 ( 33494 PWs)   bands (ev):

   -21.5577 -21.4399 -21.3798 -21.3391 -21.2961 -21.2477 -21.1047 -21.0357
   -21.0076 -20.9701 -20.9121 -20.8407  -9.2540  -9.2529  -9.2110  -9.1917
    -9.1477  -9.1256  -9.0284  -9.0039  -8.9764  -8.8737  -8.8575  -8.8278
    -6.9050  -6.6462  -6.5000  -6.3030  -6.2271  -5.8245  -5.4617  -5.3651
    -5.2566  -5.0031  -4.9106  -4.6772  -3.8518  -3.7974  -3.7505  -3.7123
    -3.6620  -3.6234  -3.5632  -3.5368  -3.4595  -3.4526  -3.3725  -3.3200

          k = 0.1498 0.2595 0.0000 ( 33507 PWs)   bands (ev):

   -21.6425 -21.3991 -21.3589 -21.2797 -21.2617 -21.2049 -21.1403 -21.0912
   -21.0632 -20.9681 -20.9447 -20.7729  -9.2782  -9.2376  -9.2270  -9.2057
    -9.1598  -9.1502  -9.0009  -8.9808  -8.9488  -8.8945  -8.8858  -8.8584
    -7.1236  -6.4657  -6.4007  -6.1992  -6.1846  -5.7360  -5.5704  -5.4527
    -5.4305  -5.0230  -4.9842  -4.4665  -3.7843  -3.7692  -3.7623  -3.6680
    -3.6267  -3.6147  -3.5332  -3.5169  -3.4800  -3.4411  -3.3587  -3.3456

          k = 0.2996-0.1730-1.2442 ( 33484 PWs)   bands (ev):

   -21.5515 -21.5160 -21.3661 -21.3187 -21.2594 -21.2242 -21.0966 -21.0853
   -20.9957 -20.9933 -20.8626 -20.8576  -9.2581  -9.2461  -9.2208  -9.1950
    -9.1550  -9.1443  -9.0479  -9.0144  -8.9632  -8.8807  -8.8785  -8.8414
    -6.7956  -6.7513  -6.4772  -6.3361  -6.1381  -5.8550  -5.4067  -5.3963
    -5.2480  -5.1090  -4.8011  -4.6954  -3.7877  -3.7628  -3.7619  -3.7001
    -3.6203  -3.6076  -3.5822  -3.5314  -3.5024  -3.4311  -3.3344  -3.3200

          k = 0.0000 0.0000 0.9332 ( 33420 PWs)   bands (ev):

   -21.4795 -21.4795 -21.4149 -21.3981 -21.2675 -21.2675 -21.0497 -21.0497
   -20.9629 -20.9361 -20.9130 -20.9130  -9.2511  -9.2511  -9.2165  -9.1518
    -9.1518  -9.1515  -9.0694  -9.0015  -9.0015  -8.8402  -8.8402  -8.8193
    -6.7052  -6.7052  -6.6570  -6.3700  -6.0835  -6.0835  -5.2657  -5.2657
    -5.1533  -4.9583  -4.9583  -4.8966  -3.8100  -3.8100  -3.7318  -3.7078
    -3.6434  -3.6434  -3.6199  -3.5014  -3.5014  -3.4124  -3.4124  -3.3003

          k = 0.4494 0.2595 0.0000 ( 33507 PWs)   bands (ev):

   -21.5703 -21.4497 -21.4380 -21.3205 -21.2202 -21.2131 -21.1198 -21.1060
   -20.9965 -20.9399 -20.9191 -20.8338  -9.2584  -9.2391  -9.2315  -9.1854
    -9.1664  -9.1362  -9.0538  -9.0031  -8.9782  -8.8785  -8.8638  -8.8507
    -6.8838  -6.5407  -6.5123  -6.4596  -6.1020  -5.8351  -5.4940  -5.4173
    -5.1485  -5.0250  -4.9401  -4.6518  -3.7785  -3.7704  -3.7597  -3.6895
    -3.6584  -3.6115  -3.5596  -3.5295  -3.5012  -3.4116  -3.3611  -3.3109

          k = 0.2996 0.1730 0.3111 ( 33499 PWs)   bands (ev):

   -21.5919 -21.4072 -21.3527 -21.3387 -21.2838 -21.2362 -21.1169 -21.0801
   -21.0427 -20.9551 -20.9179 -20.8079  -9.2625  -9.2430  -9.2228  -9.1857
    -9.1581  -9.1176  -9.0031  -8.9734  -8.9331  -8.9194  -8.8922  -8.8438
    -7.0050  -6.5451  -6.5123  -6.2393  -6.1543  -5.7994  -5.5656  -5.4120
    -5.3736  -4.9675  -4.9218  -4.5639  -3.8718  -3.7910  -3.7642  -3.7182
    -3.6799  -3.6066  -3.5625  -3.5151  -3.4443  -3.4402  -3.3626  -3.3502

          k = 0.4494-0.2595-0.9332 ( 33514 PWs)   bands (ev):

   -21.5002 -21.4897 -21.3955 -21.3640 -21.2758 -21.2136 -21.1432 -21.0713
   -20.9814 -20.9407 -20.9041 -20.8514  -9.2571  -9.2363  -9.2232  -9.1722
    -9.1505  -9.1046  -9.0218  -8.9975  -8.9629  -8.9160  -8.8811  -8.8518
    -6.7569  -6.6697  -6.5607  -6.3620  -6.1757  -5.8073  -5.6283  -5.3699
    -5.1479  -4.9563  -4.9198  -4.6663  -3.8815  -3.8043  -3.7798  -3.7289
    -3.7003  -3.6127  -3.5421  -3.5227  -3.4594  -3.4289  -3.3610  -3.3209

          k = 0.2996-0.3460-0.6221 ( 33488 PWs)   bands (ev):

   -21.4672 -21.4624 -21.3875 -21.3840 -21.2892 -21.2864 -21.0855 -21.0815
   -20.9695 -20.9626 -20.8921 -20.8672  -9.2603  -9.2134  -9.2023  -9.1921
    -9.1738  -9.0709  -8.9998  -8.9963  -8.9469  -8.9118  -8.8604  -8.8520
    -6.7582  -6.7332  -6.4926  -6.4572  -6.0337  -6.0055  -5.4644  -5.4177
    -5.1068  -5.0786  -4.8423  -4.7012  -3.9358  -3.8122  -3.7798  -3.7653
    -3.7269  -3.6212  -3.5293  -3.5245  -3.4867  -3.4033  -3.3917  -3.3238

          k = 0.0000 0.0000-1.8663 ( 33534 PWs)   bands (ev):

   -21.4334 -21.4329 -21.3745 -21.3745 -21.3557 -21.3557 -21.0196 -21.0196
   -21.0126 -21.0126 -20.8884 -20.8553  -9.2618  -9.1893  -9.1893  -9.1864
    -9.1864  -9.0535  -9.0048  -8.9892  -8.9349  -8.9349  -8.8863  -8.8863
    -6.7561  -6.6472  -6.3415  -6.3415  -6.2559  -6.2559  -5.2438  -5.2438
    -5.2385  -5.2385  -4.7922  -4.6809  -3.9495  -3.8083  -3.8083  -3.7901
    -3.7901  -3.5750  -3.5383  -3.4586  -3.4586  -3.4322  -3.4322  -3.2962

          k = 0.2996-0.3460 0.3111 ( 33494 PWs)   bands (ev):

   -21.5575 -21.4415 -21.3752 -21.3441 -21.2940 -21.2480 -21.1024 -21.0294
   -21.0262 -20.9551 -20.9169 -20.8409  -9.2608  -9.2421  -9.2172  -9.1788
    -9.1613  -9.1237  -9.0317  -9.0010  -8.9761  -8.8710  -8.8528  -8.8338
    -6.9063  -6.6366  -6.5315  -6.2762  -6.1981  -5.8703  -5.5317  -5.2761
    -5.1903  -5.0579  -4.9471  -4.6581  -3.8575  -3.7859  -3.7565  -3.7030
    -3.6633  -3.6220  -3.5747  -3.5433  -3.4726  -3.4254  -3.3749  -3.3231

     highest occupied level (ev):    -3.2962

!    total energy              =    -418.05751776 Ry
     estimated scf accuracy    <          7.9E-11 Ry

     The total energy is the sum of the following terms:
     one-electron contribution =    -317.55159785 Ry
     hartree contribution      =     191.44164037 Ry
     xc contribution           =    -105.67229749 Ry
     ewald contribution        =    -186.27526279 Ry

     convergence has been achieved in   6 iterations

     Forces acting on atoms (cartesian axes, Ry/au):

     atom    1 type  2   force =    -0.00019309   -0.00065331   -0.00009948
     atom    2 type  2   force =     0.00019309    0.00065331    0.00009948
     atom    3 type  2   force =     0.00066233    0.00015943   -0.00009948
     atom    4 type  2   force =    -0.00066233   -0.00015943    0.00009948
     atom    5 type  2   force =    -0.00046924    0.00049388   -0.00009948
     atom    6 type  2   force =     0.00046924   -0.00049388    0.00009948
     atom    7 type  2   force =    -0.00004955   -0.00000893    0.00065783
     atom    8 type  2   force =     0.00004955    0.00000893   -0.00065783
     atom    9 type  2   force =     0.00003251   -0.00003845    0.00065783
     atom   10 type  2   force =    -0.00003251    0.00003845   -0.00065783
     atom   11 type  2   force =     0.00001704    0.00004738    0.00065783
     atom   12 type  2   force =    -0.00001704   -0.00004738   -0.00065783
     atom   13 type  1   force =    -0.00020973    0.00016714    0.00070680
     atom   14 type  1   force =     0.00020973   -0.00016714   -0.00070680
     atom   15 type  1   force =    -0.00003988   -0.00026520    0.00070680
     atom   16 type  1   force =     0.00003988    0.00026520   -0.00070680
     atom   17 type  1   force =     0.00024961    0.00009806    0.00070680
     atom   18 type  1   force =    -0.00024961   -0.00009806   -0.00070680
     atom   19 type  1   force =     0.00026257   -0.00014194    0.00024543
     atom   20 type  1   force =    -0.00026257    0.00014194   -0.00024543
     atom   21 type  1   force =    -0.00000836    0.00029837    0.00024543
     atom   22 type  1   force =     0.00000836   -0.00029837   -0.00024543
     atom   23 type  1   force =    -0.00025421   -0.00015642    0.00024543
     atom   24 type  1   force =     0.00025421    0.00015642   -0.00024543
     atom   25 type  1   force =    -0.00027019    0.00059754   -0.00000337
     atom   26 type  1   force =     0.00027019   -0.00059754    0.00000337
     atom   27 type  1   force =    -0.00038239   -0.00053276   -0.00000337
     atom   28 type  1   force =     0.00038239    0.00053276    0.00000337
     atom   29 type  1   force =     0.00065258   -0.00006478   -0.00000337
     atom   30 type  1   force =    -0.00065258    0.00006478    0.00000337
     atom   31 type  1   force =    -0.00054915   -0.00019520    0.00012541
     atom   32 type  1   force =     0.00054915    0.00019520   -0.00012541
     atom   33 type  1   force =     0.00044362   -0.00037798    0.00012541
     atom   34 type  1   force =    -0.00044362    0.00037798   -0.00012541
     atom   35 type  1   force =     0.00010553    0.00057318    0.00012541
     atom   36 type  1   force =    -0.00010553   -0.00057318   -0.00012541

     Total force =     0.003807     Total SCF correction =     0.000011


     Computing stress (Cartesian axis) and pressure

          total   stress  (Ry/bohr**3)                   (kbar)     P=      -14.91
  -0.00010410  -0.00000000   0.00000000          -15.31       -0.00        0.00
   0.00000000  -0.00010410  -0.00000000            0.00      -15.31       -0.00
   0.00000000  -0.00000000  -0.00009578            0.00       -0.00      -14.09

     Energy error            =      4.1E-05 Ry
     Gradient error          =      7.1E-04 Ry/Bohr

     bfgs converged in  28 scf cycles and  27 bfgs steps
     (criteria: energy <  1.0E-04 Ry, force <  1.0E-03 Ry/Bohr)

     End of BFGS Geometry Optimization

     Final energy             =    -418.0575177617 Ry

     File ./iceII/iceII.bfgs deleted, as requested
Begin final coordinates

ATOMIC_POSITIONS (crystal)
O                0.2688105766        0.0242176018        0.8520965180
O                0.7311894234        0.9757824092        0.1479034520
O                0.8520965180        0.2688105766        0.0242176018
O                0.1479034520        0.7311894234        0.9757824092
O                0.0242176018        0.8520965180        0.2688105766
O                0.9757824092        0.1479034520        0.7311894234
O                0.4784858994        0.7512982437        0.3310043420
O                0.5215141006        0.2487017563        0.6689956280
O                0.3310043420        0.4784858994        0.7512982437
O                0.6689956280        0.5215141006        0.2487017563
O                0.7512982437        0.3310043420        0.4784858994
O                0.2487017563        0.6689956280        0.5215141006
H                0.1458285646        0.0368950552        0.7911402568
H                0.8541714214        0.9631049368        0.2088597432
H                0.7911402568        0.1458285646        0.0368950552
H                0.2088597432        0.8541714214        0.9631049368
H                0.0368950552        0.7911402568        0.1458285646
H                0.9631049368        0.2088597432        0.8541714214
H                0.4163222244        0.1896164871        0.9782379176
H                0.5836777756        0.8103835279        0.0217620614
H                0.9782379176        0.4163222244        0.1896164871
H                0.0217620614        0.5836777756        0.8103835279
H                0.1896164871        0.9782379176        0.4163222244
H                0.8103835279        0.0217620614        0.5836777756
H                0.7310389075        0.4050139966        0.4084704487
H                0.2689610925        0.5949859734        0.5915295813
H                0.4084704487        0.7310389075        0.4050139966
H                0.5915295813        0.2689610925        0.5949859734
H                0.4050139966        0.4084704487        0.7310389075
H                0.5949859734        0.5915295813        0.2689610925
H                0.7460190120        0.2076527435        0.3760397400
H                0.2539809880        0.7923472415        0.6239602600
H                0.3760397400        0.7460190120        0.2076527435
H                0.6239602600        0.2539809880        0.7923472415
H                0.2076527435        0.3760397400        0.7460190120
H                0.7923472415        0.6239602600        0.2539809880
End final coordinates



     Writing all to output data dir ./iceII/iceII.save/ :
     XML data file, charge density, pseudopotentials, collected wavefunctions

     init_run     :      2.94s CPU      3.04s WALL (       1 calls)
     electrons    :    225.87s CPU    235.27s WALL (      28 calls)
     update_pot   :      4.89s CPU      5.80s WALL (      27 calls)
     forces       :      4.26s CPU      4.26s WALL (      28 calls)
     stress       :     33.59s CPU     34.46s WALL (      28 calls)

     Called by init_run:
     wfcinit      :      0.36s CPU      0.38s WALL (       1 calls)
     potinit      :      1.72s CPU      1.76s WALL (       1 calls)
     hinit0       :      0.67s CPU      0.68s WALL (       1 calls)

     Called by electrons:
     c_bands      :    165.64s CPU    167.62s WALL (     202 calls)
     sum_band     :     23.59s CPU     23.77s WALL (     202 calls)
     v_of_rho     :     40.46s CPU     47.04s WALL (     220 calls)
     newd         :      1.16s CPU      1.19s WALL (     220 calls)
     mix_rho      :      0.69s CPU      0.69s WALL (     202 calls)
     vdW_kernel   :      1.51s CPU      1.52s WALL (       1 calls)

     Called by c_bands:
     init_us_2    :      3.19s CPU      3.30s WALL (    1844 calls)
     cegterg      :    159.93s CPU    161.45s WALL (     808 calls)

     Called by *egterg:
     cdiaghg      :     11.36s CPU     11.37s WALL (    2940 calls)
     h_psi        :    120.03s CPU    121.15s WALL (    3092 calls)
     s_psi        :      5.43s CPU      5.60s WALL (    3092 calls)
     g_psi        :      0.35s CPU      0.36s WALL (    2280 calls)

     Called by h_psi:
     h_psi:calbec :      8.98s CPU      9.04s WALL (    3092 calls)
     vloc_psi     :    104.69s CPU    105.67s WALL (    3092 calls)
     add_vuspsi   :      5.41s CPU      5.43s WALL (    3092 calls)

     General routines
     calbec       :     13.14s CPU     13.23s WALL (    4460 calls)
     fft          :     22.24s CPU     25.50s WALL (   14913 calls)
     ffts         :      0.27s CPU      0.27s WALL (     202 calls)
     fftw         :    109.35s CPU    110.32s WALL (  280510 calls)

     Parallel routines

     PWSCF        :   4m33.44s CPU   4m49.46s WALL


   This run was terminated on:  15:42: 8   1Apr2026            

=------------------------------------------------------------------------------=
   JOB DONE.
=------------------------------------------------------------------------------=
