
     Program PWSCF v.7.3.1 starts on 26Mar2026 at 15:59:44 

     This program is part of the open-source Quantum ESPRESSO suite
     for quantum simulation of materials; please cite
         "P. Giannozzi et al., J. Phys.:Condens. Matter 21 395502 (2009);
         "P. Giannozzi et al., J. Phys.:Condens. Matter 29 465901 (2017);
         "P. Giannozzi et al., J. Chem. Phys. 152 154105 (2020);
          URL http://www.quantum-espresso.org", 
     in publications or presentations arising from this work. More details at
     http://www.quantum-espresso.org/quote

     Parallel version (MPI), running on   128 processors

     MPI processes distributed on     1 nodes
     242810 MiB available memory on the printing compute node when the environment starts

     Waiting for input...
     Reading input from standard input

     Current dimensions of program PWSCF are:
     Max number of different atomic species (ntypx) = 10
     Max number of k-points (npk) =  40000
     Max angular momentum in pseudopotentials (lmaxx) =  4

     IMPORTANT: XC functional enforced from input :
     Exchange-correlation= VDW-DF2
                           (   1   4  13   0   2   0   0)
     Any further DFT definition will be discarded
     Please, verify this is what you really want


     K-points division:     npool     =       4
     R & G space division:  proc/nbgrp/npool/nimage =      32
     Subspace diagonalization in iterative solution of the eigenvalue problem:
     a serial algorithm will be used


     Parallelization info
     --------------------
     sticks:   dense  smooth     PW     G-vecs:    dense   smooth      PW
     Min         194     194     56                 8420     8420    1325
     Max         195     195     57                 8422     8422    1327
     Sum        6211    6211   1815               269467   269467   42433

     Using Slab Decomposition



     bravais-lattice index     =            5
     lattice parameter (alat)  =      15.3490  a.u.
     unit-cell volume          =    2336.3032 (a.u.)^3
     number of atoms/cell      =           36
     number of atomic types    =            2
     number of electrons       =        96.00
     number of Kohn-Sham states=           48
     kinetic-energy cutoff     =      90.0000  Ry
     charge density cutoff     =     360.0000  Ry
     scf convergence threshold =      1.0E-07
     mixing beta               =       0.7000
     number of iterations used =            8  plain     mixing
     Exchange-correlation= VDW-DF2
                           (   1   4  13   0   2   0   0)

     celldm(1)=  15.348959  celldm(2)=   0.000000  celldm(3)=   0.000000
     celldm(4)=  -0.392337  celldm(5)=   0.000000  celldm(6)=   0.000000

     crystal axes: (cart. coord. in units of alat)
               a(1) = (   0.834367  -0.481722   0.267909 )  
               a(2) = (   0.000000   0.963444   0.267909 )  
               a(3) = (  -0.834367  -0.481722   0.267909 )  

     reciprocal axes: (cart. coord. in units 2 pi/alat)
               b(1) = (  0.599257 -0.345981  1.244203 )  
               b(2) = ( -0.000000  0.691962  1.244203 )  
               b(3) = ( -0.599257 -0.345981  1.244203 )  


     PseudoPot. # 1 for H  read from file:
     ./H.pbe-van_ak.UPF
     MD5 check sum: 077eb6d537518a38cb46c6de387227b7
     Pseudo is Ultrasoft, Zval =  1.0
     Generated by new atomic code, or converted to UPF format
     Using radial grid of  615 points,  1 beta functions with: 
                l(1) =   0
     Q(r) pseudized with  8 coefficients,  rinner =    0.800

     PseudoPot. # 2 for O  read from file:
     ./O.pbe-van_ak.UPF
     MD5 check sum: 78c19812648e8988a0fe644b0f25305e
     Pseudo is Ultrasoft, Zval =  6.0
     Generated by new atomic code, or converted to UPF format
     Using radial grid of  737 points,  4 beta functions with: 
                l(1) =   0
                l(2) =   0
                l(3) =   1
                l(4) =   1
     Q(r) pseudized with  8 coefficients,  rinner =    0.800   0.800   0.800


     atomic species   valence    mass     pseudopotential
     H                 1.00     1.00800     H ( 1.00)
     O                 6.00    16.00000     O ( 1.00)

      6 Sym. Ops., with inversion, found



   Cartesian axes

     site n.     atom                  positions (alat units)
         1        O      tau(   1) = (  -0.4881587  -0.5153728   0.3102004  )
         2        O      tau(   2) = (   0.4881587   0.5153729   0.4935268  )
         3        O      tau(   3) = (   0.6904053  -0.1650714   0.3102004  )
         4        O      tau(   4) = (  -0.6904053   0.1650714   0.4935268  )
         5        O      tau(   5) = (  -0.2022466   0.6804442   0.3102004  )
         6        O      tau(   6) = (   0.2022466  -0.6804442   0.4935268  )
         7        O      tau(   7) = (   0.1208629   0.3351200   0.4137471  )
         8        O      tau(   8) = (  -0.1208629  -0.3351200   0.3899800  )
         9        O      tau(   9) = (  -0.3506539  -0.0628897   0.4137471  )
        10        O      tau(  10) = (   0.3506539   0.0628897   0.3899800  )
        11        O      tau(  11) = (   0.2297910  -0.2722304   0.4137471  )
        12        O      tau(  12) = (  -0.2297910   0.2722304   0.3899800  )
        13        H      tau(  13) = (  -0.5430428  -0.4102686   0.2622098  )
        14        H      tau(  14) = (   0.5430428   0.4102686   0.5415173  )
        15        H      tau(  15) = (   0.6268245  -0.2651546   0.2622098  )
        16        H      tau(  16) = (  -0.6268245   0.2651546   0.5415173  )
        17        H      tau(  17) = (  -0.0837816   0.6754232   0.2622098  )
        18        H      tau(  18) = (   0.0837817  -0.6754232   0.5415173  )
        19        H      tau(  19) = (  -0.4681736  -0.4859583   0.4327384  )
        20        H      tau(  20) = (   0.4681736   0.4859583   0.3709887  )
        21        H      tau(  21) = (   0.6549390  -0.1624711   0.4327384  )
        22        H      tau(  22) = (  -0.6549390   0.1624711   0.3709887  )
        23        H      tau(  23) = (  -0.1867654   0.6484294   0.4327384  )
        24        H      tau(  24) = (   0.1867654  -0.6484294   0.3709887  )
        25        H      tau(  25) = (   0.2718867  -0.1516220   0.4118766  )
        26        H      tau(  26) = (  -0.2718867   0.1516219   0.3918506  )
        27        H      tau(  27) = (  -0.0046349   0.3112717   0.4118766  )
        28        H      tau(  28) = (   0.0046349  -0.3112717   0.3918506  )
        29        H      tau(  29) = (  -0.2672518  -0.1596498   0.4118766  )
        30        H      tau(  30) = (   0.2672518   0.1596498   0.3918506  )
        31        H      tau(  31) = (   0.3136186  -0.3416266   0.3473301  )
        32        H      tau(  32) = (  -0.3136186   0.3416266   0.4563970  )
        33        H      tau(  33) = (   0.1390481   0.4424150   0.3473301  )
        34        H      tau(  34) = (  -0.1390480  -0.4424150   0.4563970  )
        35        H      tau(  35) = (  -0.4526667  -0.1007884   0.3473301  )
        36        H      tau(  36) = (   0.4526666   0.1007884   0.4563970  )

     number of k points=    14
                       cart. coord. in units 2pi/alat
        k(    1) = (   0.0000000   0.0000000   0.0000000), wk =   0.0312500
        k(    2) = (  -0.1498141  -0.0864952   0.3110508), wk =   0.1875000
        k(    3) = (   0.2996283   0.1729905  -0.6221017), wk =   0.0937500
        k(    4) = (  -0.1498141   0.0864952   0.6221017), wk =   0.1875000
        k(    5) = (   0.2996283   0.3459809  -0.3110508), wk =   0.1875000
        k(    6) = (   0.1498141   0.2594857   0.0000000), wk =   0.1875000
        k(    7) = (   0.2996283  -0.1729905  -1.2442034), wk =   0.0937500
        k(    8) = (   0.0000000   0.0000000   0.9331525), wk =   0.0625000
        k(    9) = (   0.4494424   0.2594857   0.0000000), wk =   0.1875000
        k(   10) = (   0.2996283   0.1729905   0.3110508), wk =   0.1875000
        k(   11) = (   0.4494424  -0.2594857  -0.9331525), wk =   0.1875000
        k(   12) = (   0.2996283  -0.3459809  -0.6221017), wk =   0.1875000
        k(   13) = (   0.0000000   0.0000000  -1.8663050), wk =   0.0312500
        k(   14) = (   0.2996283  -0.3459809   0.3110508), wk =   0.1875000

     Dense  grid:   269467 G-vectors     FFT dimensions: (  96,  96,  96)

     Estimated max dynamical RAM per process >      17.44 MB

     Estimated total dynamical RAM >       1.99 GB

     Initial potential from superposition of free atoms

     starting charge      95.9998, renormalised to      96.0000


     %%%%%%%%%%%%%%%%%%%%%%%%%%%%%%%%%%%%%%%%%%%%%%%%%%%%%%%%%%%%%%%%%%%%%%%%
     %                                                                      %
     % You are using vdW-DF, which was implemented by the Thonhauser group. %
     % Please cite the following two papers that made this development      %
     % possible and the two reviews that describe the various versions:     %
     %                                                                      %
     %   T. Thonhauser et al., PRL 115, 136402 (2015).                      %
     %   T. Thonhauser et al., PRB 76, 125112 (2007).                       %
     %   K. Berland et al., Rep. Prog. Phys. 78, 066501 (2015).             %
     %   D.C. Langreth et al., J. Phys.: Condens. Matter 21, 084203 (2009). %
     %                                                                      %
     % If you are calculating stress with vdW-DF, please also cite:         %
     %                                                                      %
     %   R. Sabatini et al., J. Phys.: Condens. Matter 24, 424209 (2012).   %
     %                                                                      %
     %%%%%%%%%%%%%%%%%%%%%%%%%%%%%%%%%%%%%%%%%%%%%%%%%%%%%%%%%%%%%%%%%%%%%%%%

     %%%%%%%%%%%%%%%%%%%%%%%%%%%%%%%%%%%%%%%%%%%%%%%%%%%%%%%%%%%%%%%%%%%%%%%%
     %                                                                      %
     %  vdW-DF NEWS:                                                        %
     %                                                                      %
     %  * vdW-DF3 is now available. DOI: 10.1021/acs.jctc.0c00471           %
     %    use with input_dft = 'vdW-DF3-opt1' or 'vdW-DF3-opt2'             %
     %                                                                      %
     %  * Unscreened and range-separated hybrid vdW-DF-cx functionals       %
     %    DOI: 10.1063/1.4986522 and 10.1088/1361-648X/ac2ad2               %
     %    use with input_dft = 'vdW-DF-cx0'    and 'vdW-DF-ahcx'            %
     %  * Unscreened and range-separated hybrid vdW-DF2-b86r functionals    %
     %    DOI: 10.1063/1.4986522 and DOI: 10.1103/PhysRevX.12.041003        %
     %    use with input_dft = 'vdW-DF2-br0' and 'vdW-DF2-ahbr'             %
     %                                                                      %
     %%%%%%%%%%%%%%%%%%%%%%%%%%%%%%%%%%%%%%%%%%%%%%%%%%%%%%%%%%%%%%%%%%%%%%%%


     Starting wfcs are   72 randomized atomic wfcs

     total cpu time spent up to now is        3.2 secs

     per-process dynamical memory:    21.1 Mb

     Self-consistent Calculation

     iteration #  1     ecut=    90.00 Ry     beta= 0.70
     Davidson diagonalization with overlap
     ethr =  1.00E-02,  avg # of iterations =  2.0

     negative rho (up, down):  1.534E-07 0.000E+00

     total cpu time spent up to now is        4.3 secs

     total energy              =    -415.88613413 Ry
     estimated scf accuracy    <       4.55076631 Ry

     iteration #  2     ecut=    90.00 Ry     beta= 0.70
     Davidson diagonalization with overlap
     ethr =  4.74E-03,  avg # of iterations =  3.0

     total cpu time spent up to now is        5.7 secs

     total energy              =    -417.34453773 Ry
     estimated scf accuracy    <       3.85973822 Ry

     iteration #  3     ecut=    90.00 Ry     beta= 0.70
     Davidson diagonalization with overlap
     ethr =  4.02E-03,  avg # of iterations =  2.0

     total cpu time spent up to now is        6.7 secs

     total energy              =    -417.83745999 Ry
     estimated scf accuracy    <       0.18343174 Ry

     iteration #  4     ecut=    90.00 Ry     beta= 0.70
     Davidson diagonalization with overlap
     ethr =  1.91E-04,  avg # of iterations =  4.0

     negative rho (up, down):  3.585E-07 0.000E+00

     total cpu time spent up to now is        8.2 secs

     total energy              =    -417.97782122 Ry
     estimated scf accuracy    <       0.20904768 Ry

     iteration #  5     ecut=    90.00 Ry     beta= 0.70
     Davidson diagonalization with overlap
     ethr =  1.91E-04,  avg # of iterations =  1.9

     negative rho (up, down):  7.331E-07 0.000E+00

     total cpu time spent up to now is        9.1 secs

     total energy              =    -417.97995751 Ry
     estimated scf accuracy    <       0.03382627 Ry

     iteration #  6     ecut=    90.00 Ry     beta= 0.70
     Davidson diagonalization with overlap
     ethr =  3.52E-05,  avg # of iterations =  2.0

     negative rho (up, down):  8.371E-07 0.000E+00

     total cpu time spent up to now is       10.2 secs

     total energy              =    -417.98660919 Ry
     estimated scf accuracy    <       0.00169333 Ry

     iteration #  7     ecut=    90.00 Ry     beta= 0.70
     Davidson diagonalization with overlap
     ethr =  1.76E-06,  avg # of iterations =  3.1

     negative rho (up, down):  8.403E-07 0.000E+00

     total cpu time spent up to now is       11.4 secs

     total energy              =    -417.98754155 Ry
     estimated scf accuracy    <       0.00033026 Ry

     iteration #  8     ecut=    90.00 Ry     beta= 0.70
     Davidson diagonalization with overlap
     ethr =  3.44E-07,  avg # of iterations =  2.6

     negative rho (up, down):  7.357E-07 0.000E+00

     total cpu time spent up to now is       12.3 secs

     total energy              =    -417.98748532 Ry
     estimated scf accuracy    <       0.00045375 Ry

     iteration #  9     ecut=    90.00 Ry     beta= 0.70
     Davidson diagonalization with overlap
     ethr =  3.44E-07,  avg # of iterations =  1.0

     negative rho (up, down):  6.534E-07 0.000E+00

     total cpu time spent up to now is       13.1 secs

     total energy              =    -417.98734574 Ry
     estimated scf accuracy    <       0.00024272 Ry

     iteration # 10     ecut=    90.00 Ry     beta= 0.70
     Davidson diagonalization with overlap
     ethr =  2.53E-07,  avg # of iterations =  3.0

     negative rho (up, down):  6.619E-07 0.000E+00

     total cpu time spent up to now is       14.5 secs

     total energy              =    -417.98744076 Ry
     estimated scf accuracy    <       0.00005452 Ry

     iteration # 11     ecut=    90.00 Ry     beta= 0.70
     Davidson diagonalization with overlap
     ethr =  5.68E-08,  avg # of iterations =  1.7

     negative rho (up, down):  6.928E-07 0.000E+00

     total cpu time spent up to now is       15.4 secs

     total energy              =    -417.98743130 Ry
     estimated scf accuracy    <       0.00005172 Ry

     iteration # 12     ecut=    90.00 Ry     beta= 0.70
     Davidson diagonalization with overlap
     ethr =  5.39E-08,  avg # of iterations =  1.0

     negative rho (up, down):  7.372E-07 0.000E+00

     total cpu time spent up to now is       16.2 secs

     total energy              =    -417.98742208 Ry
     estimated scf accuracy    <       0.00002218 Ry

     iteration # 13     ecut=    90.00 Ry     beta= 0.70
     Davidson diagonalization with overlap
     ethr =  2.31E-08,  avg # of iterations =  2.0

     negative rho (up, down):  7.348E-07 0.000E+00

     total cpu time spent up to now is       17.3 secs

     total energy              =    -417.98742800 Ry
     estimated scf accuracy    <       0.00000053 Ry

     iteration # 14     ecut=    90.00 Ry     beta= 0.70
     Davidson diagonalization with overlap
     ethr =  5.51E-10,  avg # of iterations =  2.0

     negative rho (up, down):  7.373E-07 0.000E+00

     total cpu time spent up to now is       18.4 secs

     End of self-consistent calculation

          k = 0.0000 0.0000 0.0000 ( 33745 PWs)   bands (ev):

   -21.2538 -20.8998 -20.8998 -20.7423 -20.7423 -20.7114 -20.7072 -20.7064
   -20.7064 -20.4833 -20.4833 -20.2463  -8.9580  -8.8885  -8.8885  -8.8754
    -8.8068  -8.8068  -8.5606  -8.5606  -8.5520  -8.5107  -8.5107  -8.5073
    -7.2808  -6.3578  -6.3578  -5.8393  -5.8393  -5.6897  -5.6897  -5.5515
    -5.4343  -4.8403  -4.8403  -4.1753  -3.6930  -3.6930  -3.6686  -3.5568
    -3.5568  -3.5268  -3.4357  -3.4357  -3.4021  -3.3489  -3.3014  -3.3014

          k =-0.1498-0.0865 0.3111 ( 33688 PWs)   bands (ev):

   -21.1975 -20.9322 -20.8932 -20.8468 -20.8178 -20.7665 -20.6724 -20.6374
   -20.5914 -20.4864 -20.4552 -20.2901  -8.9288  -8.9028  -8.8860  -8.8577
    -8.8021  -8.7759  -8.6056  -8.5847  -8.5760  -8.5050  -8.4587  -8.4513
    -7.1381  -6.5066  -6.3889  -6.1144  -5.9116  -5.6996  -5.5473  -5.4335
    -5.2822  -4.8340  -4.7813  -4.3150  -3.7579  -3.7018  -3.6799  -3.6094
    -3.5962  -3.5549  -3.4699  -3.4291  -3.3755  -3.3646  -3.3150  -3.2936

          k = 0.2996 0.1730-0.6221 ( 33640 PWs)   bands (ev):

   -21.0536 -21.0508 -20.9157 -20.9070 -20.8163 -20.8157 -20.6302 -20.6299
   -20.4949 -20.4843 -20.3969 -20.3961  -8.9097  -8.8967  -8.8627  -8.8595
    -8.8034  -8.7565  -8.6236  -8.6062  -8.5893  -8.4932  -8.4244  -8.4151
    -6.8395  -6.7555  -6.3866  -6.3773  -5.8938  -5.8408  -5.4376  -5.3595
    -4.9635  -4.8931  -4.7471  -4.5328  -3.8201  -3.7190  -3.6686  -3.6575
    -3.6098  -3.5879  -3.5099  -3.4330  -3.4134  -3.3451  -3.3012  -3.2843

          k =-0.1498 0.0865 0.6221 ( 33658 PWs)   bands (ev):

   -21.0856 -20.9781 -20.9686 -20.8774 -20.8564 -20.8062 -20.6372 -20.5762
   -20.5426 -20.4533 -20.4404 -20.3694  -8.9101  -8.8928  -8.8691  -8.8626
    -8.7986  -8.7494  -8.6218  -8.6133  -8.5993  -8.4689  -8.4387  -8.4160
    -6.8829  -6.6250  -6.5844  -6.1849  -6.0121  -5.8485  -5.4335  -5.2243
    -5.1180  -4.8152  -4.7587  -4.5439  -3.8060  -3.7434  -3.6649  -3.6416
    -3.6083  -3.5870  -3.5198  -3.4330  -3.4022  -3.3442  -3.3214  -3.2728

          k = 0.2996 0.3460-0.3111 ( 33681 PWs)   bands (ev):

   -21.1217 -20.9990 -20.9295 -20.8946 -20.8429 -20.7876 -20.6381 -20.5569
   -20.5434 -20.4830 -20.4347 -20.3550  -8.9142  -8.9100  -8.8765  -8.8459
    -8.7954  -8.7709  -8.6582  -8.6263  -8.6003  -8.4852  -8.4527  -8.4262
    -6.8928  -6.6096  -6.4430  -6.2248  -6.1702  -5.7098  -5.3596  -5.2709
    -5.1184  -4.8650  -4.7573  -4.5019  -3.7606  -3.7176  -3.6742  -3.6335
    -3.5920  -3.5413  -3.4867  -3.4639  -3.3824  -3.3799  -3.3118  -3.2411

          k = 0.1498 0.2595 0.0000 ( 33715 PWs)   bands (ev):

   -21.2120 -20.9541 -20.9120 -20.8285 -20.8040 -20.7444 -20.6757 -20.6229
   -20.5903 -20.4891 -20.4665 -20.2826  -8.9441  -8.8999  -8.8905  -8.8572
    -8.8023  -8.7960  -8.6258  -8.6032  -8.5663  -8.5182  -8.4969  -8.4561
    -7.1284  -6.4107  -6.3274  -6.1441  -6.1130  -5.6133  -5.4608  -5.3474
    -5.3206  -4.8737  -4.8301  -4.2774  -3.6964  -3.6853  -3.6799  -3.5967
    -3.5608  -3.5406  -3.4651  -3.4498  -3.3896  -3.3670  -3.2829  -3.2665

          k = 0.2996-0.1730-1.2442 ( 33696 PWs)   bands (ev):

   -21.1138 -21.0796 -20.9195 -20.8707 -20.7990 -20.7683 -20.6249 -20.6182
   -20.5201 -20.5143 -20.3798 -20.3735  -8.9250  -8.9087  -8.8842  -8.8480
    -8.7923  -8.7906  -8.6801  -8.6382  -8.5850  -8.4974  -8.4898  -8.4465
    -6.7620  -6.7323  -6.4090  -6.2865  -6.0558  -5.7321  -5.2913  -5.2794
    -5.1085  -4.9826  -4.6596  -4.5153  -3.7067  -3.6857  -3.6710  -3.6250
    -3.5659  -3.5397  -3.4930  -3.4391  -3.4326  -3.3570  -3.2552  -3.2512

          k = 0.0000 0.0000 0.9332 ( 33636 PWs)   bands (ev):

   -21.0382 -21.0382 -20.9714 -20.9555 -20.8112 -20.8112 -20.5780 -20.5780
   -20.4751 -20.4615 -20.4342 -20.4342  -8.9091  -8.9091  -8.8839  -8.8119
    -8.8119  -8.7935  -8.6881  -8.6242  -8.6242  -8.4391  -8.4391  -8.4203
    -6.6758  -6.6758  -6.6335  -6.3074  -5.9826  -5.9826  -5.1460  -5.1460
    -5.0727  -4.8135  -4.8135  -4.7064  -3.7242  -3.7242  -3.6476  -3.6309
    -3.5654  -3.5654  -3.5328  -3.4317  -3.4317  -3.3484  -3.3484  -3.2211

          k = 0.4494 0.2595 0.0000 ( 33675 PWs)   bands (ev):

   -21.1350 -21.0061 -20.9969 -20.8723 -20.7633 -20.7510 -20.6540 -20.6373
   -20.5148 -20.4622 -20.4404 -20.3483  -8.9236  -8.9023  -8.8947  -8.8393
    -8.8161  -8.7659  -8.6899  -8.6296  -8.5985  -8.4933  -8.4823  -8.4497
    -6.8660  -6.5021  -6.4670  -6.3860  -6.0198  -5.7240  -5.3694  -5.2923
    -5.0317  -4.8899  -4.7894  -4.4766  -3.6965  -3.6891  -3.6763  -3.6183
    -3.5838  -3.5449  -3.4781  -3.4557  -3.4182  -3.3366  -3.2870  -3.2376

          k = 0.2996 0.1730 0.3111 ( 33704 PWs)   bands (ev):

   -21.1584 -20.9635 -20.9056 -20.8868 -20.8316 -20.7767 -20.6505 -20.6096
   -20.5730 -20.4716 -20.4393 -20.3198  -8.9208  -8.9071  -8.8779  -8.8399
    -8.8076  -8.7526  -8.6390  -8.5949  -8.5705  -8.5366  -8.4843  -8.4383
    -6.9981  -6.4822  -6.4515  -6.1848  -6.0909  -5.7026  -5.4557  -5.3080
    -5.2449  -4.8209  -4.7721  -4.3810  -3.7783  -3.7131  -3.6900  -3.6445
    -3.6156  -3.5231  -3.4989  -3.4348  -3.3605  -3.3597  -3.3004  -3.2759

          k = 0.4494-0.2595-0.9332 ( 33702 PWs)   bands (ev):

   -21.0591 -21.0522 -20.9485 -20.9181 -20.8219 -20.7525 -20.6795 -20.6009
   -20.5066 -20.4554 -20.4238 -20.3676  -8.9139  -8.8950  -8.8855  -8.8246
    -8.7936  -8.7402  -8.6609  -8.6235  -8.5905  -8.5419  -8.4818  -8.4512
    -6.7239  -6.6291  -6.4965  -6.3028  -6.1093  -5.7276  -5.5046  -5.2399
    -5.0207  -4.8201  -4.7852  -4.4814  -3.7869  -3.7317  -3.7079  -3.6585
    -3.6351  -3.5395  -3.4606  -3.4436  -3.3780  -3.3447  -3.2827  -3.2642

          k = 0.2996-0.3460-0.6221 ( 33690 PWs)   bands (ev):

   -21.0268 -21.0214 -20.9426 -20.9356 -20.8336 -20.8331 -20.6161 -20.6142
   -20.4918 -20.4867 -20.3980 -20.3911  -8.9143  -8.8690  -8.8581  -8.8419
    -8.8270  -8.7129  -8.6510  -8.6080  -8.5839  -8.5223  -8.4505  -8.4405
    -6.7234  -6.6951  -6.4398  -6.3944  -5.9663  -5.9362  -5.3551  -5.2992
    -4.9775  -4.9445  -4.7112  -4.5085  -3.8407  -3.7331  -3.7049  -3.7000
    -3.6578  -3.5417  -3.4586  -3.4469  -3.4024  -3.3255  -3.3129  -3.2677

          k = 0.0000 0.0000-1.8663 ( 33714 PWs)   bands (ev):

   -20.9994 -20.9853 -20.9165 -20.9165 -20.9144 -20.9144 -20.5491 -20.5491
   -20.5373 -20.5373 -20.3921 -20.3792  -8.9146  -8.8430  -8.8430  -8.8350
    -8.8350  -8.6971  -8.6482  -8.6147  -8.5687  -8.5687  -8.4743  -8.4743
    -6.7128  -6.5814  -6.2762  -6.2762  -6.2072  -6.2072  -5.1312  -5.1312
    -5.1021  -5.1021  -4.6631  -4.4840  -3.8504  -3.7359  -3.7359  -3.7286
    -3.7286  -3.4935  -3.4643  -3.3869  -3.3869  -3.3411  -3.3411  -3.2435

          k = 0.2996-0.3460 0.3111 ( 33681 PWs)   bands (ev):

   -21.1218 -20.9977 -20.9335 -20.8926 -20.8419 -20.7874 -20.6371 -20.5608
   -20.5441 -20.4795 -20.4343 -20.3559  -8.9201  -8.8976  -8.8846  -8.8352
    -8.8042  -8.7715  -8.6672  -8.6222  -8.5960  -8.4822  -8.4464  -8.4347
    -6.8945  -6.5873  -6.4926  -6.2075  -6.1202  -5.7626  -5.4434  -5.1612
    -5.0472  -4.9231  -4.8044  -4.4786  -3.7683  -3.7080  -3.6678  -3.6269
    -3.6009  -3.5418  -3.4941  -3.4746  -3.3899  -3.3551  -3.3123  -3.2456

     highest occupied level (ev):    -3.2211

!    total energy              =    -417.98742810 Ry
     estimated scf accuracy    <       0.00000005 Ry

     The total energy is the sum of the following terms:
     one-electron contribution =    -309.07081847 Ry
     hartree contribution      =     187.51876460 Ry
     xc contribution           =    -104.81423235 Ry
     ewald contribution        =    -191.62114189 Ry

     convergence has been achieved in  14 iterations

     Forces acting on atoms (cartesian axes, Ry/au):

     atom    1 type  2   force =    -0.01536863    0.05593241    0.03172649
     atom    2 type  2   force =     0.01536863   -0.05593241   -0.03172649
     atom    3 type  2   force =    -0.04075457   -0.04127583    0.03172649
     atom    4 type  2   force =     0.04075457    0.04127583   -0.03172649
     atom    5 type  2   force =     0.05612320   -0.01465658    0.03172649
     atom    6 type  2   force =    -0.05612320    0.01465658   -0.03172649
     atom    7 type  2   force =    -0.04343118    0.03334307   -0.02640721
     atom    8 type  2   force =     0.04343118   -0.03334307    0.02640721
     atom    9 type  2   force =    -0.00716036   -0.05428404   -0.02640721
     atom   10 type  2   force =     0.00716036    0.05428404    0.02640721
     atom   11 type  2   force =     0.05059154    0.02094097   -0.02640721
     atom   12 type  2   force =    -0.05059154   -0.02094097    0.02640721
     atom   13 type  1   force =     0.02554794   -0.04593957    0.02509967
     atom   14 type  1   force =    -0.02554794    0.04593957   -0.02509967
     atom   15 type  1   force =     0.02701087    0.04509495    0.02509967
     atom   16 type  1   force =    -0.02701087   -0.04509495   -0.02509967
     atom   17 type  1   force =    -0.05255881    0.00084462    0.02509967
     atom   18 type  1   force =     0.05255881   -0.00084462   -0.02509967
     atom   19 type  1   force =    -0.01121708   -0.01038497   -0.05696617
     atom   20 type  1   force =     0.01121708    0.01038497    0.05696617
     atom   21 type  1   force =     0.01460219   -0.00452179   -0.05696617
     atom   22 type  1   force =    -0.01460219    0.00452179    0.05696617
     atom   23 type  1   force =    -0.00338511    0.01490676   -0.05696617
     atom   24 type  1   force =     0.00338511   -0.01490676    0.05696617
     atom   25 type  1   force =    -0.01567752   -0.05688233   -0.00150978
     atom   26 type  1   force =     0.01567752    0.05688233    0.00150978
     atom   27 type  1   force =     0.05710030    0.01486403   -0.00150978
     atom   28 type  1   force =    -0.05710030   -0.01486403    0.00150978
     atom   29 type  1   force =    -0.04142278    0.04201829   -0.00150978
     atom   30 type  1   force =     0.04142278   -0.04201829    0.00150978
     atom   31 type  1   force =    -0.03705376    0.03602421    0.03122015
     atom   32 type  1   force =     0.03705376   -0.03602421   -0.03122015
     atom   33 type  1   force =    -0.01267100   -0.05010160    0.03122015
     atom   34 type  1   force =     0.01267100    0.05010160   -0.03122015
     atom   35 type  1   force =     0.04972476    0.01407739    0.03122015
     atom   36 type  1   force =    -0.04972476   -0.01407739   -0.03122015

     Total force =     0.363876     Total SCF correction =     0.000124


     Computing stress (Cartesian axis) and pressure

          total   stress  (Ry/bohr**3)                   (kbar)     P=      -80.12
  -0.00054798  -0.00000000   0.00000000          -80.61       -0.00        0.00
   0.00000000  -0.00054798  -0.00000000            0.00      -80.61       -0.00
   0.00000000  -0.00000000  -0.00053789            0.00       -0.00      -79.13


     Writing all to output data dir ./iceII/iceII.save/ :
     XML data file, charge density, pseudopotentials, collected wavefunctions

     init_run     :      2.93s CPU      3.03s WALL (       1 calls)
     electrons    :     14.59s CPU     15.29s WALL (       1 calls)
     forces       :      0.15s CPU      0.16s WALL (       1 calls)
     stress       :      1.18s CPU      1.24s WALL (       1 calls)

     Called by init_run:
     wfcinit      :      0.37s CPU      0.37s WALL (       1 calls)
     potinit      :      1.68s CPU      1.76s WALL (       1 calls)
     hinit0       :      0.67s CPU      0.68s WALL (       1 calls)

     Called by electrons:
     c_bands      :     10.19s CPU     10.27s WALL (      14 calls)
     sum_band     :      1.64s CPU      1.66s WALL (      14 calls)
     v_of_rho     :      4.20s CPU      4.80s WALL (      15 calls)
     newd         :      0.11s CPU      0.11s WALL (      15 calls)
     mix_rho      :      0.07s CPU      0.07s WALL (      14 calls)
     vdW_kernel   :      1.50s CPU      1.51s WALL (       1 calls)

     Called by c_bands:
     init_us_2    :      0.21s CPU      0.22s WALL (     124 calls)
     cegterg      :      9.79s CPU      9.83s WALL (      56 calls)

     Called by *egterg:
     cdiaghg      :      0.66s CPU      0.66s WALL (     179 calls)
     h_psi        :      7.72s CPU      7.76s WALL (     183 calls)
     s_psi        :      0.35s CPU      0.35s WALL (     183 calls)
     g_psi        :      0.02s CPU      0.02s WALL (     123 calls)

     Called by h_psi:
     h_psi:calbec :      0.56s CPU      0.57s WALL (     183 calls)
     vloc_psi     :      6.74s CPU      6.78s WALL (     183 calls)
     add_vuspsi   :      0.35s CPU      0.35s WALL (     183 calls)

     General routines
     calbec       :      0.80s CPU      0.80s WALL (     259 calls)
     fft          :      2.08s CPU      2.44s WALL (     967 calls)
     ffts         :      0.02s CPU      0.02s WALL (      14 calls)
     fftw         :      7.12s CPU      7.16s WALL (   18188 calls)

     Parallel routines

     PWSCF        :     19.14s CPU     20.48s WALL


   This run was terminated on:  16: 0: 5  26Mar2026            

=------------------------------------------------------------------------------=
   JOB DONE.
=------------------------------------------------------------------------------=
