
     Program PWSCF v.7.3.1 starts on  1Apr2026 at 15:42:19 

     This program is part of the open-source Quantum ESPRESSO suite
     for quantum simulation of materials; please cite
         "P. Giannozzi et al., J. Phys.:Condens. Matter 21 395502 (2009);
         "P. Giannozzi et al., J. Phys.:Condens. Matter 29 465901 (2017);
         "P. Giannozzi et al., J. Chem. Phys. 152 154105 (2020);
          URL http://www.quantum-espresso.org", 
     in publications or presentations arising from this work. More details at
     http://www.quantum-espresso.org/quote

     Parallel version (MPI), running on   128 processors

     MPI processes distributed on     1 nodes
     242550 MiB available memory on the printing compute node when the environment starts

     Waiting for input...
     Reading input from standard input

     Current dimensions of program PWSCF are:
     Max number of different atomic species (ntypx) = 10
     Max number of k-points (npk) =  40000
     Max angular momentum in pseudopotentials (lmaxx) =  4

     IMPORTANT: XC functional enforced from input :
     Exchange-correlation= VDW-DF2
                           (   1   4  13   0   2   0   0)
     Any further DFT definition will be discarded
     Please, verify this is what you really want


     K-points division:     npool     =       4
     R & G space division:  proc/nbgrp/npool/nimage =      32
     Subspace diagonalization in iterative solution of the eigenvalue problem:
     a serial algorithm will be used


     Parallelization info
     --------------------
     sticks:   dense  smooth     PW     G-vecs:    dense   smooth      PW
     Min         194     194     56                 8445     8445    1330
     Max         195     195     57                 8448     8448    1331
     Sum        6227    6227   1819               270283   270283   42577

     Using Slab Decomposition



     bravais-lattice index     =            5
     lattice parameter (alat)  =      15.3637  a.u.
     unit-cell volume          =    2343.0231 (a.u.)^3
     number of atoms/cell      =           36
     number of atomic types    =            2
     number of electrons       =        96.00
     number of Kohn-Sham states=           48
     kinetic-energy cutoff     =      90.0000  Ry
     charge density cutoff     =     360.0000  Ry
     scf convergence threshold =      1.0E-07
     mixing beta               =       0.7000
     number of iterations used =            8  plain     mixing
     energy convergence thresh.=      1.0E-04
     force convergence thresh. =      1.0E-03
     Exchange-correlation= VDW-DF2
                           (   1   4  13   0   2   0   0)
     nstep                     =           50


     celldm(1)=  15.363661  celldm(2)=   0.000000  celldm(3)=   0.000000
     celldm(4)=  -0.392337  celldm(5)=   0.000000  celldm(6)=   0.000000

     crystal axes: (cart. coord. in units of alat)
               a(1) = (   0.834367  -0.481722   0.267909 )  
               a(2) = (   0.000000   0.963444   0.267909 )  
               a(3) = (  -0.834367  -0.481722   0.267909 )  

     reciprocal axes: (cart. coord. in units 2 pi/alat)
               b(1) = (  0.599257 -0.345981  1.244203 )  
               b(2) = (  0.000000  0.691962  1.244203 )  
               b(3) = ( -0.599257 -0.345981  1.244203 )  


     PseudoPot. # 1 for H  read from file:
     ./H.pbe-van_ak.UPF
     MD5 check sum: 077eb6d537518a38cb46c6de387227b7
     Pseudo is Ultrasoft, Zval =  1.0
     Generated by new atomic code, or converted to UPF format
     Using radial grid of  615 points,  1 beta functions with: 
                l(1) =   0
     Q(r) pseudized with  8 coefficients,  rinner =    0.800

     PseudoPot. # 2 for O  read from file:
     ./O.pbe-van_ak.UPF
     MD5 check sum: 78c19812648e8988a0fe644b0f25305e
     Pseudo is Ultrasoft, Zval =  6.0
     Generated by new atomic code, or converted to UPF format
     Using radial grid of  737 points,  4 beta functions with: 
                l(1) =   0
                l(2) =   0
                l(3) =   1
                l(4) =   1
     Q(r) pseudized with  8 coefficients,  rinner =    0.800   0.800   0.800


     atomic species   valence    mass     pseudopotential
     H                 1.00     1.00800     H ( 1.00)
     O                 6.00    16.00000     O ( 1.00)

      6 Sym. Ops., with inversion, found



   Cartesian axes

     site n.     atom                  positions (alat units)
         1        O      tau(   1) = (  -0.4847673  -0.5197781   0.3083633  )
         2        O      tau(   2) = (   0.4847673   0.5197782   0.4953638  )
         3        O      tau(   3) = (   0.6925247  -0.1599317   0.3083633  )
         4        O      tau(   4) = (  -0.6925248   0.1599317   0.4953638  )
         5        O      tau(   5) = (  -0.2077574   0.6797099   0.3083633  )
         6        O      tau(   6) = (   0.2077574  -0.6797099   0.4953638  )
         7        O      tau(   7) = (   0.1218176   0.3323883   0.4179381  )
         8        O      tau(   8) = (  -0.1218176  -0.3323883   0.3857890  )
         9        O      tau(   9) = (  -0.3487655  -0.0606970   0.4179381  )
        10        O      tau(  10) = (   0.3487655   0.0606970   0.3857890  )
        11        O      tau(  11) = (   0.2269479  -0.2716913   0.4179381  )
        12        O      tau(  12) = (  -0.2269479   0.2716912   0.3857890  )
        13        H      tau(  13) = (  -0.5381668  -0.4032014   0.2796970  )
        14        H      tau(  14) = (   0.5381668   0.4032014   0.5240301  )
        15        H      tau(  15) = (   0.6182661  -0.2644654   0.2796970  )
        16        H      tau(  16) = (  -0.6182661   0.2644654   0.5240301  )
        17        H      tau(  17) = (  -0.0800993   0.6676668   0.2796970  )
        18        H      tau(  18) = (   0.0800993  -0.6676668   0.5240301  )
        19        H      tau(  19) = (  -0.4872704  -0.4817221   0.4326731  )
        20        H      tau(  20) = (   0.4872704   0.4817221   0.3710540  )
        21        H      tau(  21) = (   0.6608188  -0.1811275   0.4326731  )
        22        H      tau(  22) = (  -0.6608188   0.1811275   0.3710540  )
        23        H      tau(  23) = (  -0.1735484   0.6628496   0.4326731  )
        24        H      tau(  24) = (   0.1735484  -0.6628496   0.3710540  )
        25        H      tau(  25) = (   0.2703349  -0.1502973   0.4058822  )
        26        H      tau(  26) = (  -0.2703350   0.1502973   0.3978449  )
        27        H      tau(  27) = (  -0.0050062   0.3092656   0.4058822  )
        28        H      tau(  28) = (   0.0050062  -0.3092656   0.3978449  )
        29        H      tau(  29) = (  -0.2653287  -0.1589683   0.4058822  )
        30        H      tau(  30) = (   0.2653287   0.1589683   0.3978449  )
        31        H      tau(  31) = (   0.3178939  -0.3347969   0.3493534  )
        32        H      tau(  32) = (  -0.3178939   0.3347969   0.4543737  )
        33        H      tau(  33) = (   0.1309957   0.4427026   0.3493534  )
        34        H      tau(  34) = (  -0.1309956  -0.4427026   0.4543737  )
        35        H      tau(  35) = (  -0.4488895  -0.1079057   0.3493534  )
        36        H      tau(  36) = (   0.4488895   0.1079057   0.4543737  )

     number of k points=    14
                       cart. coord. in units 2pi/alat
        k(    1) = (   0.0000000   0.0000000   0.0000000), wk =   0.0312500
        k(    2) = (  -0.1498141  -0.0864952   0.3110508), wk =   0.1875000
        k(    3) = (   0.2996283   0.1729905  -0.6221017), wk =   0.0937500
        k(    4) = (  -0.1498141   0.0864952   0.6221017), wk =   0.1875000
        k(    5) = (   0.2996283   0.3459809  -0.3110508), wk =   0.1875000
        k(    6) = (   0.1498141   0.2594857   0.0000000), wk =   0.1875000
        k(    7) = (   0.2996283  -0.1729905  -1.2442034), wk =   0.0937500
        k(    8) = (   0.0000000   0.0000000   0.9331525), wk =   0.0625000
        k(    9) = (   0.4494424   0.2594857   0.0000000), wk =   0.1875000
        k(   10) = (   0.2996283   0.1729905   0.3110508), wk =   0.1875000
        k(   11) = (   0.4494424  -0.2594857  -0.9331525), wk =   0.1875000
        k(   12) = (   0.2996283  -0.3459809  -0.6221017), wk =   0.1875000
        k(   13) = (   0.0000000   0.0000000  -1.8663050), wk =   0.0312500
        k(   14) = (   0.2996283  -0.3459809   0.3110508), wk =   0.1875000

     Dense  grid:   270283 G-vectors     FFT dimensions: (  96,  96,  96)

     Estimated max dynamical RAM per process >      17.48 MB

     Estimated total dynamical RAM >       1.99 GB

     Initial potential from superposition of free atoms

     starting charge      95.9998, renormalised to      96.0000


     %%%%%%%%%%%%%%%%%%%%%%%%%%%%%%%%%%%%%%%%%%%%%%%%%%%%%%%%%%%%%%%%%%%%%%%%
     %                                                                      %
     % You are using vdW-DF, which was implemented by the Thonhauser group. %
     % Please cite the following two papers that made this development      %
     % possible and the two reviews that describe the various versions:     %
     %                                                                      %
     %   T. Thonhauser et al., PRL 115, 136402 (2015).                      %
     %   T. Thonhauser et al., PRB 76, 125112 (2007).                       %
     %   K. Berland et al., Rep. Prog. Phys. 78, 066501 (2015).             %
     %   D.C. Langreth et al., J. Phys.: Condens. Matter 21, 084203 (2009). %
     %                                                                      %
     % If you are calculating stress with vdW-DF, please also cite:         %
     %                                                                      %
     %   R. Sabatini et al., J. Phys.: Condens. Matter 24, 424209 (2012).   %
     %                                                                      %
     %%%%%%%%%%%%%%%%%%%%%%%%%%%%%%%%%%%%%%%%%%%%%%%%%%%%%%%%%%%%%%%%%%%%%%%%

     %%%%%%%%%%%%%%%%%%%%%%%%%%%%%%%%%%%%%%%%%%%%%%%%%%%%%%%%%%%%%%%%%%%%%%%%
     %                                                                      %
     %  vdW-DF NEWS:                                                        %
     %                                                                      %
     %  * vdW-DF3 is now available. DOI: 10.1021/acs.jctc.0c00471           %
     %    use with input_dft = 'vdW-DF3-opt1' or 'vdW-DF3-opt2'             %
     %                                                                      %
     %  * Unscreened and range-separated hybrid vdW-DF-cx functionals       %
     %    DOI: 10.1063/1.4986522 and 10.1088/1361-648X/ac2ad2               %
     %    use with input_dft = 'vdW-DF-cx0'    and 'vdW-DF-ahcx'            %
     %  * Unscreened and range-separated hybrid vdW-DF2-b86r functionals    %
     %    DOI: 10.1063/1.4986522 and DOI: 10.1103/PhysRevX.12.041003        %
     %    use with input_dft = 'vdW-DF2-br0' and 'vdW-DF2-ahbr'             %
     %                                                                      %
     %%%%%%%%%%%%%%%%%%%%%%%%%%%%%%%%%%%%%%%%%%%%%%%%%%%%%%%%%%%%%%%%%%%%%%%%


     Starting wfcs are   72 randomized atomic wfcs

     total cpu time spent up to now is        3.3 secs

     per-process dynamical memory:    21.4 Mb

     Self-consistent Calculation

     iteration #  1     ecut=    90.00 Ry     beta= 0.70
     Davidson diagonalization with overlap
     ethr =  1.00E-02,  avg # of iterations =  2.0

     total cpu time spent up to now is        4.4 secs

     total energy              =    -415.81211417 Ry
     estimated scf accuracy    <       4.32701811 Ry

     iteration #  2     ecut=    90.00 Ry     beta= 0.70
     Davidson diagonalization with overlap
     ethr =  4.51E-03,  avg # of iterations =  3.0

     total cpu time spent up to now is        5.7 secs

     total energy              =    -417.19720824 Ry
     estimated scf accuracy    <       3.84309100 Ry

     iteration #  3     ecut=    90.00 Ry     beta= 0.70
     Davidson diagonalization with overlap
     ethr =  4.00E-03,  avg # of iterations =  2.0

     total cpu time spent up to now is        6.8 secs

     total energy              =    -417.67639520 Ry
     estimated scf accuracy    <       0.19587492 Ry

     iteration #  4     ecut=    90.00 Ry     beta= 0.70
     Davidson diagonalization with overlap
     ethr =  2.04E-04,  avg # of iterations =  4.0

     total cpu time spent up to now is        8.2 secs

     total energy              =    -417.82392963 Ry
     estimated scf accuracy    <       0.19722809 Ry

     iteration #  5     ecut=    90.00 Ry     beta= 0.70
     Davidson diagonalization with overlap
     ethr =  2.04E-04,  avg # of iterations =  1.0

     negative rho (up, down):  3.081E-07 0.000E+00

     total cpu time spent up to now is        9.1 secs

     total energy              =    -417.82400218 Ry
     estimated scf accuracy    <       0.03650279 Ry

     iteration #  6     ecut=    90.00 Ry     beta= 0.70
     Davidson diagonalization with overlap
     ethr =  3.80E-05,  avg # of iterations =  2.0

     negative rho (up, down):  4.180E-07 0.000E+00

     total cpu time spent up to now is       10.1 secs

     total energy              =    -417.83010454 Ry
     estimated scf accuracy    <       0.00219765 Ry

     iteration #  7     ecut=    90.00 Ry     beta= 0.70
     Davidson diagonalization with overlap
     ethr =  2.29E-06,  avg # of iterations =  2.0

     negative rho (up, down):  4.365E-07 0.000E+00

     total cpu time spent up to now is       11.3 secs

     total energy              =    -417.83071773 Ry
     estimated scf accuracy    <       0.00013127 Ry

     iteration #  8     ecut=    90.00 Ry     beta= 0.70
     Davidson diagonalization with overlap
     ethr =  1.37E-07,  avg # of iterations =  4.8

     negative rho (up, down):  4.271E-07 0.000E+00

     total cpu time spent up to now is       12.6 secs

     total energy              =    -417.83082306 Ry
     estimated scf accuracy    <       0.00020214 Ry

     iteration #  9     ecut=    90.00 Ry     beta= 0.70
     Davidson diagonalization with overlap
     ethr =  1.37E-07,  avg # of iterations =  2.0

     negative rho (up, down):  3.800E-07 0.000E+00

     total cpu time spent up to now is       13.6 secs

     total energy              =    -417.83069906 Ry
     estimated scf accuracy    <       0.00034924 Ry

     iteration # 10     ecut=    90.00 Ry     beta= 0.70
     Davidson diagonalization with overlap
     ethr =  1.37E-07,  avg # of iterations =  2.0

     negative rho (up, down):  3.547E-07 0.000E+00

     total cpu time spent up to now is       14.8 secs

     total energy              =    -417.83070671 Ry
     estimated scf accuracy    <       0.00004157 Ry

     iteration # 11     ecut=    90.00 Ry     beta= 0.70
     Davidson diagonalization with overlap
     ethr =  4.33E-08,  avg # of iterations =  4.5

     negative rho (up, down):  3.613E-07 0.000E+00

     total cpu time spent up to now is       16.2 secs

     total energy              =    -417.83073326 Ry
     estimated scf accuracy    <       0.00002225 Ry

     iteration # 12     ecut=    90.00 Ry     beta= 0.70
     Davidson diagonalization with overlap
     ethr =  2.32E-08,  avg # of iterations =  1.0

     negative rho (up, down):  3.696E-07 0.000E+00

     total cpu time spent up to now is       17.0 secs

     total energy              =    -417.83073115 Ry
     estimated scf accuracy    <       0.00001317 Ry

     iteration # 13     ecut=    90.00 Ry     beta= 0.70
     Davidson diagonalization with overlap
     ethr =  1.37E-08,  avg # of iterations =  2.0

     negative rho (up, down):  3.746E-07 0.000E+00

     total cpu time spent up to now is       17.9 secs

     total energy              =    -417.83073043 Ry
     estimated scf accuracy    <       0.00000538 Ry

     iteration # 14     ecut=    90.00 Ry     beta= 0.70
     Davidson diagonalization with overlap
     ethr =  5.61E-09,  avg # of iterations =  1.0

     negative rho (up, down):  3.790E-07 0.000E+00

     total cpu time spent up to now is       18.8 secs

     total energy              =    -417.83073013 Ry
     estimated scf accuracy    <       0.00000190 Ry

     iteration # 15     ecut=    90.00 Ry     beta= 0.70
     Davidson diagonalization with overlap
     ethr =  1.98E-09,  avg # of iterations =  2.0

     negative rho (up, down):  3.820E-07 0.000E+00

     total cpu time spent up to now is       19.7 secs

     total energy              =    -417.83073014 Ry
     estimated scf accuracy    <       0.00000035 Ry

     iteration # 16     ecut=    90.00 Ry     beta= 0.70
     Davidson diagonalization with overlap
     ethr =  3.66E-10,  avg # of iterations =  2.7

     negative rho (up, down):  3.805E-07 0.000E+00

     total cpu time spent up to now is       20.9 secs

     End of self-consistent calculation

          k = 0.0000 0.0000 0.0000 ( 33829 PWs)   bands (ev):

   -21.2298 -20.8752 -20.8752 -20.6987 -20.6987 -20.6742 -20.6742 -20.6675
   -20.6629 -20.4290 -20.4290 -20.1841  -8.7147  -8.5410  -8.4773  -8.4773
    -8.4297  -8.4297  -8.0107  -7.8840  -7.8840  -7.6833  -7.6833  -7.5701
    -7.5137  -6.7611  -6.7611  -6.2477  -6.2477  -6.1511  -6.1511  -5.9096
    -5.7420  -5.1497  -5.1497  -4.5324  -3.7118  -3.7118  -3.6289  -3.5518
    -3.5141  -3.5141  -3.3871  -3.3871  -3.3855  -3.3698  -3.3259  -3.3259

          k =-0.1498-0.0865 0.3111 ( 33788 PWs)   bands (ev):

   -21.1718 -20.9078 -20.8666 -20.8112 -20.7898 -20.7334 -20.6227 -20.5882
   -20.5464 -20.4332 -20.4007 -20.2309  -8.6677  -8.5947  -8.5255  -8.4899
    -8.4091  -8.3533  -8.0036  -7.8512  -7.8424  -7.7144  -7.6100  -7.5739
    -7.4077  -6.8871  -6.7773  -6.5306  -6.2346  -6.1405  -6.0008  -5.8053
    -5.7504  -5.1435  -5.0852  -4.6601  -3.8066  -3.7457  -3.6477  -3.5922
    -3.5463  -3.5212  -3.4824  -3.4230  -3.3734  -3.3340  -3.3117  -3.2711

          k = 0.2996 0.1730-0.6221 ( 33728 PWs)   bands (ev):

   -21.0257 -21.0186 -20.8875 -20.8863 -20.7898 -20.7882 -20.5758 -20.5745
   -20.4387 -20.4346 -20.3476 -20.3398  -8.6464  -8.5968  -8.5201  -8.5020
    -8.4090  -8.3560  -7.9563  -7.8524  -7.8171  -7.7226  -7.5410  -7.5394
    -7.2083  -7.0820  -6.8250  -6.6718  -6.2468  -6.1712  -6.0037  -5.8614
    -5.3878  -5.2583  -5.0288  -4.8193  -3.8923  -3.7616  -3.6677  -3.6403
    -3.5798  -3.5649  -3.4866  -3.4394  -3.4131  -3.3050  -3.2948  -3.2317

          k =-0.1498 0.0865 0.6221 ( 33766 PWs)   bands (ev):

   -21.0552 -20.9488 -20.9431 -20.8506 -20.8307 -20.7788 -20.5833 -20.5200
   -20.4927 -20.4007 -20.3859 -20.3170  -8.6533  -8.5746  -8.5607  -8.4628
    -8.4258  -8.3466  -7.9600  -7.8809  -7.8380  -7.6390  -7.5814  -7.5352
    -7.2123  -7.0245  -6.9424  -6.5286  -6.3748  -6.2118  -5.9337  -5.7519
    -5.5597  -5.1120  -5.0907  -4.8265  -3.8745  -3.7962  -3.6579  -3.6196
    -3.5900  -3.5449  -3.5100  -3.4347  -3.4087  -3.3131  -3.2971  -3.2270

          k = 0.2996 0.3460-0.3111 ( 33782 PWs)   bands (ev):

   -21.0956 -20.9736 -20.8976 -20.8669 -20.8120 -20.7540 -20.5879 -20.5077
   -20.4957 -20.4333 -20.3813 -20.2968  -8.6575  -8.6392  -8.5041  -8.4821
    -8.4325  -8.3493  -7.9838  -7.9345  -7.8249  -7.6117  -7.5838  -7.5273
    -7.3186  -7.0619  -6.8508  -6.5348  -6.5126  -6.0780  -5.9097  -5.6669
    -5.4634  -5.2536  -5.0662  -4.8053  -3.8037  -3.7425  -3.6715  -3.6093
    -3.5625  -3.5207  -3.4671  -3.4600  -3.3908  -3.3517  -3.3009  -3.2171

          k = 0.1498 0.2595 0.0000 ( 33823 PWs)   bands (ev):

   -21.1876 -20.9304 -20.8881 -20.7880 -20.7654 -20.7009 -20.6381 -20.5814
   -20.5498 -20.4368 -20.4102 -20.2213  -8.7007  -8.6046  -8.5185  -8.4869
    -8.3840  -8.3782  -8.0443  -7.9314  -7.7697  -7.6881  -7.6376  -7.5425
    -7.5145  -6.8777  -6.7627  -6.5182  -6.4158  -6.0254  -5.9091  -5.7866
    -5.6241  -5.2131  -5.1247  -4.6253  -3.7116  -3.6973  -3.6574  -3.5782
    -3.5440  -3.5211  -3.4272  -3.4097  -3.3870  -3.3746  -3.2893  -3.2778

          k = 0.2996-0.1730-1.2442 ( 33808 PWs)   bands (ev):

   -21.0858 -21.0584 -20.8975 -20.8294 -20.7635 -20.7230 -20.5928 -20.5702
   -20.4770 -20.4645 -20.3233 -20.3123  -8.6801  -8.6490  -8.5329  -8.5041
    -8.3574  -8.3561  -8.0371  -7.9819  -7.7476  -7.7118  -7.5569  -7.5221
    -7.2704  -7.2267  -6.8201  -6.6149  -6.3338  -6.1404  -5.8070  -5.5613
    -5.4739  -5.3798  -4.9901  -4.8202  -3.7220  -3.6831  -3.6749  -3.6092
    -3.5426  -3.5021  -3.4782  -3.4202  -3.4097  -3.3730  -3.2613  -3.2470

          k = 0.0000 0.0000 0.9332 ( 33780 PWs)   bands (ev):

   -21.0112 -21.0112 -20.9499 -20.9172 -20.7807 -20.7807 -20.5281 -20.5281
   -20.4250 -20.4106 -20.3798 -20.3798  -8.6393  -8.6393  -8.5222  -8.4310
    -8.4310  -8.4124  -7.9911  -7.9055  -7.9055  -7.5335  -7.5335  -7.5019
    -7.1521  -7.1411  -7.1411  -6.5555  -6.3050  -6.3050  -5.7275  -5.5440
    -5.5440  -5.1257  -5.1257  -4.9648  -3.7553  -3.7553  -3.6525  -3.6047
    -3.5375  -3.5375  -3.4964  -3.4365  -3.4365  -3.3380  -3.3380  -3.1974

          k = 0.4494 0.2595 0.0000 ( 33765 PWs)   bands (ev):

   -21.1097 -20.9791 -20.9761 -20.8311 -20.7212 -20.7162 -20.6077 -20.6006
   -20.4777 -20.4076 -20.3824 -20.2885  -8.6771  -8.6375  -8.5819  -8.4481
    -8.3965  -8.3382  -8.0526  -7.9403  -7.8268  -7.6222  -7.5815  -7.5377
    -7.3560  -7.0306  -6.9606  -6.5681  -6.3591  -6.1319  -5.7242  -5.6903
    -5.5115  -5.2191  -5.0885  -4.7954  -3.7082  -3.7020  -3.6657  -3.6122
    -3.5587  -3.5107  -3.4516  -3.4320  -3.3914  -3.3542  -3.3034  -3.2321

          k = 0.2996 0.1730 0.3111 ( 33760 PWs)   bands (ev):

   -21.1326 -20.9416 -20.8754 -20.8583 -20.7906 -20.7458 -20.5989 -20.5717
   -20.5208 -20.4225 -20.3833 -20.2607  -8.6769  -8.6235  -8.5499  -8.4441
    -8.4365  -8.3118  -8.0143  -7.9090  -7.7503  -7.6891  -7.6500  -7.5680
    -7.3419  -6.8940  -6.7455  -6.6591  -6.4437  -6.1574  -5.8962  -5.7195
    -5.5607  -5.2127  -5.0715  -4.7034  -3.8202  -3.7500  -3.6890  -3.6374
    -3.5587  -3.5247  -3.4610  -3.4329  -3.3645  -3.3281  -3.2787  -3.2614

          k = 0.4494-0.2595-0.9332 ( 33783 PWs)   bands (ev):

   -21.0317 -21.0297 -20.9217 -20.8866 -20.7820 -20.7207 -20.6297 -20.5620
   -20.4529 -20.4081 -20.3699 -20.3071  -8.7013  -8.6147  -8.5778  -8.4489
    -8.4082  -8.2935  -8.0499  -7.8670  -7.7665  -7.7171  -7.5970  -7.5746
    -7.1241  -7.0842  -6.8072  -6.6676  -6.5015  -6.2351  -5.8592  -5.6072
    -5.3171  -5.3072  -5.1155  -4.7621  -3.8242  -3.7652  -3.7343  -3.6358
    -3.6068  -3.5389  -3.4194  -3.3999  -3.3761  -3.3398  -3.2799  -3.2317

          k = 0.2996-0.3460-0.6221 ( 33786 PWs)   bands (ev):

   -20.9990 -20.9928 -20.9131 -20.9106 -20.8048 -20.8034 -20.5636 -20.5616
   -20.4416 -20.4374 -20.3416 -20.3370  -8.7139  -8.5412  -8.5138  -8.4963
    -8.4658  -8.2980  -7.9826  -7.8760  -7.7513  -7.7085  -7.5805  -7.5755
    -7.0934  -6.9756  -6.8377  -6.7183  -6.4363  -6.4011  -5.7897  -5.7226
    -5.3273  -5.2847  -5.1391  -4.7487  -3.9209  -3.7772  -3.7334  -3.6710
    -3.6268  -3.5145  -3.4563  -3.4219  -3.4060  -3.2992  -3.2846  -3.2169

          k = 0.0000 0.0000-1.8663 ( 33846 PWs)   bands (ev):

   -20.9718 -20.9692 -20.8889 -20.8889 -20.8755 -20.8755 -20.5017 -20.5017
   -20.4875 -20.4875 -20.3296 -20.3285  -8.7548  -8.5103  -8.5103  -8.4895
    -8.4895  -8.2698  -8.0236  -7.8713  -7.6710  -7.6710  -7.6388  -7.6388
    -6.9487  -6.7656  -6.7435  -6.7435  -6.7061  -6.7061  -5.5994  -5.5994
    -5.3508  -5.3508  -5.1747  -4.7020  -3.9489  -3.7774  -3.7774  -3.6989
    -3.6989  -3.4709  -3.4492  -3.3723  -3.3723  -3.3102  -3.3102  -3.1955

          k = 0.2996-0.3460 0.3111 ( 33782 PWs)   bands (ev):

   -21.0954 -20.9751 -20.8934 -20.8708 -20.8101 -20.7546 -20.5876 -20.5136
   -20.4901 -20.4353 -20.3786 -20.2978  -8.6730  -8.6079  -8.5341  -8.4845
    -8.4039  -8.3571  -8.0228  -7.9076  -7.8039  -7.6443  -7.5532  -7.5453
    -7.3142  -7.0013  -6.9316  -6.5921  -6.3691  -6.1334  -5.9815  -5.5937
    -5.4486  -5.2346  -5.1267  -4.7882  -3.8101  -3.7191  -3.6866  -3.6037
    -3.5672  -3.5269  -3.4644  -3.4615  -3.4069  -3.3260  -3.3015  -3.2241

     highest occupied level (ev):    -3.1955

!    total energy              =    -417.83073027 Ry
     estimated scf accuracy    <       0.00000001 Ry

     The total energy is the sum of the following terms:
     one-electron contribution =    -306.91226383 Ry
     hartree contribution      =     186.42586103 Ry
     xc contribution           =    -104.47868904 Ry
     ewald contribution        =    -192.86563843 Ry

     convergence has been achieved in  16 iterations

     Forces acting on atoms (cartesian axes, Ry/au):

     atom    1 type  2   force =    -0.05396066    0.12535275    0.07268249
     atom    2 type  2   force =     0.05396066   -0.12535275   -0.07268249
     atom    3 type  2   force =    -0.08157834   -0.10940768    0.07268249
     atom    4 type  2   force =     0.08157834    0.10940768   -0.07268249
     atom    5 type  2   force =     0.13553900   -0.01594507    0.07268249
     atom    6 type  2   force =    -0.13553900    0.01594507   -0.07268249
     atom    7 type  2   force =    -0.08022838    0.05914522   -0.05409880
     atom    8 type  2   force =     0.08022838   -0.05914522    0.05409880
     atom    9 type  2   force =    -0.01110707   -0.09905242   -0.05409880
     atom   10 type  2   force =     0.01110707    0.09905242    0.05409880
     atom   11 type  2   force =     0.09133545    0.03990721   -0.05409880
     atom   12 type  2   force =    -0.09133545   -0.03990721    0.05409880
     atom   13 type  1   force =     0.02633548   -0.07423891   -0.03287679
     atom   14 type  1   force =    -0.02633548    0.07423891    0.03287679
     atom   15 type  1   force =     0.05112504    0.05992665   -0.03287679
     atom   16 type  1   force =    -0.05112504   -0.05992665    0.03287679
     atom   17 type  1   force =    -0.07746052    0.01431226   -0.03287679
     atom   18 type  1   force =     0.07746052   -0.01431226    0.03287679
     atom   19 type  1   force =     0.02751781   -0.05703306   -0.04878819
     atom   20 type  1   force =    -0.02751781    0.05703306    0.04878819
     atom   21 type  1   force =     0.03563317    0.05234765   -0.04878819
     atom   22 type  1   force =    -0.03563317   -0.05234765    0.04878819
     atom   23 type  1   force =    -0.06315098    0.00468541   -0.04878819
     atom   24 type  1   force =     0.06315098   -0.00468541    0.04878819
     atom   25 type  1   force =    -0.03091633   -0.06096171    0.01582577
     atom   26 type  1   force =     0.03091633    0.06096171   -0.01582577
     atom   27 type  1   force =     0.06825255    0.00370652    0.01582577
     atom   28 type  1   force =    -0.06825255   -0.00370652   -0.01582577
     atom   29 type  1   force =    -0.03733622    0.05725518    0.01582577
     atom   30 type  1   force =     0.03733622   -0.05725518   -0.01582577
     atom   31 type  1   force =    -0.06617680    0.02275031    0.04524927
     atom   32 type  1   force =     0.06617680   -0.02275031   -0.04524927
     atom   33 type  1   force =     0.01338605   -0.06868594    0.04524927
     atom   34 type  1   force =    -0.01338605    0.06868594   -0.04524927
     atom   35 type  1   force =     0.05279075    0.04593563    0.04524927
     atom   36 type  1   force =    -0.05279075   -0.04593563   -0.04524927

     Total force =     0.611453     Total SCF correction =     0.000108


     Computing stress (Cartesian axis) and pressure

          total   stress  (Ry/bohr**3)                   (kbar)     P=      -93.22
  -0.00071115  -0.00000000   0.00000000         -104.61       -0.00        0.00
   0.00000000  -0.00071115  -0.00000000            0.00     -104.61       -0.00
  -0.00000000  -0.00000000  -0.00047874           -0.00       -0.00      -70.43


     BFGS Geometry Optimization
     Energy error            =      0.0E+00 Ry
     Gradient error          =      1.4E-01 Ry/Bohr

     number of scf cycles    =   1
     number of bfgs steps    =   0

     energy             new  =    -417.8307302711 Ry

     new trust radius        =       0.1546215063 bohr
     new conv_thr            =       0.0000001000 Ry


ATOMIC_POSITIONS (crystal)
O                0.2739584877        0.0355318295        0.8591679078
O                0.7260415123        0.9644681815        0.1408320622
O                0.8591679078        0.2739584877        0.0355318295
O                0.1408320622        0.7260415123        0.9644681815
O                0.0355318295        0.8591679078        0.2739584877
O                0.9644681815        0.1408320622        0.7260415123
O                0.4691576654        0.7482827226        0.3294162514
O                0.5308423346        0.2517172774        0.6705837186
O                0.3294162514        0.4691576654        0.7482827226
O                0.6705837186        0.5308423346        0.2517172774
O                0.7482827226        0.3294162514        0.4691576654
O                0.2517172774        0.6705837186        0.5308423346
H                0.1650365573        0.0629938840        0.8079821323
H                0.8349634287        0.9370061080        0.1920178677
H                0.8079821323        0.1650365573        0.0629938840
H                0.1920178677        0.8349634287        0.9370061080
H                0.0629938840        0.8079821323        0.1650365573
H                0.9370061080        0.1920178677        0.8349634287
H                0.4114066274        0.1984802543        0.9932599649
H                0.5885933726        0.8015197607        0.0067400141
H                0.9932599649        0.4114066274        0.1984802543
H                0.0067400141        0.5885933726        0.8015197607
H                0.1984802543        0.9932599649        0.4114066274
H                0.8015197607        0.0067400141        0.5885933726
H                0.7204485460        0.3995359733        0.3988603458
H                0.2795514540        0.6004639967        0.6011396842
H                0.3988603458        0.7204485460        0.3995359733
H                0.6011396842        0.2795514540        0.6004639967
H                0.3995359733        0.3988603458        0.7204485460
H                0.6004639967        0.6011396842        0.2795514540
H                0.7415709053        0.2076890875        0.3657333482
H                0.2584290947        0.7923108975        0.6342666518
H                0.3657333482        0.7415709053        0.2076890875
H                0.6342666518        0.2584290947        0.7923108975
H                0.2076890875        0.3657333482        0.7415709053
H                0.7923108975        0.6342666518        0.2584290947



     Writing config-only to output data dir ./iceII/iceII.save/ :
     XML data file
     NEW-OLD atomic charge density approx. for the potential

     negative rho (up, down):  5.760E-07 0.000E+00

     total cpu time spent up to now is       22.7 secs

     per-process dynamical memory:    21.0 Mb

     Self-consistent Calculation

     iteration #  1     ecut=    90.00 Ry     beta= 0.70
     Davidson diagonalization with overlap
     ethr =  1.00E-06,  avg # of iterations = 10.0

     negative rho (up, down):  6.350E-07 0.000E+00

     total cpu time spent up to now is       25.5 secs

     total energy              =    -417.96253788 Ry
     estimated scf accuracy    <       0.13894591 Ry

     iteration #  2     ecut=    90.00 Ry     beta= 0.70
     Davidson diagonalization with overlap
     ethr =  1.45E-04,  avg # of iterations =  3.0

     negative rho (up, down):  5.816E-07 0.000E+00

     total cpu time spent up to now is       26.8 secs

     total energy              =    -418.00045902 Ry
     estimated scf accuracy    <       0.07588398 Ry

     iteration #  3     ecut=    90.00 Ry     beta= 0.70
     Davidson diagonalization with overlap
     ethr =  7.90E-05,  avg # of iterations =  2.0

     negative rho (up, down):  5.857E-07 0.000E+00

     total cpu time spent up to now is       27.9 secs

     total energy              =    -418.01333478 Ry
     estimated scf accuracy    <       0.00178302 Ry

     iteration #  4     ecut=    90.00 Ry     beta= 0.70
     Davidson diagonalization with overlap
     ethr =  1.86E-06,  avg # of iterations =  4.2

     negative rho (up, down):  6.623E-07 0.000E+00

     total cpu time spent up to now is       29.4 secs

     total energy              =    -418.01474289 Ry
     estimated scf accuracy    <       0.00280798 Ry

     iteration #  5     ecut=    90.00 Ry     beta= 0.70
     Davidson diagonalization with overlap
     ethr =  1.86E-06,  avg # of iterations =  2.2

     negative rho (up, down):  6.981E-07 0.000E+00

     total cpu time spent up to now is       30.5 secs

     total energy              =    -418.01519107 Ry
     estimated scf accuracy    <       0.00004865 Ry

     iteration #  6     ecut=    90.00 Ry     beta= 0.70
     Davidson diagonalization with overlap
     ethr =  5.07E-08,  avg # of iterations =  5.0

     negative rho (up, down):  6.933E-07 0.000E+00

     total cpu time spent up to now is       32.1 secs

     total energy              =    -418.01523179 Ry
     estimated scf accuracy    <       0.00015858 Ry

     iteration #  7     ecut=    90.00 Ry     beta= 0.70
     Davidson diagonalization with overlap
     ethr =  5.07E-08,  avg # of iterations =  3.0

     negative rho (up, down):  6.814E-07 0.000E+00

     total cpu time spent up to now is       33.3 secs

     total energy              =    -418.01523893 Ry
     estimated scf accuracy    <       0.00001719 Ry

     iteration #  8     ecut=    90.00 Ry     beta= 0.70
     Davidson diagonalization with overlap
     ethr =  1.79E-08,  avg # of iterations =  3.0

     negative rho (up, down):  6.829E-07 0.000E+00

     total cpu time spent up to now is       34.5 secs

     total energy              =    -418.01524516 Ry
     estimated scf accuracy    <       0.00000036 Ry

     iteration #  9     ecut=    90.00 Ry     beta= 0.70
     Davidson diagonalization with overlap
     ethr =  3.75E-10,  avg # of iterations =  5.0

     negative rho (up, down):  6.837E-07 0.000E+00

     total cpu time spent up to now is       35.9 secs

     total energy              =    -418.01524534 Ry
     estimated scf accuracy    <       0.00000036 Ry

     iteration # 10     ecut=    90.00 Ry     beta= 0.70
     Davidson diagonalization with overlap
     ethr =  3.70E-10,  avg # of iterations =  1.0

     negative rho (up, down):  6.846E-07 0.000E+00

     total cpu time spent up to now is       36.8 secs

     total energy              =    -418.01524530 Ry
     estimated scf accuracy    <       0.00000013 Ry

     iteration # 11     ecut=    90.00 Ry     beta= 0.70
     Davidson diagonalization with overlap
     ethr =  1.38E-10,  avg # of iterations =  2.0

     negative rho (up, down):  6.855E-07 0.000E+00

     total cpu time spent up to now is       37.8 secs

     End of self-consistent calculation

          k = 0.0000 0.0000 0.0000 ( 33829 PWs)   bands (ev):

   -21.9311 -21.6436 -21.6436 -21.4642 -21.4642 -21.4409 -21.4375 -21.4375
   -21.4324 -21.2198 -21.2198 -21.0295  -9.5362  -9.3891  -9.3447  -9.3447
    -9.3133  -9.3133  -8.8886  -8.8886  -8.8013  -8.8013  -8.8003  -8.6920
    -7.4973  -6.6522  -6.6522  -6.0955  -6.0955  -6.0813  -6.0813  -5.8521
    -5.7958  -5.2015  -5.2015  -4.6425  -3.8840  -3.8840  -3.8768  -3.7023
    -3.7023  -3.6774  -3.5624  -3.5366  -3.5366  -3.5219  -3.4564  -3.4564

          k =-0.1498-0.0865 0.3111 ( 33788 PWs)   bands (ev):

   -21.8815 -21.6645 -21.6433 -21.5509 -21.5339 -21.5060 -21.3950 -21.3639
   -21.3368 -21.2264 -21.2004 -21.0649  -9.5058  -9.4039  -9.3691  -9.3645
    -9.3061  -9.2664  -8.8956  -8.8741  -8.8165  -8.7667  -8.7584  -8.7246
    -7.3565  -6.7694  -6.6856  -6.3906  -6.1849  -6.0179  -5.9335  -5.7520
    -5.6960  -5.2016  -5.1362  -4.7459  -3.9657  -3.9101  -3.8692  -3.7336
    -3.7238  -3.7024  -3.6444  -3.5734  -3.5165  -3.4812  -3.4543  -3.4155

          k = 0.2996 0.1730-0.6221 ( 33728 PWs)   bands (ev):

   -21.7767 -21.7291 -21.6664 -21.5983 -21.5658 -21.5385 -21.3690 -21.3319
   -21.2635 -21.2216 -21.1810 -21.1293  -9.4547  -9.4343  -9.3930  -9.3564
    -9.3042  -9.2530  -8.8849  -8.8595  -8.8034  -8.7927  -8.7299  -8.7203
    -7.0907  -6.9622  -6.7361  -6.5722  -6.1994  -6.1067  -5.8714  -5.7202
    -5.3996  -5.2682  -5.0830  -4.8907  -4.0365  -3.9228  -3.8507  -3.7998
    -3.7554  -3.7397  -3.6351  -3.5856  -3.5819  -3.4462  -3.4383  -3.3789

          k =-0.1498 0.0865 0.6221 ( 33766 PWs)   bands (ev):

   -21.7872 -21.6937 -21.6858 -21.5999 -21.5730 -21.5426 -21.3586 -21.3189
   -21.2817 -21.2102 -21.1956 -21.1239  -9.4567  -9.4242  -9.4110  -9.3365
    -9.3146  -9.2521  -8.8817  -8.8634  -8.8226  -8.7609  -8.7393  -8.7233
    -7.1180  -6.8681  -6.8435  -6.4605  -6.2875  -6.1512  -5.8090  -5.6585
    -5.5103  -5.1660  -5.1378  -4.8927  -4.0203  -3.9533  -3.8380  -3.8019
    -3.7643  -3.6943  -3.6724  -3.5946  -3.5599  -3.4514  -3.4435  -3.3746

          k = 0.2996 0.3460-0.3111 ( 33782 PWs)   bands (ev):

   -21.8180 -21.7268 -21.6566 -21.5949 -21.5503 -21.5204 -21.3606 -21.3341
   -21.2870 -21.2221 -21.1870 -21.1096  -9.4763  -9.4460  -9.3803  -9.3462
    -9.3077  -9.2460  -8.9308  -8.9082  -8.8464  -8.7477  -8.7210  -8.7086
    -7.1409  -6.9024  -6.6965  -6.4962  -6.4282  -6.0501  -5.7564  -5.6610
    -5.4725  -5.2662  -5.1115  -4.8641  -3.9679  -3.9124  -3.8606  -3.8037
    -3.7171  -3.6763  -3.6367  -3.6116  -3.5418  -3.4893  -3.4476  -3.3612

          k = 0.1498 0.2595 0.0000 ( 33823 PWs)   bands (ev):

   -21.8955 -21.6898 -21.6540 -21.5356 -21.5061 -21.4484 -21.4306 -21.3687
   -21.3543 -21.2253 -21.1990 -21.0568  -9.5188  -9.4164  -9.3680  -9.3634
    -9.2848  -9.2725  -8.9472  -8.9149  -8.8092  -8.7913  -8.7511  -8.6931
    -7.3640  -6.7334  -6.6402  -6.4215  -6.3133  -5.9879  -5.8548  -5.7113
    -5.6556  -5.2437  -5.1729  -4.7144  -3.8915  -3.8766  -3.8749  -3.7616
    -3.7046  -3.6788  -3.5806  -3.5614  -3.5547  -3.5145  -3.4284  -3.4177

          k = 0.2996-0.1730-1.2442 ( 33808 PWs)   bands (ev):

   -21.8061 -21.7951 -21.6632 -21.5654 -21.5171 -21.4553 -21.4114 -21.3509
   -21.3075 -21.2343 -21.1430 -21.1146  -9.4835  -9.4610  -9.3762  -9.3696
    -9.2663  -9.2490  -8.9855  -8.9382  -8.8178  -8.7856  -8.7115  -8.7025
    -7.0515  -7.0238  -6.6516  -6.5836  -6.2660  -6.1066  -5.7652  -5.5966
    -5.4652  -5.3667  -5.0394  -4.8686  -3.9029  -3.8714  -3.8674  -3.8060
    -3.7104  -3.6507  -3.6249  -3.5910  -3.5505  -3.5119  -3.4034  -3.3942

          k = 0.0000 0.0000 0.9332 ( 33780 PWs)   bands (ev):

   -21.7448 -21.7448 -21.7321 -21.6065 -21.5384 -21.5384 -21.3197 -21.3197
   -21.2898 -21.1857 -21.1857 -21.1621  -9.4533  -9.4533  -9.4141  -9.3013
    -9.3013  -9.2833  -8.9447  -8.8909  -8.8909  -8.7139  -8.7139  -8.6993
    -6.9391  -6.9385  -6.9385  -6.5045  -6.2766  -6.2766  -5.5879  -5.5431
    -5.5431  -5.1527  -5.1527  -5.0123  -3.9274  -3.9274  -3.8501  -3.8036
    -3.6958  -3.6958  -3.6625  -3.5875  -3.5875  -3.4718  -3.4718  -3.3400

          k = 0.4494 0.2595 0.0000 ( 33765 PWs)   bands (ev):

   -21.8302 -21.7300 -21.7204 -21.5479 -21.5060 -21.4708 -21.3941 -21.3697
   -21.3136 -21.2022 -21.1752 -21.1040  -9.4883  -9.4426  -9.4144  -9.3313
    -9.2919  -9.2373  -8.9944  -8.9119  -8.8581  -8.7463  -8.7279  -8.7020
    -7.1378  -6.8474  -6.7808  -6.5391  -6.2877  -6.0808  -5.7240  -5.6865
    -5.4964  -5.2268  -5.1268  -4.8508  -3.8945  -3.8803  -3.8625  -3.8102
    -3.7195  -3.6595  -3.6189  -3.5838  -3.5410  -3.4941  -3.4408  -3.3790

          k = 0.2996 0.1730 0.3111 ( 33760 PWs)   bands (ev):

   -21.8492 -21.6984 -21.6423 -21.5905 -21.5355 -21.5053 -21.3868 -21.3668
   -21.2881 -21.2394 -21.1806 -21.0846  -9.4917  -9.4227  -9.3879  -9.3521
    -9.3140  -9.2297  -8.9438  -8.8605  -8.8127  -8.7947  -8.7356  -8.7243
    -7.2375  -6.7918  -6.6651  -6.5272  -6.3269  -6.0432  -5.8620  -5.7006
    -5.5314  -5.2485  -5.1176  -4.7770  -3.9824  -3.9167  -3.8781  -3.7853
    -3.7399  -3.6850  -3.6320  -3.5798  -3.5088  -3.4853  -3.4249  -3.4105

          k = 0.4494-0.2595-0.9332 ( 33783 PWs)   bands (ev):

   -21.7751 -21.7593 -21.6781 -21.6025 -21.5378 -21.4965 -21.3962 -21.3574
   -21.2478 -21.2290 -21.1773 -21.1101  -9.4640  -9.4486  -9.4080  -9.3453
    -9.3086  -9.2052  -8.9730  -8.8713  -8.8120  -8.8001  -8.7291  -8.7214
    -7.0199  -6.9007  -6.6766  -6.6439  -6.3835  -6.0888  -5.8551  -5.6303
    -5.3184  -5.3095  -5.1441  -4.8204  -3.9905  -3.9292  -3.8978  -3.7966
    -3.7559  -3.7220  -3.5878  -3.5546  -3.5272  -3.4861  -3.4282  -3.3874

          k = 0.2996-0.3460-0.6221 ( 33786 PWs)   bands (ev):

   -21.7622 -21.7040 -21.6753 -21.6327 -21.5656 -21.5521 -21.3604 -21.3399
   -21.2386 -21.2231 -21.1975 -21.1194  -9.4674  -9.4108  -9.3915  -9.3571
    -9.3404  -9.2100  -8.9018  -8.8672  -8.7938  -8.7868  -8.7423  -8.7372
    -7.0109  -6.8743  -6.7281  -6.6576  -6.2950  -6.2515  -5.7422  -5.6732
    -5.3309  -5.2875  -5.1746  -4.8234  -4.0611  -3.9350  -3.8998  -3.8187
    -3.7926  -3.6584  -3.6397  -3.5841  -3.5630  -3.4467  -3.4376  -3.3691

          k = 0.0000 0.0000-1.8663 ( 33846 PWs)   bands (ev):

   -21.7506 -21.6659 -21.6659 -21.6472 -21.5961 -21.5961 -21.3314 -21.3314
   -21.2380 -21.2380 -21.1993 -21.1105  -9.4739  -9.3904  -9.3904  -9.3606
    -9.3606  -9.1824  -8.9166  -8.8752  -8.7758  -8.7758  -8.7618  -8.7618
    -6.9508  -6.8024  -6.5975  -6.5975  -6.5008  -6.5008  -5.5964  -5.5964
    -5.3423  -5.3423  -5.1923  -4.7778  -4.0858  -3.9315  -3.9315  -3.8390
    -3.8390  -3.6622  -3.6048  -3.5288  -3.5288  -3.4688  -3.4688  -3.3528

          k = 0.2996-0.3460 0.3111 ( 33782 PWs)   bands (ev):

   -21.8189 -21.7192 -21.6688 -21.5941 -21.5423 -21.5205 -21.3716 -21.3297
   -21.2754 -21.2385 -21.1768 -21.1116  -9.4818  -9.4299  -9.3887  -9.3612
    -9.2866  -9.2540  -8.9400  -8.9012  -8.8430  -8.7449  -8.7264  -8.7074
    -7.1482  -6.8316  -6.7928  -6.5230  -6.3099  -6.0994  -5.8565  -5.5623
    -5.4473  -5.2736  -5.1490  -4.8526  -3.9703  -3.9061  -3.8677  -3.7925
    -3.7151  -3.6839  -3.6288  -3.6267  -3.5528  -3.4638  -3.4510  -3.3674

     highest occupied level (ev):    -3.3400

!    total energy              =    -418.01524532 Ry
     estimated scf accuracy    <          7.8E-09 Ry

     The total energy is the sum of the following terms:
     one-electron contribution =    -320.77203323 Ry
     hartree contribution      =     192.70402546 Ry
     xc contribution           =    -105.94972006 Ry
     ewald contribution        =    -183.99751748 Ry

     convergence has been achieved in  11 iterations

     Forces acting on atoms (cartesian axes, Ry/au):

     atom    1 type  2   force =     0.00031578   -0.01141873   -0.00878355
     atom    2 type  2   force =    -0.00031578    0.01141873    0.00878355
     atom    3 type  2   force =     0.00973103    0.00598284   -0.00878355
     atom    4 type  2   force =    -0.00973103   -0.00598284    0.00878355
     atom    5 type  2   force =    -0.01004680    0.00543590   -0.00878355
     atom    6 type  2   force =     0.01004680   -0.00543590    0.00878355
     atom    7 type  2   force =     0.01087132   -0.01249040    0.00710580
     atom    8 type  2   force =    -0.01087132    0.01249040   -0.00710580
     atom    9 type  2   force =     0.00538134    0.01566004    0.00710580
     atom   10 type  2   force =    -0.00538134   -0.01566004   -0.00710580
     atom   11 type  2   force =    -0.01625266   -0.00316964    0.00710580
     atom   12 type  2   force =     0.01625266    0.00316964   -0.00710580
     atom   13 type  1   force =    -0.01623852    0.02205802   -0.03972866
     atom   14 type  1   force =     0.01623852   -0.02205802    0.03972866
     atom   15 type  1   force =    -0.01098355   -0.02509198   -0.03972866
     atom   16 type  1   force =     0.01098355    0.02509198    0.03972866
     atom   17 type  1   force =     0.02722206    0.00303396   -0.03972866
     atom   18 type  1   force =    -0.02722206   -0.00303396    0.03972866
     atom   19 type  1   force =     0.01862076   -0.01418426    0.04319827
     atom   20 type  1   force =    -0.01862076    0.01418426   -0.04319827
     atom   21 type  1   force =     0.00297355    0.02321818    0.04319827
     atom   22 type  1   force =    -0.00297355   -0.02321818   -0.04319827
     atom   23 type  1   force =    -0.02159431   -0.00903392    0.04319827
     atom   24 type  1   force =     0.02159431    0.00903392   -0.04319827
     atom   25 type  1   force =     0.00821165    0.01576470    0.00115683
     atom   26 type  1   force =    -0.00821165   -0.01576470   -0.00115683
     atom   27 type  1   force =    -0.01775846   -0.00077085    0.00115683
     atom   28 type  1   force =     0.01775846    0.00077085   -0.00115683
     atom   29 type  1   force =     0.00954681   -0.01499385    0.00115683
     atom   30 type  1   force =    -0.00954681    0.01499385   -0.00115683
     atom   31 type  1   force =     0.00582912   -0.01128271   -0.00623302
     atom   32 type  1   force =    -0.00582912    0.01128271    0.00623302
     atom   33 type  1   force =     0.00685655    0.01068952   -0.00623302
     atom   34 type  1   force =    -0.00685655   -0.01068952    0.00623302
     atom   35 type  1   force =    -0.01268567    0.00059319   -0.00623302
     atom   36 type  1   force =     0.01268567   -0.00059319    0.00623302

     Total force =     0.186425     Total SCF correction =     0.000051


     Computing stress (Cartesian axis) and pressure

          total   stress  (Ry/bohr**3)                   (kbar)     P=       11.59
   0.00002222   0.00000000   0.00000000            3.27        0.00        0.00
  -0.00000000   0.00002222   0.00000000           -0.00        3.27        0.00
   0.00000000   0.00000000   0.00019195            0.00        0.00       28.24

     Energy error            =      1.8E-01 Ry
     Gradient error          =      4.3E-02 Ry/Bohr

     number of scf cycles    =   2
     number of bfgs steps    =   1

     energy             old  =    -417.8307302711 Ry
     energy             new  =    -418.0152453184 Ry

     CASE: energy            _new < energy            _old

     new trust radius        =       0.0429867980 bohr
     new conv_thr            =       0.0000000432 Ry


ATOMIC_POSITIONS (crystal)
O                0.2736242500        0.0351486806        0.8590698042
O                0.7263757500        0.9648513304        0.1409301658
O                0.8590698042        0.2736242500        0.0351486806
O                0.1409301658        0.7263757500        0.9648513304
O                0.0351486806        0.8590698042        0.2736242500
O                0.9648513304        0.1409301658        0.7263757500
O                0.4697547378        0.7481889246        0.3296427068
O                0.5302452622        0.2518110754        0.6703572632
O                0.3296427068        0.4697547378        0.7481889246
O                0.6703572632        0.5302452622        0.2518110754
O                0.7481889246        0.3296427068        0.4697547378
O                0.2518110754        0.6703572632        0.5302452622
H                0.1611721338        0.0606477606        0.8051184315
H                0.8388278522        0.9393522314        0.1948815685
H                0.8051184315        0.1611721338        0.0606477606
H                0.1948815685        0.8388278522        0.9393522314
H                0.0606477606        0.8051184315        0.1611721338
H                0.9393522314        0.1948815685        0.8388278522
H                0.4153504627        0.2006238412        0.9957802626
H                0.5846495373        0.7993761738        0.0042197164
H                0.9957802626        0.4153504627        0.2006238412
H                0.0042197164        0.5846495373        0.7993761738
H                0.2006238412        0.9957802626        0.4153504627
H                0.7993761738        0.0042197164        0.5846495373
H                0.7205897887        0.4001610484        0.3985796917
H                0.2794102113        0.5998389216        0.6014203383
H                0.3985796917        0.7205897887        0.4001610484
H                0.6014203383        0.2794102113        0.5998389216
H                0.4001610484        0.3985796917        0.7205897887
H                0.5998389216        0.6014203383        0.2794102113
H                0.7415851545        0.2070756281        0.3656596232
H                0.2584148455        0.7929243569        0.6343403768
H                0.3656596232        0.7415851545        0.2070756281
H                0.6343403768        0.2584148455        0.7929243569
H                0.2070756281        0.3656596232        0.7415851545
H                0.7929243569        0.6343403768        0.2584148455



     Writing config-only to output data dir ./iceII/iceII.save/ :
     XML data file
     NEW-OLD atomic charge density approx. for the potential

     negative rho (up, down):  7.117E-07 0.000E+00

     total cpu time spent up to now is       39.6 secs

     per-process dynamical memory:    21.1 Mb

     Self-consistent Calculation

     iteration #  1     ecut=    90.00 Ry     beta= 0.70
     Davidson diagonalization with overlap
     ethr =  1.00E-06,  avg # of iterations =  4.6

     negative rho (up, down):  6.273E-07 0.000E+00

     total cpu time spent up to now is       41.2 secs

     total energy              =    -418.03351698 Ry
     estimated scf accuracy    <       0.00293732 Ry

     iteration #  2     ecut=    90.00 Ry     beta= 0.70
     Davidson diagonalization with overlap
     ethr =  3.06E-06,  avg # of iterations =  3.0

     negative rho (up, down):  6.493E-07 0.000E+00

     total cpu time spent up to now is       42.4 secs

     total energy              =    -418.03430336 Ry
     estimated scf accuracy    <       0.00142247 Ry

     iteration #  3     ecut=    90.00 Ry     beta= 0.70
     Davidson diagonalization with overlap
     ethr =  1.48E-06,  avg # of iterations =  2.0

     negative rho (up, down):  6.662E-07 0.000E+00

     total cpu time spent up to now is       43.4 secs

     total energy              =    -418.03453769 Ry
     estimated scf accuracy    <       0.00004033 Ry

     iteration #  4     ecut=    90.00 Ry     beta= 0.70
     Davidson diagonalization with overlap
     ethr =  4.20E-08,  avg # of iterations =  4.5

     negative rho (up, down):  6.597E-07 0.000E+00

     total cpu time spent up to now is       44.9 secs

     total energy              =    -418.03456934 Ry
     estimated scf accuracy    <       0.00005753 Ry

     iteration #  5     ecut=    90.00 Ry     beta= 0.70
     Davidson diagonalization with overlap
     ethr =  4.20E-08,  avg # of iterations =  2.0

     negative rho (up, down):  6.534E-07 0.000E+00

     total cpu time spent up to now is       45.9 secs

     total energy              =    -418.03456883 Ry
     estimated scf accuracy    <       0.00001040 Ry

     iteration #  6     ecut=    90.00 Ry     beta= 0.70
     Davidson diagonalization with overlap
     ethr =  1.08E-08,  avg # of iterations =  3.0

     negative rho (up, down):  6.547E-07 0.000E+00

     total cpu time spent up to now is       47.2 secs

     total energy              =    -418.03457320 Ry
     estimated scf accuracy    <       0.00000201 Ry

     iteration #  7     ecut=    90.00 Ry     beta= 0.70
     Davidson diagonalization with overlap
     ethr =  2.10E-09,  avg # of iterations =  2.0

     negative rho (up, down):  6.557E-07 0.000E+00

     total cpu time spent up to now is       48.2 secs

     total energy              =    -418.03457323 Ry
     estimated scf accuracy    <       0.00000043 Ry

     iteration #  8     ecut=    90.00 Ry     beta= 0.70
     Davidson diagonalization with overlap
     ethr =  4.48E-10,  avg # of iterations =  2.0

     negative rho (up, down):  6.563E-07 0.000E+00

     total cpu time spent up to now is       49.2 secs

     total energy              =    -418.03457327 Ry
     estimated scf accuracy    <       0.00000004 Ry

     iteration #  9     ecut=    90.00 Ry     beta= 0.70
     Davidson diagonalization with overlap
     ethr =  4.56E-11,  avg # of iterations =  3.7

     negative rho (up, down):  6.560E-07 0.000E+00

     total cpu time spent up to now is       50.5 secs

     End of self-consistent calculation

          k = 0.0000 0.0000 0.0000 ( 33829 PWs)   bands (ev):

   -21.7830 -21.4689 -21.4689 -21.3085 -21.3085 -21.2955 -21.2955 -21.2851
   -21.2709 -21.0706 -21.0706 -20.8745  -9.4618  -9.3176  -9.2695  -9.2695
    -9.2425  -9.2425  -8.8163  -8.8163  -8.7291  -8.7188  -8.7188  -8.6065
    -7.4673  -6.5594  -6.5594  -6.0918  -6.0918  -5.9993  -5.9993  -5.7573
    -5.7401  -5.1508  -5.1508  -4.5835  -3.8666  -3.8666  -3.8277  -3.6599
    -3.6599  -3.6321  -3.5429  -3.4996  -3.4828  -3.4828  -3.4368  -3.4368

          k =-0.1498-0.0865 0.3111 ( 33788 PWs)   bands (ev):

   -21.7312 -21.4946 -21.4613 -21.4098 -21.3915 -21.3429 -21.2432 -21.2122
   -21.1778 -21.0769 -21.0505 -20.9121  -9.4314  -9.3312  -9.2978  -9.2907
    -9.2343  -9.1934  -8.8217  -8.8012  -8.7350  -8.6892  -8.6749  -8.6424
    -7.3165  -6.6967  -6.5997  -6.3455  -6.1826  -5.9492  -5.8497  -5.6945
    -5.6069  -5.1490  -5.0864  -4.6983  -3.9444  -3.8921  -3.8248  -3.6963
    -3.6889  -3.6588  -3.6224  -3.5284  -3.4901  -3.4343  -3.4301  -3.3861

          k = 0.2996 0.1730-0.6221 ( 33728 PWs)   bands (ev):

   -21.6099 -21.5847 -21.4833 -21.4646 -21.4022 -21.3853 -21.2089 -21.1867
   -21.1025 -21.0696 -21.0174 -20.9927  -9.3804  -9.3609  -9.3202  -9.2857
    -9.2337  -9.1790  -8.8072  -8.7817  -8.7262  -8.7156  -8.6458  -8.6364
    -7.0187  -6.9180  -6.6571  -6.5485  -6.1620  -6.0887  -5.7559  -5.6259
    -5.3073  -5.2212  -5.0383  -4.8686  -4.0143  -3.9054  -3.8238  -3.7482
    -3.7167  -3.7070  -3.6049  -3.5727  -3.5342  -3.4184  -3.3913  -3.3476

          k =-0.1498 0.0865 0.6221 ( 33766 PWs)   bands (ev):

   -21.6285 -21.5317 -21.5241 -21.4448 -21.4261 -21.3830 -21.2070 -21.1545
   -21.1306 -21.0562 -21.0413 -20.9798  -9.3824  -9.3508  -9.3383  -9.2680
    -9.2413  -9.1786  -8.8040  -8.7858  -8.7477  -8.6799  -8.6567  -8.6394
    -7.0522  -6.8120  -6.7876  -6.4147  -6.2568  -6.1159  -5.7159  -5.5476
    -5.4347  -5.1166  -5.0883  -4.8709  -3.9999  -3.9309  -3.8134  -3.7445
    -3.7326  -3.6637  -3.6442  -3.5558  -3.5348  -3.4227  -3.3973  -3.3419

          k = 0.2996 0.3460-0.3111 ( 33782 PWs)   bands (ev):

   -21.6640 -21.5542 -21.4983 -21.4513 -21.4022 -21.3568 -21.2158 -21.1601
   -21.1082 -21.0983 -21.0305 -20.9643  -9.4020  -9.3725  -9.3068  -9.2722
    -9.2375  -9.1736  -8.8620  -8.8361  -8.7678  -8.6655  -8.6379  -8.6230
    -7.0937  -6.8310  -6.6254  -6.4472  -6.4113  -5.9928  -5.6405  -5.5790
    -5.4230  -5.2088  -5.0654  -4.8325  -3.9448  -3.8886  -3.8306  -3.7589
    -3.6768  -3.6403  -3.6008  -3.5804  -3.5235  -3.4621  -3.3993  -3.3281

          k = 0.1498 0.2595 0.0000 ( 33823 PWs)   bands (ev):

   -21.7455 -21.5202 -21.4827 -21.3847 -21.3621 -21.3074 -21.2631 -21.2141
   -21.1838 -21.0791 -21.0536 -20.9041  -9.4442  -9.3436  -9.2942  -9.2891
    -9.2125  -9.2010  -8.8806  -8.8434  -8.7326  -8.7088  -8.6698  -8.6075
    -7.3291  -6.6428  -6.5602  -6.3830  -6.2857  -5.9173  -5.7761  -5.6352
    -5.5998  -5.1951  -5.1282  -4.6602  -3.8658  -3.8562  -3.8397  -3.7186
    -3.6601  -3.6334  -3.5524  -3.5410  -3.5153  -3.4816  -3.3956  -3.3861

          k = 0.2996-0.1730-1.2442 ( 33808 PWs)   bands (ev):

   -21.6536 -21.6340 -21.4938 -21.4179 -21.3634 -21.3219 -21.2284 -21.1996
   -21.1256 -21.0996 -20.9908 -20.9713  -9.4091  -9.3866  -9.3022  -9.2961
    -9.1934  -9.1780  -8.9221  -8.8680  -8.7417  -8.7030  -8.6281  -8.6164
    -6.9919  -6.9817  -6.5787  -6.5391  -6.2227  -6.0244  -5.6685  -5.5355
    -5.3696  -5.3550  -4.9820  -4.8339  -3.8717  -3.8456  -3.8435  -3.7633
    -3.6638  -3.6084  -3.5929  -3.5642  -3.5220  -3.4874  -3.3703  -3.3543

          k = 0.0000 0.0000 0.9332 ( 33780 PWs)   bands (ev):

   -21.5875 -21.5875 -21.5522 -21.4868 -21.3777 -21.3777 -21.1650 -21.1650
   -21.0934 -21.0372 -21.0372 -21.0367  -9.3797  -9.3797  -9.3393  -9.2274
    -9.2274  -9.2161  -8.8780  -8.8157  -8.8157  -8.6304  -8.6304  -8.6113
    -6.8919  -6.8919  -6.8359  -6.5171  -6.2154  -6.2154  -5.4585  -5.4585
    -5.4497  -5.1153  -5.1153  -5.0072  -3.9033  -3.9033  -3.8165  -3.7741
    -3.6517  -3.6517  -3.6228  -3.5644  -3.5644  -3.4346  -3.4346  -3.3070

          k = 0.4494 0.2595 0.0000 ( 33765 PWs)   bands (ev):

   -21.6764 -21.5623 -21.5609 -21.4179 -21.3313 -21.3172 -21.2370 -21.2231
   -21.1288 -21.0579 -21.0308 -20.9566  -9.4137  -9.3688  -9.3399  -9.2578
    -9.2192  -9.1663  -8.9311  -8.8404  -8.7831  -8.6618  -8.6453  -8.6168
    -7.0924  -6.7708  -6.7256  -6.5184  -6.2131  -5.9934  -5.6619  -5.6315
    -5.3976  -5.1854  -5.0833  -4.8101  -3.8599  -3.8558  -3.8412  -3.7662
    -3.6770  -3.6230  -3.5808  -3.5557  -3.5078  -3.4686  -3.4130  -3.3378

          k = 0.2996 0.1730 0.3111 ( 33760 PWs)   bands (ev):

   -21.6965 -21.5270 -21.4678 -21.4536 -21.3839 -21.3534 -21.2213 -21.2071
   -21.1475 -21.0784 -21.0329 -20.9346  -9.4172  -9.3491  -9.3153  -9.2781
    -9.2431  -9.1567  -8.8750  -8.7861  -8.7311  -8.7163  -8.6526  -8.6417
    -7.1937  -6.7155  -6.6174  -6.4399  -6.3146  -5.9831  -5.7666  -5.6234
    -5.4958  -5.1762  -5.0700  -4.7352  -3.9620  -3.8886  -3.8447  -3.7461
    -3.6947  -3.6496  -3.6000  -3.5513  -3.4915  -3.4547  -3.3913  -3.3623

          k = 0.4494-0.2595-0.9332 ( 33783 PWs)   bands (ev):

   -21.6090 -21.6044 -21.5125 -21.4686 -21.3797 -21.3333 -21.2452 -21.1929
   -21.0943 -21.0695 -21.0289 -20.9654  -9.3898  -9.3742  -9.3341  -9.2725
    -9.2370  -9.1323  -8.9071  -8.7974  -8.7332  -8.7197  -8.6463  -8.6376
    -6.9591  -6.8530  -6.6406  -6.5741  -6.3233  -5.9984  -5.7994  -5.5704
    -5.2809  -5.2102  -5.0955  -4.7874  -3.9700  -3.8966  -3.8676  -3.7527
    -3.7152  -3.6841  -3.5606  -3.5267  -3.5108  -3.4630  -3.3942  -3.3314

          k = 0.2996-0.3460-0.6221 ( 33786 PWs)   bands (ev):

   -21.5876 -21.5599 -21.5019 -21.4958 -21.4071 -21.3988 -21.1958 -21.1843
   -21.0914 -21.0811 -21.0242 -20.9793  -9.3931  -9.3368  -9.3177  -9.2861
    -9.2692  -9.1370  -8.8260  -8.7922  -8.7150  -8.7082  -8.6593  -8.6544
    -6.9297  -6.8432  -6.6583  -6.6163  -6.2415  -6.2111  -5.6458  -5.5873
    -5.2868  -5.2460  -5.0888  -4.8022  -4.0396  -3.9089  -3.8706  -3.7757
    -3.7469  -3.6403  -3.5990  -3.5558  -3.5425  -3.4201  -3.4030  -3.3175

          k = 0.0000 0.0000-1.8663 ( 33846 PWs)   bands (ev):

   -21.5632 -21.5323 -21.4978 -21.4978 -21.4484 -21.4484 -21.1484 -21.1484
   -21.1174 -21.1174 -21.0209 -20.9666  -9.3995  -9.3155  -9.3155  -9.2894
    -9.2894  -9.1097  -8.8425  -8.8025  -8.6946  -8.6946  -8.6814  -8.6814
    -6.8604  -6.8020  -6.4953  -6.4953  -6.4792  -6.4792  -5.4940  -5.4940
    -5.3384  -5.3384  -5.0694  -4.7568  -4.0617  -3.9027  -3.9027  -3.7973
    -3.7973  -3.6065  -3.6020  -3.5126  -3.5126  -3.4339  -3.4339  -3.2934

          k = 0.2996-0.3460 0.3111 ( 33782 PWs)   bands (ev):

   -21.6634 -21.5599 -21.4816 -21.4638 -21.4008 -21.3582 -21.2115 -21.1568
   -21.1337 -21.0731 -21.0369 -20.9642  -9.4076  -9.3565  -9.3143  -9.2883
    -9.2173  -9.1802  -8.8717  -8.8284  -8.7646  -8.6631  -8.6430  -8.6218
    -7.0988  -6.7822  -6.7072  -6.4663  -6.3081  -6.0360  -5.7481  -5.4751
    -5.3649  -5.2396  -5.1064  -4.8180  -3.9491  -3.8733  -3.8444  -3.7486
    -3.6756  -3.6471  -3.6011  -3.5811  -3.5403  -3.4397  -3.4003  -3.3337

     highest occupied level (ev):    -3.2934

!    total energy              =    -418.03457329 Ry
     estimated scf accuracy    <          8.6E-09 Ry

     The total energy is the sum of the following terms:
     one-electron contribution =    -318.15984593 Ry
     hartree contribution      =     191.52251159 Ry
     xc contribution           =    -105.71099155 Ry
     ewald contribution        =    -185.68624740 Ry

     convergence has been achieved in   9 iterations

     Forces acting on atoms (cartesian axes, Ry/au):

     atom    1 type  2   force =    -0.00621183    0.01033844    0.01067538
     atom    2 type  2   force =     0.00621183   -0.01033844   -0.01067538
     atom    3 type  2   force =    -0.00584744   -0.01054882    0.01067538
     atom    4 type  2   force =     0.00584744    0.01054882   -0.01067538
     atom    5 type  2   force =     0.01205927    0.00021038    0.01067538
     atom    6 type  2   force =    -0.01205927   -0.00021038   -0.01067538
     atom    7 type  2   force =     0.00102949   -0.00480574    0.00006939
     atom    8 type  2   force =    -0.00102949    0.00480574   -0.00006939
     atom    9 type  2   force =     0.00364715    0.00329443    0.00006939
     atom   10 type  2   force =    -0.00364715   -0.00329443   -0.00006939
     atom   11 type  2   force =    -0.00467663    0.00151131    0.00006939
     atom   12 type  2   force =     0.00467663   -0.00151131   -0.00006939
     atom   13 type  1   force =    -0.00567162    0.00026257   -0.02328113
     atom   14 type  1   force =     0.00567162   -0.00026257    0.02328113
     atom   15 type  1   force =     0.00260842   -0.00504305   -0.02328113
     atom   16 type  1   force =    -0.00260842    0.00504305    0.02328113
     atom   17 type  1   force =     0.00306320    0.00478048   -0.02328113
     atom   18 type  1   force =    -0.00306320   -0.00478048    0.02328113
     atom   19 type  1   force =     0.01424365   -0.01377933    0.00771683
     atom   20 type  1   force =    -0.01424365    0.01377933   -0.00771683
     atom   21 type  1   force =     0.00481143    0.01922502    0.00771683
     atom   22 type  1   force =    -0.00481143   -0.01922502   -0.00771683
     atom   23 type  1   force =    -0.01905507   -0.00544569    0.00771683
     atom   24 type  1   force =     0.01905507    0.00544569   -0.00771683
     atom   25 type  1   force =     0.00413933    0.00437346    0.00244556
     atom   26 type  1   force =    -0.00413933   -0.00437346   -0.00244556
     atom   27 type  1   force =    -0.00585719    0.00139804    0.00244556
     atom   28 type  1   force =     0.00585719   -0.00139804   -0.00244556
     atom   29 type  1   force =     0.00171786   -0.00577150    0.00244556
     atom   30 type  1   force =    -0.00171786    0.00577150   -0.00244556
     atom   31 type  1   force =    -0.00175812   -0.00523239   -0.00022797
     atom   32 type  1   force =     0.00175812    0.00523239    0.00022797
     atom   33 type  1   force =     0.00541044    0.00109362   -0.00022797
     atom   34 type  1   force =    -0.00541044   -0.00109362    0.00022797
     atom   35 type  1   force =    -0.00365232    0.00413877   -0.00022797
     atom   36 type  1   force =     0.00365232   -0.00413877    0.00022797

     Total force =     0.091090     Total SCF correction =     0.000097


     Computing stress (Cartesian axis) and pressure

          total   stress  (Ry/bohr**3)                   (kbar)     P=       -9.36
  -0.00009053   0.00000000   0.00000000          -13.32        0.00        0.00
  -0.00000000  -0.00009053  -0.00000000           -0.00      -13.32       -0.00
   0.00000000  -0.00000000  -0.00000986            0.00       -0.00       -1.45

     Energy error            =      1.9E-02 Ry
     Gradient error          =      2.3E-02 Ry/Bohr

     number of scf cycles    =   3
     number of bfgs steps    =   2

     energy             old  =    -418.0152453184 Ry
     energy             new  =    -418.0345732874 Ry

     CASE: energy            _new < energy            _old

     new trust radius        =       0.0632971708 bohr
     new conv_thr            =       0.0000000233 Ry


ATOMIC_POSITIONS (crystal)
O                0.2741185157        0.0376986476        0.8607091532
O                0.7258814843        0.9623013634        0.1392908168
O                0.8607091532        0.2741185157        0.0376986476
O                0.1392908168        0.7258814843        0.9623013634
O                0.0376986476        0.8607091532        0.2741185157
O                0.9623013634        0.1392908168        0.7258814843
O                0.4698928617        0.7477017579        0.3297598172
O                0.5301071383        0.2522982421        0.6702401528
O                0.3297598172        0.4698928617        0.7477017579
O                0.6702401528        0.5301071383        0.2522982421
O                0.7477017579        0.3297598172        0.4698928617
O                0.2522982421        0.6702401528        0.5301071383
H                0.1555017772        0.0559277963        0.8006398717
H                0.8444982088        0.9440721957        0.1993601283
H                0.8006398717        0.1555017772        0.0559277963
H                0.1993601283        0.8444982088        0.9440721957
H                0.0559277963        0.8006398717        0.1555017772
H                0.9440721957        0.1993601283        0.8444982088
H                0.4199696104        0.2015249744        0.9976547783
H                0.5800303896        0.7984750406        0.0023452007
H                0.9976547783        0.4199696104        0.2015249744
H                0.0023452007        0.5800303896        0.7984750406
H                0.2015249744        0.9976547783        0.4199696104
H                0.7984750406        0.0023452007        0.5800303896
H                0.7211723797        0.4010901506        0.3985166460
H                0.2788276203        0.5989098194        0.6014833840
H                0.3985166460        0.7211723797        0.4010901506
H                0.6014833840        0.2788276203        0.5989098194
H                0.4010901506        0.3985166460        0.7211723797
H                0.5989098194        0.6014833840        0.2788276203
H                0.7416731476        0.2065500255        0.3661878073
H                0.2583268524        0.7934499595        0.6338121927
H                0.3661878073        0.7416731476        0.2065500255
H                0.6338121927        0.2583268524        0.7934499595
H                0.2065500255        0.3661878073        0.7416731476
H                0.7934499595        0.6338121927        0.2583268524



     Writing config-only to output data dir ./iceII/iceII.save/ :
     XML data file
     NEW-OLD atomic charge density approx. for the potential

     negative rho (up, down):  7.016E-07 0.000E+00

     total cpu time spent up to now is       52.2 secs

     per-process dynamical memory:    21.0 Mb

     Self-consistent Calculation

     iteration #  1     ecut=    90.00 Ry     beta= 0.70
     Davidson diagonalization with overlap
     ethr =  1.00E-06,  avg # of iterations =  7.0

     negative rho (up, down):  4.725E-07 0.000E+00

     total cpu time spent up to now is       54.2 secs

     total energy              =    -418.04638616 Ry
     estimated scf accuracy    <       0.00140354 Ry

     iteration #  2     ecut=    90.00 Ry     beta= 0.70
     Davidson diagonalization with overlap
     ethr =  1.46E-06,  avg # of iterations =  2.4

     negative rho (up, down):  4.323E-07 0.000E+00

     total cpu time spent up to now is       55.3 secs

     total energy              =    -418.04663646 Ry
     estimated scf accuracy    <       0.00021778 Ry

     iteration #  3     ecut=    90.00 Ry     beta= 0.70
     Davidson diagonalization with overlap
     ethr =  2.27E-07,  avg # of iterations =  2.6

     negative rho (up, down):  4.190E-07 0.000E+00

     total cpu time spent up to now is       56.4 secs

     total energy              =    -418.04668615 Ry
     estimated scf accuracy    <       0.00002009 Ry

     iteration #  4     ecut=    90.00 Ry     beta= 0.70
     Davidson diagonalization with overlap
     ethr =  2.09E-08,  avg # of iterations =  2.0

     negative rho (up, down):  4.137E-07 0.000E+00

     total cpu time spent up to now is       57.4 secs

     total energy              =    -418.04668812 Ry
     estimated scf accuracy    <       0.00000139 Ry

     iteration #  5     ecut=    90.00 Ry     beta= 0.70
     Davidson diagonalization with overlap
     ethr =  1.44E-09,  avg # of iterations =  3.6

     negative rho (up, down):  4.136E-07 0.000E+00

     total cpu time spent up to now is       58.6 secs

     total energy              =    -418.04668857 Ry
     estimated scf accuracy    <       0.00000010 Ry

     iteration #  6     ecut=    90.00 Ry     beta= 0.70
     Davidson diagonalization with overlap
     ethr =  1.09E-10,  avg # of iterations =  3.0

     negative rho (up, down):  4.137E-07 0.000E+00

     total cpu time spent up to now is       59.7 secs

     End of self-consistent calculation

          k = 0.0000 0.0000 0.0000 ( 33829 PWs)   bands (ev):

   -21.7100 -21.4038 -21.4038 -21.2240 -21.2240 -21.2031 -21.2031 -21.1925
   -21.1889 -20.9633 -20.9633 -20.7745  -9.4214  -9.2888  -9.2633  -9.2633
    -9.2377  -9.2377  -8.9250  -8.9250  -8.9009  -8.8896  -8.8896  -8.7875
    -7.3554  -6.4210  -6.4210  -6.0369  -6.0369  -5.8608  -5.8608  -5.6565
    -5.6059  -5.0547  -5.0547  -4.4931  -3.8501  -3.8501  -3.8115  -3.6448
    -3.6448  -3.6039  -3.5325  -3.4704  -3.4548  -3.4548  -3.4181  -3.4181

          k =-0.1498-0.0865 0.3111 ( 33788 PWs)   bands (ev):

   -21.6594 -21.4277 -21.4048 -21.3174 -21.2894 -21.2578 -21.1589 -21.1247
   -21.0951 -20.9689 -20.9441 -20.8099  -9.3929  -9.3146  -9.2809  -9.2668
    -9.2283  -9.1838  -8.9595  -8.9354  -8.9062  -8.8477  -8.8312  -8.8135
    -7.2059  -6.5780  -6.4651  -6.2500  -6.1265  -5.8570  -5.6788  -5.6104
    -5.4492  -5.0555  -4.9941  -4.6170  -3.9216  -3.8730  -3.8080  -3.6808
    -3.6739  -3.6320  -3.6071  -3.5017  -3.4725  -3.4185  -3.4003  -3.3673

          k = 0.2996 0.1730-0.6221 ( 33728 PWs)   bands (ev):

   -21.5550 -21.4987 -21.4250 -21.3653 -21.3194 -21.2877 -21.1345 -21.0916
   -21.0251 -20.9617 -20.9246 -20.8731  -9.3461  -9.3354  -9.2921  -9.2731
    -9.2216  -9.1623  -8.9589  -8.9446  -8.8883  -8.8715  -8.8034  -8.7910
    -6.8751  -6.8388  -6.5052  -6.4932  -6.0629  -6.0375  -5.5557  -5.4996
    -5.1616  -5.1238  -4.9530  -4.8230  -3.9858  -3.8858  -3.8059  -3.7242
    -3.6932  -3.6931  -3.5856  -3.5653  -3.5077  -3.4054  -3.3601  -3.3304

          k =-0.1498 0.0865 0.6221 ( 33766 PWs)   bands (ev):

   -21.5650 -21.4626 -21.4490 -21.3612 -21.3284 -21.2943 -21.1226 -21.0781
   -21.0395 -20.9558 -20.9389 -20.8665  -9.3487  -9.3218  -9.3154  -9.2578
    -9.2238  -9.1619  -8.9567  -8.9476  -8.9106  -8.8324  -8.8144  -8.7973
    -6.9324  -6.7045  -6.6765  -6.3191  -6.1792  -6.0320  -5.5643  -5.3685
    -5.3096  -5.0396  -4.9814  -4.8256  -3.9718  -3.9084  -3.7978  -3.7207
    -3.7111  -3.6487  -3.6281  -3.5373  -3.5164  -3.4053  -3.3713  -3.3222

          k = 0.2996 0.3460-0.3111 ( 33782 PWs)   bands (ev):

   -21.5936 -21.4859 -21.4391 -21.3535 -21.3031 -21.2727 -21.1330 -21.0834
   -21.0281 -20.9858 -20.9234 -20.8562  -9.3662  -9.3426  -9.2779  -9.2551
    -9.2284  -9.1606  -9.0116  -8.9929  -8.9362  -8.8212  -8.8000  -8.7818
    -6.9812  -6.6896  -6.5326  -6.3636  -6.3099  -5.8918  -5.4942  -5.4025
    -5.3573  -5.0973  -4.9793  -4.7638  -3.9214  -3.8706  -3.8130  -3.7418
    -3.6553  -3.6158  -3.5865  -3.5605  -3.5106  -3.4446  -3.3681  -3.3072

          k = 0.1498 0.2595 0.0000 ( 33823 PWs)   bands (ev):

   -21.6727 -21.4540 -21.4167 -21.2972 -21.2702 -21.2097 -21.1860 -21.1251
   -21.1035 -20.9720 -20.9443 -20.8027  -9.4045  -9.3174  -9.2819  -9.2618
    -9.2070  -9.2011  -9.0197  -8.9795  -8.9056  -8.8612  -8.8250  -8.7822
    -7.2166  -6.4840  -6.4583  -6.2822  -6.2112  -5.7973  -5.6533  -5.5136
    -5.4968  -5.0966  -5.0389  -4.5701  -3.8500  -3.8393  -3.8241  -3.7027
    -3.6421  -3.6048  -3.5440  -3.5167  -3.4936  -3.4588  -3.3709  -3.3615

          k = 0.2996-0.1730-1.2442 ( 33808 PWs)   bands (ev):

   -21.5791 -21.5662 -21.4280 -21.3294 -21.2770 -21.2206 -21.1594 -21.1071
   -21.0475 -20.9871 -20.8921 -20.8604  -9.3725  -9.3507  -9.2863  -9.2640
    -9.1812  -9.1678  -9.0790  -9.0237  -8.9166  -8.8504  -8.7938  -8.7769
    -6.8723  -6.8631  -6.4557  -6.4551  -6.1231  -5.8959  -5.5215  -5.4430
    -5.2943  -5.2241  -4.8884  -4.7535  -3.8551  -3.8289  -3.8280  -3.7482
    -3.6418  -3.5779  -3.5712  -3.5570  -3.5041  -3.4671  -3.3446  -3.3280

          k = 0.0000 0.0000 0.9332 ( 33780 PWs)   bands (ev):

   -21.5140 -21.5140 -21.5065 -21.3667 -21.2957 -21.2957 -21.0753 -21.0753
   -21.0400 -20.9338 -20.9338 -20.9070  -9.3472  -9.3472  -9.3042  -9.2131
    -9.2116  -9.2116  -9.0363  -8.9770  -8.9770  -8.7864  -8.7864  -8.7711
    -6.7802  -6.7802  -6.6483  -6.5089  -6.1132  -6.1132  -5.3233  -5.3233
    -5.2273  -5.0430  -5.0430  -4.9808  -3.8824  -3.8824  -3.7983  -3.7631
    -3.6257  -3.6257  -3.6004  -3.5547  -3.5547  -3.4078  -3.4078  -3.2863

          k = 0.4494 0.2595 0.0000 ( 33765 PWs)   bands (ev):

   -21.6041 -21.4968 -21.4888 -21.3174 -21.2615 -21.2291 -21.1487 -21.1228
   -21.0577 -20.9540 -20.9226 -20.8504  -9.3755  -9.3359  -9.3112  -9.2376
    -9.2091  -9.1537  -9.0874  -8.9953  -8.9519  -8.8226  -8.7990  -8.7833
    -6.9764  -6.6278  -6.6126  -6.4590  -6.0916  -5.8604  -5.5597  -5.5307
    -5.2508  -5.0963  -4.9989  -4.7261  -3.8418  -3.8403  -3.8256  -3.7508
    -3.6558  -3.6006  -3.5616  -3.5393  -3.4865  -3.4483  -3.3908  -3.3099

          k = 0.2996 0.1730 0.3111 ( 33760 PWs)   bands (ev):

   -21.6253 -21.4613 -21.4110 -21.3582 -21.2872 -21.2588 -21.1473 -21.1239
   -21.0453 -20.9861 -20.9246 -20.8289  -9.3791  -9.3258  -9.2929  -9.2482
    -9.2359  -9.1472  -9.0194  -8.9318  -8.8950  -8.8866  -8.8138  -8.8037
    -7.0829  -6.5958  -6.5266  -6.2876  -6.2453  -5.8837  -5.5956  -5.5144
    -5.4215  -5.0532  -4.9811  -4.6568  -3.9377  -3.8689  -3.8268  -3.7258
    -3.6770  -3.6294  -3.5827  -3.5311  -3.4791  -3.4356  -3.3736  -3.3303

          k = 0.4494-0.2595-0.9332 ( 33783 PWs)   bands (ev):

   -21.5440 -21.5318 -21.4471 -21.3716 -21.2915 -21.2459 -21.1585 -21.1069
   -20.9981 -20.9838 -20.9284 -20.8499  -9.3540  -9.3414  -9.3071  -9.2469
    -9.2182  -9.1154  -9.0592  -8.9634  -8.9073  -8.8778  -8.8101  -8.7964
    -6.8473  -6.7438  -6.5540  -6.4634  -6.1894  -5.8576  -5.6902  -5.4815
    -5.1982  -5.0619  -5.0045  -4.7141  -3.9443  -3.8756  -3.8468  -3.7330
    -3.6937  -3.6683  -3.5453  -3.5110  -3.4975  -3.4470  -3.3739  -3.2983

          k = 0.2996-0.3460-0.6221 ( 33786 PWs)   bands (ev):

   -21.5356 -21.4754 -21.4402 -21.4036 -21.3162 -21.3001 -21.1209 -21.0979
   -20.9951 -20.9731 -20.9474 -20.8560  -9.3586  -9.3069  -9.2878  -9.2695
    -9.2512  -9.1176  -8.9753  -8.9611  -8.8805  -8.8678  -8.8199  -8.8137
    -6.7986  -6.7684  -6.5443  -6.5161  -6.1321  -6.1006  -5.4966  -5.4564
    -5.1968  -5.1739  -4.9304  -4.7643  -4.0050  -3.8878  -3.8500  -3.7534
    -3.7242  -3.6313  -3.5792  -3.5414  -3.5263  -3.4057  -3.3847  -3.2871

          k = 0.0000 0.0000-1.8663 ( 33846 PWs)   bands (ev):

   -21.5140 -21.4458 -21.4458 -21.4188 -21.3414 -21.3414 -21.0811 -21.0811
   -20.9961 -20.9961 -20.9575 -20.8422  -9.3622  -9.2850  -9.2850  -9.2665
    -9.2665  -9.0835  -8.9910  -8.9775  -8.8632  -8.8632  -8.8435  -8.8435
    -6.7879  -6.6881  -6.4309  -6.4309  -6.3009  -6.3009  -5.3204  -5.3204
    -5.3177  -5.3177  -4.8907  -4.7207  -4.0191  -3.8811  -3.8811  -3.7761
    -3.7761  -3.5998  -3.5822  -3.5013  -3.5013  -3.4165  -3.4165  -3.2600

          k = 0.2996-0.3460 0.3111 ( 33782 PWs)   bands (ev):

   -21.5924 -21.4959 -21.4237 -21.3573 -21.3077 -21.2741 -21.1189 -21.0919
   -21.0409 -20.9679 -20.9318 -20.8555  -9.3701  -9.3312  -9.2868  -9.2645
    -9.2093  -9.1687  -9.0250  -8.9825  -8.9322  -8.8169  -8.8042  -8.7829
    -6.9807  -6.6943  -6.5502  -6.3413  -6.2809  -5.9302  -5.5707  -5.3368
    -5.2766  -5.1294  -5.0248  -4.7474  -3.9259  -3.8544  -3.8262  -3.7337
    -3.6538  -3.6227  -3.5859  -3.5581  -3.5300  -3.4236  -3.3687  -3.3123

     highest occupied level (ev):    -3.2600

!    total energy              =    -418.04668860 Ry
     estimated scf accuracy    <          7.9E-09 Ry

     The total energy is the sum of the following terms:
     one-electron contribution =    -316.75138371 Ry
     hartree contribution      =     190.88801488 Ry
     xc contribution           =    -105.62095419 Ry
     ewald contribution        =    -186.56236558 Ry

     convergence has been achieved in   6 iterations

     Forces acting on atoms (cartesian axes, Ry/au):

     atom    1 type  2   force =    -0.00439076    0.00493514    0.00056631
     atom    2 type  2   force =     0.00439076   -0.00493514   -0.00056631
     atom    3 type  2   force =    -0.00207858   -0.00627008    0.00056631
     atom    4 type  2   force =     0.00207858    0.00627008   -0.00056631
     atom    5 type  2   force =     0.00646934    0.00133494    0.00056631
     atom    6 type  2   force =    -0.00646934   -0.00133494   -0.00056631
     atom    7 type  2   force =    -0.00334219    0.00118956   -0.00517938
     atom    8 type  2   force =     0.00334219   -0.00118956    0.00517938
     atom    9 type  2   force =     0.00064091   -0.00348920   -0.00517938
     atom   10 type  2   force =    -0.00064091    0.00348920    0.00517938
     atom   11 type  2   force =     0.00270128    0.00229964   -0.00517938
     atom   12 type  2   force =    -0.00270128   -0.00229964    0.00517938
     atom   13 type  1   force =    -0.00082826   -0.00707650   -0.00303776
     atom   14 type  1   force =     0.00082826    0.00707650    0.00303776
     atom   15 type  1   force =     0.00654256    0.00282095   -0.00303776
     atom   16 type  1   force =    -0.00654256   -0.00282095    0.00303776
     atom   17 type  1   force =    -0.00571430    0.00425555   -0.00303776
     atom   18 type  1   force =     0.00571430   -0.00425555    0.00303776
     atom   19 type  1   force =     0.00708598   -0.00049183   -0.00181814
     atom   20 type  1   force =    -0.00708598    0.00049183    0.00181814
     atom   21 type  1   force =    -0.00311706    0.00638256   -0.00181814
     atom   22 type  1   force =     0.00311706   -0.00638256    0.00181814
     atom   23 type  1   force =    -0.00396893   -0.00589073   -0.00181814
     atom   24 type  1   force =     0.00396893    0.00589073    0.00181814
     atom   25 type  1   force =     0.00170131   -0.00323000    0.00301862
     atom   26 type  1   force =    -0.00170131    0.00323000   -0.00301862
     atom   27 type  1   force =     0.00194661    0.00308838    0.00301862
     atom   28 type  1   force =    -0.00194661   -0.00308838   -0.00301862
     atom   29 type  1   force =    -0.00364792    0.00014162    0.00301862
     atom   30 type  1   force =     0.00364792   -0.00014162   -0.00301862
     atom   31 type  1   force =    -0.00628380    0.00038819    0.00359971
     atom   32 type  1   force =     0.00628380   -0.00038819   -0.00359971
     atom   33 type  1   force =     0.00280572   -0.00563603    0.00359971
     atom   34 type  1   force =    -0.00280572    0.00563603   -0.00359971
     atom   35 type  1   force =     0.00347809    0.00524784    0.00359971
     atom   36 type  1   force =    -0.00347809   -0.00524784   -0.00359971

     Total force =     0.040409     Total SCF correction =     0.000149


     Computing stress (Cartesian axis) and pressure

          total   stress  (Ry/bohr**3)                   (kbar)     P=      -18.51
  -0.00014721   0.00000000   0.00000000          -21.66        0.00        0.00
  -0.00000000  -0.00014721  -0.00000000           -0.00      -21.66       -0.00
  -0.00000000  -0.00000000  -0.00008303           -0.00       -0.00      -12.21

     Energy error            =      1.2E-02 Ry
     Gradient error          =      7.1E-03 Ry/Bohr

[...]
H                0.1887336880        0.9780947634        0.4158339557
H                0.8112663270        0.0219052156        0.5841660443
H                0.7312350617        0.4045917665        0.4087332755
H                0.2687649383        0.5954082035        0.5912667545
H                0.4087332755        0.7312350617        0.4045917665
H                0.5912667545        0.2687649383        0.5954082035
H                0.4045917665        0.4087332755        0.7312350617
H                0.5954082035        0.5912667545        0.2687649383
H                0.7460441069        0.2078156470        0.3759473215
H                0.2539558931        0.7921843380        0.6240526785
H                0.3759473215        0.7460441069        0.2078156470
H                0.6240526785        0.2539558931        0.7921843380
H                0.2078156470        0.3759473215        0.7460441069
H                0.7921843380        0.6240526785        0.2539558931



     Writing config-only to output data dir ./iceII/iceII.save/ :
     XML data file
     NEW-OLD atomic charge density approx. for the potential

     negative rho (up, down):  8.514E-07 0.000E+00

     total cpu time spent up to now is      277.6 secs

     per-process dynamical memory:    40.3 Mb

     Self-consistent Calculation

     iteration #  1     ecut=    90.00 Ry     beta= 0.70
     Davidson diagonalization with overlap
     ethr =  1.00E-06,  avg # of iterations =  3.0

     Threshold (ethr) on eigenvalues was too large:
     Diagonalizing with lowered threshold

     Davidson diagonalization with overlap
     ethr =  1.31E-08,  avg # of iterations =  4.0

     negative rho (up, down):  8.085E-07 0.000E+00

     total cpu time spent up to now is      279.8 secs

     total energy              =    -418.05582002 Ry
     estimated scf accuracy    <       0.00001729 Ry

     iteration #  2     ecut=    90.00 Ry     beta= 0.70
     Davidson diagonalization with overlap
     ethr =  1.80E-08,  avg # of iterations =  2.0

     negative rho (up, down):  7.911E-07 0.000E+00

     total cpu time spent up to now is      280.7 secs

     total energy              =    -418.05582227 Ry
     estimated scf accuracy    <       0.00000131 Ry

     iteration #  3     ecut=    90.00 Ry     beta= 0.70
     Davidson diagonalization with overlap
     ethr =  1.37E-09,  avg # of iterations =  2.7

     negative rho (up, down):  7.890E-07 0.000E+00

     total cpu time spent up to now is      281.9 secs

     total energy              =    -418.05582250 Ry
     estimated scf accuracy    <       0.00000025 Ry

     iteration #  4     ecut=    90.00 Ry     beta= 0.70
     Davidson diagonalization with overlap
     ethr =  2.57E-10,  avg # of iterations =  2.5

     negative rho (up, down):  7.877E-07 0.000E+00

     total cpu time spent up to now is      283.1 secs

     total energy              =    -418.05582256 Ry
     estimated scf accuracy    <       0.00000001 Ry

     iteration #  5     ecut=    90.00 Ry     beta= 0.70
     Davidson diagonalization with overlap
     ethr =  1.35E-11,  avg # of iterations =  3.0

     negative rho (up, down):  7.874E-07 0.000E+00

     total cpu time spent up to now is      284.2 secs

     total energy              =    -418.05582256 Ry
     estimated scf accuracy    <          3.0E-09 Ry

     iteration #  6     ecut=    90.00 Ry     beta= 0.70
     Davidson diagonalization with overlap
     ethr =  3.08E-12,  avg # of iterations =  2.5

     negative rho (up, down):  7.872E-07 0.000E+00

     total cpu time spent up to now is      285.3 secs

     End of self-consistent calculation

          k = 0.0000 0.0000 0.0000 ( 33829 PWs)   bands (ev):

   -21.7117 -21.3858 -21.3858 -21.2413 -21.2413 -21.2173 -21.2140 -21.2110
   -21.2110 -21.0092 -21.0092 -20.7911  -9.3205  -9.2589  -9.2589  -9.2501
    -9.1934  -9.1934  -8.9756  -8.9756  -8.9595  -8.9581  -8.9413  -8.9413
    -7.2792  -6.4520  -6.4520  -5.9618  -5.9618  -5.8103  -5.8103  -5.6937
    -5.6022  -5.0444  -5.0444  -4.4293  -3.8192  -3.8192  -3.7918  -3.6729
    -3.6729  -3.6390  -3.5310  -3.5310  -3.5194  -3.4826  -3.4276  -3.4276

          k =-0.1498-0.0865 0.3111 ( 33788 PWs)   bands (ev):

   -21.6599 -21.4155 -21.3797 -21.3386 -21.3111 -21.2670 -21.1803 -21.1475
   -21.1077 -21.0113 -20.9827 -20.8312  -9.2982  -9.2722  -9.2530  -9.2351
    -9.1886  -9.1674  -9.0116  -8.9957  -8.9835  -8.9427  -8.9101  -8.8966
    -7.1510  -6.5866  -6.4831  -6.2151  -6.0243  -5.8311  -5.6703  -5.5925
    -5.4348  -5.0403  -4.9862  -4.5529  -3.8828  -3.8290  -3.7967  -3.7153
    -3.7108  -3.6736  -3.5929  -3.5310  -3.4908  -3.4759  -3.4330  -3.4147

          k = 0.2996 0.1730-0.6221 ( 33728 PWs)   bands (ev):

   -21.5268 -21.5254 -21.3991 -21.3949 -21.3123 -21.3087 -21.1456 -21.1388
   -21.0233 -21.0033 -20.9342 -20.9236  -9.2822  -9.2689  -9.2376  -9.2340
    -9.1877  -9.1370  -9.0314  -9.0296  -8.9865  -8.9402  -8.8789  -8.8673
    -6.8762  -6.8128  -6.4748  -6.4739  -6.0005  -5.9578  -5.5683  -5.5187
    -5.1367  -5.0784  -4.9399  -4.7684  -3.9438  -3.8408  -3.7761  -3.7757
    -3.7266  -3.7168  -3.6237  -3.5374  -3.5349  -3.4495  -3.4153  -3.4002

          k =-0.1498 0.0865 0.6221 ( 33766 PWs)   bands (ev):

   -21.5568 -21.4584 -21.4487 -21.3668 -21.3466 -21.3024 -21.1480 -21.0944
   -21.0615 -20.9803 -20.9684 -20.9039  -9.2835  -9.2630  -9.2441  -9.2366
    -9.1817  -9.1361  -9.0297  -9.0225  -9.0131  -8.9074  -8.8906  -8.8731
    -6.9236  -6.6860  -6.6554  -6.2944  -6.1178  -5.9681  -5.5726  -5.3705
    -5.2768  -5.0160  -4.9566  -4.7719  -3.9314  -3.8635  -3.7713  -3.7648
    -3.7314  -3.7009  -3.6442  -3.5378  -3.5178  -3.4559  -3.4288  -3.3896

          k = 0.2996 0.3460-0.3111 ( 33782 PWs)   bands (ev):

   -21.5903 -21.4762 -21.4158 -21.3785 -21.3354 -21.2871 -21.1488 -21.0798
   -21.0543 -21.0154 -20.9602 -20.8902  -9.2841  -9.2823  -9.2423  -9.2213
    -9.1795  -9.1582  -9.0655  -9.0397  -9.0147  -8.9153  -8.8981  -8.8696
    -6.9290  -6.6756  -6.5300  -6.3353  -6.2605  -5.8613  -5.5071  -5.4078
    -5.2994  -5.0479  -4.9616  -4.7296  -3.8872  -3.8337  -3.7882  -3.7533
    -3.7026  -3.6658  -3.6028  -3.5780  -3.4995  -3.4922  -3.4169  -3.3624

          k = 0.1498 0.2595 0.0000 ( 33823 PWs)   bands (ev):

   -21.6733 -21.4356 -21.3966 -21.3201 -21.3013 -21.2461 -21.1829 -21.1347
   -21.1067 -21.0146 -20.9923 -20.8240  -9.3075  -9.2669  -9.2587  -9.2350
    -9.1924  -9.1835  -9.0358  -9.0167  -8.9881  -8.9370  -8.9239  -8.8986
    -7.1448  -6.4981  -6.4314  -6.2346  -6.2177  -5.7733  -5.6136  -5.4958
    -5.4719  -5.0696  -5.0334  -4.5215  -3.8209  -3.8060  -3.8018  -3.7097
    -3.6699  -3.6564  -3.5744  -3.5580  -3.5194  -3.4807  -3.4012  -3.3879

          k = 0.2996-0.1730-1.2442 ( 33808 PWs)   bands (ev):

   -21.5840 -21.5501 -21.4032 -21.3587 -21.2983 -21.2661 -21.1388 -21.1301
   -21.0400 -21.0400 -20.9119 -20.9071  -9.2873  -9.2762  -9.2531  -9.2252
    -9.1869  -9.1776  -9.0807  -9.0485  -9.0022  -8.9217  -8.9181  -8.8833
    -6.8201  -6.7795  -6.5107  -6.3666  -6.1752  -5.8907  -5.4546  -5.4362
    -5.2948  -5.1498  -4.8518  -4.7496  -3.8248  -3.8004  -3.8002  -3.7405
    -3.6630  -3.6498  -3.6223  -3.5730  -3.5413  -3.4701  -3.3778  -3.3633

          k = 0.0000 0.0000 0.9332 ( 33780 PWs)   bands (ev):

   -21.5138 -21.5138 -21.4492 -21.4380 -21.3071 -21.3071 -21.0947 -21.0947
   -21.0084 -20.9833 -20.9610 -20.9610  -9.2807  -9.2807  -9.2483  -9.1844
    -9.1844  -9.1795  -9.1059  -9.0385  -9.0385  -8.8820  -8.8820  -8.8615
    -6.7302  -6.7302  -6.6898  -6.4028  -6.1176  -6.1176  -5.3115  -5.3115
    -5.1933  -5.0082  -5.0082  -4.9458  -3.8458  -3.8458  -3.7717  -3.7461
    -3.6852  -3.6852  -3.6608  -3.5415  -3.5415  -3.4544  -3.4544  -3.3431

          k = 0.4494 0.2595 0.0000 ( 33765 PWs)   bands (ev):

   -21.6026 -21.4846 -21.4739 -21.3604 -21.2614 -21.2537 -21.1633 -21.1489
   -21.0407 -20.9875 -20.9674 -20.8837  -9.2879  -9.2684  -9.2635  -9.2166
    -9.1987  -9.1693  -9.0849  -9.0394  -9.0158  -8.9193  -8.9048  -8.8919
    -6.9083  -6.5719  -6.5416  -6.4912  -6.1384  -5.8724  -5.5383  -5.4581
    -5.1911  -5.0725  -4.9902  -4.7057  -3.8159  -3.8085  -3.7973  -3.7291
    -3.7005  -3.6540  -3.5997  -3.5695  -3.5425  -3.4517  -3.4027  -3.3549

          k = 0.2996 0.1730 0.3111 ( 33760 PWs)   bands (ev):

   -21.6239 -21.4440 -21.3911 -21.3758 -21.3239 -21.2761 -21.1605 -21.1231
   -21.0883 -21.0011 -20.9662 -20.8581  -9.2924  -9.2737  -9.2514  -9.2157
    -9.1906  -9.1514  -9.0381  -9.0123  -8.9749  -8.9560  -8.9332  -8.8849
    -7.0282  -6.5735  -6.5431  -6.2739  -6.1878  -5.8391  -5.6063  -5.4529
    -5.4174  -5.0136  -4.9720  -4.6178  -3.9068  -3.8285  -3.8008  -3.7582
    -3.7212  -3.6472  -3.6053  -3.5544  -3.4838  -3.4806  -3.4050  -3.3948

          k = 0.4494-0.2595-0.9332 ( 33783 PWs)   bands (ev):

   -21.5339 -21.5246 -21.4318 -21.4024 -21.3158 -21.2539 -21.1862 -21.1149
   -21.0282 -20.9869 -20.9524 -20.9010  -9.2881  -9.2660  -9.2530  -9.2031
    -9.1811  -9.1393  -9.0548  -9.0350  -9.0029  -8.9545  -8.9224  -8.8935
    -6.7835  -6.6963  -6.5931  -6.3919  -6.2123  -5.8480  -5.6669  -5.4105
    -5.1959  -5.0004  -4.9687  -4.7209  -3.9170  -3.8414  -3.8170  -3.7690
    -3.7398  -3.6527  -3.5829  -3.5639  -3.4995  -3.4684  -3.4027  -3.3674

          k = 0.2996-0.3460-0.6221 ( 33786 PWs)   bands (ev):

   -21.5003 -21.5000 -21.4255 -21.4199 -21.3278 -21.3258 -21.1293 -21.1261
   -21.0160 -21.0094 -20.9398 -20.9161  -9.2911  -9.2424  -9.2319  -9.2217
    -9.2060  -9.1050  -9.0380  -9.0331  -8.9888  -8.9504  -8.9018  -8.8935
    -6.7842  -6.7617  -6.5215  -6.4875  -6.0688  -6.0418  -5.5068  -5.4617
    -5.1518  -5.1241  -4.8890  -4.7548  -3.9697  -3.8479  -3.8171  -3.8039
    -3.7677  -3.6593  -3.5724  -3.5654  -3.5261  -3.4435  -3.4325  -3.3708

          k = 0.0000 0.0000-1.8663 ( 33846 PWs)   bands (ev):

   -21.4737 -21.4660 -21.4086 -21.4086 -21.3958 -21.3958 -21.0640 -21.0640
   -21.0592 -21.0592 -20.9363 -20.9047  -9.2927  -9.2186  -9.2186  -9.2174
    -9.2174  -9.0906  -9.0405  -9.0206  -8.9779  -8.9779  -8.9266  -8.9266
    -6.7805  -6.6798  -6.3703  -6.3703  -6.2922  -6.2922  -5.2874  -5.2874
    -5.2833  -5.2833  -4.8386  -4.7351  -3.9844  -3.8441  -3.8441  -3.8289
    -3.8289  -3.6117  -3.5822  -3.5001  -3.5001  -3.4718  -3.4718  -3.3443

          k = 0.2996-0.3460 0.3111 ( 33782 PWs)   bands (ev):

   -21.5903 -21.4765 -21.4145 -21.3810 -21.3337 -21.2872 -21.1468 -21.0739
   -21.0716 -21.0016 -20.9647 -20.8904  -9.2907  -9.2713  -9.2483  -9.2108
    -9.1909  -9.1569  -9.0683  -9.0373  -9.0146  -8.9122  -8.8937  -8.8756
    -6.9305  -6.6636  -6.5636  -6.3099  -6.2307  -5.9061  -5.5739  -5.3225
    -5.2347  -5.1038  -4.9939  -4.7116  -3.8926  -3.8231  -3.7943  -3.7433
    -3.7043  -3.6630  -3.6147  -3.5856  -3.5111  -3.4658  -3.4193  -3.3656

     highest occupied level (ev):    -3.3431

!    total energy              =    -418.05582256 Ry
     estimated scf accuracy    <          1.2E-10 Ry

     The total energy is the sum of the following terms:
     one-electron contribution =    -318.96663858 Ry
     hartree contribution      =     192.00109377 Ry
     xc contribution           =    -105.65557845 Ry
     ewald contribution        =    -185.43469930 Ry

     convergence has been achieved in   6 iterations

     Forces acting on atoms (cartesian axes, Ry/au):

     atom    1 type  2   force =    -0.00028640   -0.00051709    0.00005513
     atom    2 type  2   force =     0.00028640    0.00051709   -0.00005513
     atom    3 type  2   force =     0.00059101    0.00001052    0.00005513
     atom    4 type  2   force =    -0.00059101   -0.00001052   -0.00005513
     atom    5 type  2   force =    -0.00030461    0.00050657    0.00005513
     atom    6 type  2   force =     0.00030461   -0.00050657   -0.00005513
     atom    7 type  2   force =    -0.00037331    0.00004328    0.00081438
     atom    8 type  2   force =     0.00037331   -0.00004328   -0.00081438
     atom    9 type  2   force =     0.00014918   -0.00034494    0.00081438
     atom   10 type  2   force =    -0.00014918    0.00034494   -0.00081438
     atom   11 type  2   force =     0.00022414    0.00030166    0.00081438
     atom   12 type  2   force =    -0.00022414   -0.00030166   -0.00081438
     atom   13 type  1   force =    -0.00007262    0.00005718    0.00067835
     atom   14 type  1   force =     0.00007262   -0.00005718   -0.00067835
     atom   15 type  1   force =    -0.00001321   -0.00009148    0.00067835
     atom   16 type  1   force =     0.00001321    0.00009148   -0.00067835
     atom   17 type  1   force =     0.00008582    0.00003430    0.00067835
     atom   18 type  1   force =    -0.00008582   -0.00003430   -0.00067835
     atom   19 type  1   force =     0.00026688   -0.00028658    0.00027025
     atom   20 type  1   force =    -0.00026688    0.00028658   -0.00027025
     atom   21 type  1   force =     0.00011474    0.00037442    0.00027025
     atom   22 type  1   force =    -0.00011474   -0.00037442   -0.00027025
     atom   23 type  1   force =    -0.00038162   -0.00008784    0.00027025
     atom   24 type  1   force =     0.00038162    0.00008784   -0.00027025
     atom   25 type  1   force =    -0.00038427    0.00061506    0.00006024
     atom   26 type  1   force =     0.00038427   -0.00061506   -0.00006024
     atom   27 type  1   force =    -0.00034052   -0.00064031    0.00006024
     atom   28 type  1   force =     0.00034052    0.00064031   -0.00006024
     atom   29 type  1   force =     0.00072479    0.00002526    0.00006024
     atom   30 type  1   force =    -0.00072479   -0.00002526   -0.00006024
     atom   31 type  1   force =    -0.00065301   -0.00041224    0.00013740
     atom   32 type  1   force =     0.00065301    0.00041224   -0.00013740
     atom   33 type  1   force =     0.00068351   -0.00035940    0.00013740
     atom   34 type  1   force =    -0.00068351    0.00035940   -0.00013740
     atom   35 type  1   force =    -0.00003051    0.00077164    0.00013740
     atom   36 type  1   force =     0.00003051   -0.00077164   -0.00013740

     Total force =     0.004240     Total SCF correction =     0.000018


     Computing stress (Cartesian axis) and pressure

          total   stress  (Ry/bohr**3)                   (kbar)     P=      -15.68
  -0.00010907  -0.00000000   0.00000000          -16.04       -0.00        0.00
   0.00000000  -0.00010907  -0.00000000            0.00      -16.04       -0.00
   0.00000000  -0.00000000  -0.00010160            0.00       -0.00      -14.95

     Energy error            =      3.5E-05 Ry
     Gradient error          =      8.1E-04 Ry/Bohr

     bfgs converged in  27 scf cycles and  26 bfgs steps
     (criteria: energy <  1.0E-04 Ry, force <  1.0E-03 Ry/Bohr)

     End of BFGS Geometry Optimization

     Final energy             =    -418.0558225607 Ry

     File ./iceII/iceII.bfgs deleted, as requested
Begin final coordinates

ATOMIC_POSITIONS (crystal)
O                0.2686796517        0.0238856140        0.8526494032
O                0.7313203483        0.9761143970        0.1473505668
O                0.8526494032        0.2686796517        0.0238856140
O                0.1473505668        0.7313203483        0.9761143970
O                0.0238856140        0.8526494032        0.2686796517
O                0.9761143970        0.1473505668        0.7313203483
O                0.4782089768        0.7510753612        0.3304712151
O                0.5217910232        0.2489246388        0.6695287549
O                0.3304712151        0.4782089768        0.7510753612
O                0.6695287549        0.5217910232        0.2489246388
O                0.7510753612        0.3304712151        0.4782089768
O                0.2489246388        0.6695287549        0.5217910232
H                0.1461770028        0.0366656155        0.7917977286
H                0.8538229832        0.9633343765        0.2082022714
H                0.7917977286        0.1461770028        0.0366656155
H                0.2082022714        0.8538229832        0.9633343765
H                0.0366656155        0.7917977286        0.1461770028
H                0.9633343765        0.2082022714        0.8538229832
H                0.4158339557        0.1887336880        0.9780947634
H                0.5841660443        0.8112663270        0.0219052156
H                0.9780947634        0.4158339557        0.1887336880
H                0.0219052156        0.5841660443        0.8112663270
H                0.1887336880        0.9780947634        0.4158339557
H                0.8112663270        0.0219052156        0.5841660443
H                0.7312350617        0.4045917665        0.4087332755
H                0.2687649383        0.5954082035        0.5912667545
H                0.4087332755        0.7312350617        0.4045917665
H                0.5912667545        0.2687649383        0.5954082035
H                0.4045917665        0.4087332755        0.7312350617
H                0.5954082035        0.5912667545        0.2687649383
H                0.7460441069        0.2078156470        0.3759473215
H                0.2539558931        0.7921843380        0.6240526785
H                0.3759473215        0.7460441069        0.2078156470
H                0.6240526785        0.2539558931        0.7921843380
H                0.2078156470        0.3759473215        0.7460441069
H                0.7921843380        0.6240526785        0.2539558931
End final coordinates



     Writing all to output data dir ./iceII/iceII.save/ :
     XML data file, charge density, pseudopotentials, collected wavefunctions

     init_run     :      2.97s CPU      3.07s WALL (       1 calls)
     electrons    :    230.13s CPU    238.63s WALL (      27 calls)
     update_pot   :      5.04s CPU      5.53s WALL (      26 calls)
     forces       :      4.12s CPU      4.15s WALL (      27 calls)
     stress       :     32.64s CPU     33.29s WALL (      27 calls)

     Called by init_run:
     wfcinit      :      0.37s CPU      0.38s WALL (       1 calls)
     potinit      :      1.71s CPU      1.77s WALL (       1 calls)
     hinit0       :      0.67s CPU      0.70s WALL (       1 calls)

     Called by electrons:
     c_bands      :    168.65s CPU    170.23s WALL (     204 calls)
     sum_band     :     23.79s CPU     24.00s WALL (     204 calls)
     v_of_rho     :     41.51s CPU     47.19s WALL (     222 calls)
     newd         :      1.34s CPU      1.37s WALL (     222 calls)
     mix_rho      :      0.70s CPU      0.71s WALL (     204 calls)
     vdW_kernel   :      1.52s CPU      1.53s WALL (       1 calls)

     Called by c_bands:
     init_us_2    :      3.27s CPU      3.38s WALL (    1852 calls)
     cegterg      :    162.26s CPU    163.41s WALL (     816 calls)

     Called by *egterg:
     cdiaghg      :     11.57s CPU     11.60s WALL (    3024 calls)
     h_psi        :    121.71s CPU    122.63s WALL (    3168 calls)
     s_psi        :      5.57s CPU      5.64s WALL (    3168 calls)
     g_psi        :      0.36s CPU      0.36s WALL (    2348 calls)

     Called by h_psi:
     h_psi:calbec :      9.12s CPU      9.18s WALL (    3168 calls)
     vloc_psi     :    106.00s CPU    106.81s WALL (    3168 calls)
     add_vuspsi   :      5.63s CPU      5.65s WALL (    3168 calls)

     General routines
     calbec       :     13.11s CPU     13.21s WALL (    4524 calls)
     fft          :     21.97s CPU     25.25s WALL (   14981 calls)
     ffts         :      0.31s CPU      0.31s WALL (     204 calls)
     fftw         :    110.59s CPU    111.43s WALL (  283278 calls)

     Parallel routines

     PWSCF        :   4m36.75s CPU   4m47.54s WALL


   This run was terminated on:  15:47: 6   1Apr2026            

=------------------------------------------------------------------------------=
   JOB DONE.
=------------------------------------------------------------------------------=
