
     Program PWSCF v.7.3.1 starts on 26Mar2026 at 16: 0:41 

     This program is part of the open-source Quantum ESPRESSO suite
     for quantum simulation of materials; please cite
         "P. Giannozzi et al., J. Phys.:Condens. Matter 21 395502 (2009);
         "P. Giannozzi et al., J. Phys.:Condens. Matter 29 465901 (2017);
         "P. Giannozzi et al., J. Chem. Phys. 152 154105 (2020);
          URL http://www.quantum-espresso.org", 
     in publications or presentations arising from this work. More details at
     http://www.quantum-espresso.org/quote

     Parallel version (MPI), running on   128 processors

     MPI processes distributed on     1 nodes
     242853 MiB available memory on the printing compute node when the environment starts

     Waiting for input...
     Reading input from standard input

     Current dimensions of program PWSCF are:
     Max number of different atomic species (ntypx) = 10
     Max number of k-points (npk) =  40000
     Max angular momentum in pseudopotentials (lmaxx) =  4

     IMPORTANT: XC functional enforced from input :
     Exchange-correlation= VDW-DF2
                           (   1   4  13   0   2   0   0)
     Any further DFT definition will be discarded
     Please, verify this is what you really want


     K-points division:     npool     =       4
     R & G space division:  proc/nbgrp/npool/nimage =      32
     Subspace diagonalization in iterative solution of the eigenvalue problem:
     a serial algorithm will be used


     Parallelization info
     --------------------
     sticks:   dense  smooth     PW     G-vecs:    dense   smooth      PW
     Min         195     195     57                 8518     8518    1343
     Max         196     196     58                 8521     8521    1345
     Sum        6263    6263   1831               272641   272641   43009

     Using Slab Decomposition



     bravais-lattice index     =            5
     lattice parameter (alat)  =      15.4078  a.u.
     unit-cell volume          =    2363.2602 (a.u.)^3
     number of atoms/cell      =           36
     number of atomic types    =            2
     number of electrons       =        96.00
     number of Kohn-Sham states=           48
     kinetic-energy cutoff     =      90.0000  Ry
     charge density cutoff     =     360.0000  Ry
     scf convergence threshold =      1.0E-07
     mixing beta               =       0.7000
     number of iterations used =            8  plain     mixing
     Exchange-correlation= VDW-DF2
                           (   1   4  13   0   2   0   0)

     celldm(1)=  15.407767  celldm(2)=   0.000000  celldm(3)=   0.000000
     celldm(4)=  -0.392337  celldm(5)=   0.000000  celldm(6)=   0.000000

     crystal axes: (cart. coord. in units of alat)
               a(1) = (   0.834367  -0.481722   0.267909 )  
               a(2) = (   0.000000   0.963444   0.267909 )  
               a(3) = (  -0.834367  -0.481722   0.267909 )  

     reciprocal axes: (cart. coord. in units 2 pi/alat)
               b(1) = (  0.599257 -0.345981  1.244203 )  
               b(2) = (  0.000000  0.691962  1.244203 )  
               b(3) = ( -0.599257 -0.345981  1.244203 )  


     PseudoPot. # 1 for H  read from file:
     ./H.pbe-van_ak.UPF
     MD5 check sum: 077eb6d537518a38cb46c6de387227b7
     Pseudo is Ultrasoft, Zval =  1.0
     Generated by new atomic code, or converted to UPF format
     Using radial grid of  615 points,  1 beta functions with: 
                l(1) =   0
     Q(r) pseudized with  8 coefficients,  rinner =    0.800

     PseudoPot. # 2 for O  read from file:
     ./O.pbe-van_ak.UPF
     MD5 check sum: 78c19812648e8988a0fe644b0f25305e
     Pseudo is Ultrasoft, Zval =  6.0
     Generated by new atomic code, or converted to UPF format
     Using radial grid of  737 points,  4 beta functions with: 
                l(1) =   0
                l(2) =   0
                l(3) =   1
                l(4) =   1
     Q(r) pseudized with  8 coefficients,  rinner =    0.800   0.800   0.800


     atomic species   valence    mass     pseudopotential
     H                 1.00     1.00800     H ( 1.00)
     O                 6.00    16.00000     O ( 1.00)

      6 Sym. Ops., with inversion, found



   Cartesian axes

     site n.     atom                  positions (alat units)
         1        O      tau(   1) = (  -0.4881587  -0.5153728   0.3102004  )
         2        O      tau(   2) = (   0.4881587   0.5153729   0.4935268  )
         3        O      tau(   3) = (   0.6904053  -0.1650714   0.3102004  )
         4        O      tau(   4) = (  -0.6904053   0.1650714   0.4935268  )
         5        O      tau(   5) = (  -0.2022466   0.6804442   0.3102004  )
         6        O      tau(   6) = (   0.2022466  -0.6804442   0.4935268  )
         7        O      tau(   7) = (   0.1208629   0.3351200   0.4137471  )
         8        O      tau(   8) = (  -0.1208629  -0.3351200   0.3899800  )
         9        O      tau(   9) = (  -0.3506539  -0.0628897   0.4137471  )
        10        O      tau(  10) = (   0.3506539   0.0628897   0.3899800  )
        11        O      tau(  11) = (   0.2297910  -0.2722304   0.4137471  )
        12        O      tau(  12) = (  -0.2297910   0.2722304   0.3899800  )
        13        H      tau(  13) = (  -0.5430428  -0.4102686   0.2622098  )
        14        H      tau(  14) = (   0.5430428   0.4102686   0.5415173  )
        15        H      tau(  15) = (   0.6268245  -0.2651546   0.2622098  )
        16        H      tau(  16) = (  -0.6268245   0.2651546   0.5415173  )
        17        H      tau(  17) = (  -0.0837816   0.6754232   0.2622098  )
        18        H      tau(  18) = (   0.0837817  -0.6754232   0.5415173  )
        19        H      tau(  19) = (  -0.4681736  -0.4859583   0.4327384  )
        20        H      tau(  20) = (   0.4681736   0.4859583   0.3709887  )
        21        H      tau(  21) = (   0.6549390  -0.1624711   0.4327384  )
        22        H      tau(  22) = (  -0.6549390   0.1624711   0.3709887  )
        23        H      tau(  23) = (  -0.1867654   0.6484294   0.4327384  )
        24        H      tau(  24) = (   0.1867654  -0.6484294   0.3709887  )
        25        H      tau(  25) = (   0.2718867  -0.1516220   0.4118766  )
        26        H      tau(  26) = (  -0.2718867   0.1516219   0.3918506  )
        27        H      tau(  27) = (  -0.0046349   0.3112717   0.4118766  )
        28        H      tau(  28) = (   0.0046349  -0.3112717   0.3918506  )
        29        H      tau(  29) = (  -0.2672518  -0.1596498   0.4118766  )
        30        H      tau(  30) = (   0.2672518   0.1596498   0.3918506  )
        31        H      tau(  31) = (   0.3136186  -0.3416266   0.3473301  )
        32        H      tau(  32) = (  -0.3136186   0.3416266   0.4563970  )
        33        H      tau(  33) = (   0.1390481   0.4424150   0.3473301  )
        34        H      tau(  34) = (  -0.1390480  -0.4424150   0.4563970  )
        35        H      tau(  35) = (  -0.4526667  -0.1007884   0.3473301  )
        36        H      tau(  36) = (   0.4526666   0.1007884   0.4563970  )

     number of k points=    14
                       cart. coord. in units 2pi/alat
        k(    1) = (   0.0000000   0.0000000   0.0000000), wk =   0.0312500
        k(    2) = (  -0.1498141  -0.0864952   0.3110508), wk =   0.1875000
        k(    3) = (   0.2996283   0.1729905  -0.6221017), wk =   0.0937500
        k(    4) = (  -0.1498141   0.0864952   0.6221017), wk =   0.1875000
        k(    5) = (   0.2996283   0.3459809  -0.3110508), wk =   0.1875000
        k(    6) = (   0.1498141   0.2594857   0.0000000), wk =   0.1875000
        k(    7) = (   0.2996283  -0.1729905  -1.2442034), wk =   0.0937500
        k(    8) = (   0.0000000   0.0000000   0.9331525), wk =   0.0625000
        k(    9) = (   0.4494424   0.2594857   0.0000000), wk =   0.1875000
        k(   10) = (   0.2996283   0.1729905   0.3110508), wk =   0.1875000
        k(   11) = (   0.4494424  -0.2594857  -0.9331525), wk =   0.1875000
        k(   12) = (   0.2996283  -0.3459809  -0.6221017), wk =   0.1875000
        k(   13) = (   0.0000000   0.0000000  -1.8663050), wk =   0.0312500
        k(   14) = (   0.2996283  -0.3459809   0.3110508), wk =   0.1875000

     Dense  grid:   272641 G-vectors     FFT dimensions: (  96,  96,  96)

     Estimated max dynamical RAM per process >      17.60 MB

     Estimated total dynamical RAM >       2.01 GB

     Initial potential from superposition of free atoms

     starting charge      95.9998, renormalised to      96.0000


     %%%%%%%%%%%%%%%%%%%%%%%%%%%%%%%%%%%%%%%%%%%%%%%%%%%%%%%%%%%%%%%%%%%%%%%%
     %                                                                      %
     % You are using vdW-DF, which was implemented by the Thonhauser group. %
     % Please cite the following two papers that made this development      %
     % possible and the two reviews that describe the various versions:     %
     %                                                                      %
     %   T. Thonhauser et al., PRL 115, 136402 (2015).                      %
     %   T. Thonhauser et al., PRB 76, 125112 (2007).                       %
     %   K. Berland et al., Rep. Prog. Phys. 78, 066501 (2015).             %
     %   D.C. Langreth et al., J. Phys.: Condens. Matter 21, 084203 (2009). %
     %                                                                      %
     % If you are calculating stress with vdW-DF, please also cite:         %
     %                                                                      %
     %   R. Sabatini et al., J. Phys.: Condens. Matter 24, 424209 (2012).   %
     %                                                                      %
     %%%%%%%%%%%%%%%%%%%%%%%%%%%%%%%%%%%%%%%%%%%%%%%%%%%%%%%%%%%%%%%%%%%%%%%%

     %%%%%%%%%%%%%%%%%%%%%%%%%%%%%%%%%%%%%%%%%%%%%%%%%%%%%%%%%%%%%%%%%%%%%%%%
     %                                                                      %
     %  vdW-DF NEWS:                                                        %
     %                                                                      %
     %  * vdW-DF3 is now available. DOI: 10.1021/acs.jctc.0c00471           %
     %    use with input_dft = 'vdW-DF3-opt1' or 'vdW-DF3-opt2'             %
     %                                                                      %
     %  * Unscreened and range-separated hybrid vdW-DF-cx functionals       %
     %    DOI: 10.1063/1.4986522 and 10.1088/1361-648X/ac2ad2               %
     %    use with input_dft = 'vdW-DF-cx0'    and 'vdW-DF-ahcx'            %
     %  * Unscreened and range-separated hybrid vdW-DF2-b86r functionals    %
     %    DOI: 10.1063/1.4986522 and DOI: 10.1103/PhysRevX.12.041003        %
     %    use with input_dft = 'vdW-DF2-br0' and 'vdW-DF2-ahbr'             %
     %                                                                      %
     %%%%%%%%%%%%%%%%%%%%%%%%%%%%%%%%%%%%%%%%%%%%%%%%%%%%%%%%%%%%%%%%%%%%%%%%


     Starting wfcs are   72 randomized atomic wfcs

     total cpu time spent up to now is        3.2 secs

     per-process dynamical memory:    21.3 Mb

     Self-consistent Calculation

     iteration #  1     ecut=    90.00 Ry     beta= 0.70
     Davidson diagonalization with overlap
     ethr =  1.00E-02,  avg # of iterations =  2.0

     total cpu time spent up to now is        4.3 secs

     total energy              =    -415.87214583 Ry
     estimated scf accuracy    <       4.53613091 Ry

     iteration #  2     ecut=    90.00 Ry     beta= 0.70
     Davidson diagonalization with overlap
     ethr =  4.73E-03,  avg # of iterations =  3.0

     total cpu time spent up to now is        5.7 secs

     total energy              =    -417.32076081 Ry
     estimated scf accuracy    <       3.91275652 Ry

     iteration #  3     ecut=    90.00 Ry     beta= 0.70
     Davidson diagonalization with overlap
     ethr =  4.08E-03,  avg # of iterations =  2.0

     total cpu time spent up to now is        6.8 secs

     total energy              =    -417.81982530 Ry
     estimated scf accuracy    <       0.18760283 Ry

     iteration #  4     ecut=    90.00 Ry     beta= 0.70
     Davidson diagonalization with overlap
     ethr =  1.95E-04,  avg # of iterations =  4.0

     total cpu time spent up to now is        8.2 secs

     total energy              =    -417.96320162 Ry
     estimated scf accuracy    <       0.21154524 Ry

     iteration #  5     ecut=    90.00 Ry     beta= 0.70
     Davidson diagonalization with overlap
     ethr =  1.95E-04,  avg # of iterations =  1.9

     negative rho (up, down):  1.669E-07 0.000E+00

     total cpu time spent up to now is        9.2 secs

     total energy              =    -417.96509701 Ry
     estimated scf accuracy    <       0.03455799 Ry

     iteration #  6     ecut=    90.00 Ry     beta= 0.70
     Davidson diagonalization with overlap
     ethr =  3.60E-05,  avg # of iterations =  2.0

     negative rho (up, down):  2.142E-07 0.000E+00

     total cpu time spent up to now is       10.3 secs

     total energy              =    -417.97198278 Ry
     estimated scf accuracy    <       0.00160704 Ry

     iteration #  7     ecut=    90.00 Ry     beta= 0.70
     Davidson diagonalization with overlap
     ethr =  1.67E-06,  avg # of iterations =  3.6

     negative rho (up, down):  2.159E-07 0.000E+00

     total cpu time spent up to now is       11.4 secs

     total energy              =    -417.97290153 Ry
     estimated scf accuracy    <       0.00036340 Ry

     iteration #  8     ecut=    90.00 Ry     beta= 0.70
     Davidson diagonalization with overlap
     ethr =  3.79E-07,  avg # of iterations =  1.6

     negative rho (up, down):  1.701E-07 0.000E+00

     total cpu time spent up to now is       12.3 secs

     total energy              =    -417.97284136 Ry
     estimated scf accuracy    <       0.00049206 Ry

     iteration #  9     ecut=    90.00 Ry     beta= 0.70
     Davidson diagonalization with overlap
     ethr =  3.79E-07,  avg # of iterations =  1.0

     negative rho (up, down):  1.419E-07 0.000E+00

     total cpu time spent up to now is       13.2 secs

     total energy              =    -417.97269951 Ry
     estimated scf accuracy    <       0.00027781 Ry

     iteration # 10     ecut=    90.00 Ry     beta= 0.70
     Davidson diagonalization with overlap
     ethr =  2.89E-07,  avg # of iterations =  2.0

     negative rho (up, down):  1.441E-07 0.000E+00

     total cpu time spent up to now is       14.3 secs

     total energy              =    -417.97277211 Ry
     estimated scf accuracy    <       0.00000658 Ry

     iteration # 11     ecut=    90.00 Ry     beta= 0.70
     Davidson diagonalization with overlap
     ethr =  6.85E-09,  avg # of iterations =  4.0

     negative rho (up, down):  1.449E-07 0.000E+00

     total cpu time spent up to now is       15.7 secs

     total energy              =    -417.97277669 Ry
     estimated scf accuracy    <       0.00002073 Ry

     iteration # 12     ecut=    90.00 Ry     beta= 0.70
     Davidson diagonalization with overlap
     ethr =  6.85E-09,  avg # of iterations =  1.0

     negative rho (up, down):  1.806E-07 0.000E+00

     total cpu time spent up to now is       16.6 secs

     total energy              =    -417.97276589 Ry
     estimated scf accuracy    <       0.00001806 Ry

     iteration # 13     ecut=    90.00 Ry     beta= 0.70
     Davidson diagonalization with overlap
     ethr =  6.85E-09,  avg # of iterations =  4.0

     negative rho (up, down):  1.707E-07 0.000E+00

     total cpu time spent up to now is       18.1 secs

     total energy              =    -417.97277002 Ry
     estimated scf accuracy    <       0.00002146 Ry

     iteration # 14     ecut=    90.00 Ry     beta= 0.70
     Davidson diagonalization with overlap
     ethr =  6.85E-09,  avg # of iterations =  2.6

     negative rho (up, down):  1.658E-07 0.000E+00

     total cpu time spent up to now is       19.3 secs

     total energy              =    -417.97277139 Ry
     estimated scf accuracy    <       0.00000146 Ry

     iteration # 15     ecut=    90.00 Ry     beta= 0.70
     Davidson diagonalization with overlap
     ethr =  1.52E-09,  avg # of iterations =  5.0

     negative rho (up, down):  1.680E-07 0.000E+00

     total cpu time spent up to now is       20.9 secs

     total energy              =    -417.97277344 Ry
     estimated scf accuracy    <       0.00000686 Ry

     iteration # 16     ecut=    90.00 Ry     beta= 0.70
     Davidson diagonalization with overlap
     ethr =  1.52E-09,  avg # of iterations =  1.0

     negative rho (up, down):  1.699E-07 0.000E+00

     total cpu time spent up to now is       21.7 secs

     total energy              =    -417.97277232 Ry
     estimated scf accuracy    <       0.00000390 Ry

     iteration # 17     ecut=    90.00 Ry     beta= 0.70
     Davidson diagonalization with overlap
     ethr =  1.52E-09,  avg # of iterations =  2.0

     negative rho (up, down):  1.703E-07 0.000E+00

     total cpu time spent up to now is       22.8 secs

     total energy              =    -417.97277256 Ry
     estimated scf accuracy    <       0.00000060 Ry

     iteration # 18     ecut=    90.00 Ry     beta= 0.70
     Davidson diagonalization with overlap
     ethr =  6.28E-10,  avg # of iterations =  1.0

     negative rho (up, down):  1.701E-07 0.000E+00

     total cpu time spent up to now is       23.7 secs

     total energy              =    -417.97277259 Ry
     estimated scf accuracy    <       0.00000025 Ry

     iteration # 19     ecut=    90.00 Ry     beta= 0.70
     Davidson diagonalization with overlap
     ethr =  2.57E-10,  avg # of iterations =  1.0

     negative rho (up, down):  1.708E-07 0.000E+00

     total cpu time spent up to now is       24.5 secs

     total energy              =    -417.97277248 Ry
     estimated scf accuracy    <       0.00000026 Ry

     iteration # 20     ecut=    90.00 Ry     beta= 0.70
     Davidson diagonalization with overlap
     ethr =  2.57E-10,  avg # of iterations =  2.9

     negative rho (up, down):  1.707E-07 0.000E+00

     total cpu time spent up to now is       25.7 secs

     End of self-consistent calculation

          k = 0.0000 0.0000 0.0000 ( 34105 PWs)   bands (ev):

   -21.2545 -20.9091 -20.9091 -20.7546 -20.7546 -20.7248 -20.7202 -20.7194
   -20.7194 -20.5015 -20.5015 -20.2698  -8.9674  -8.8983  -8.8983  -8.8859
    -8.8190  -8.8190  -8.5755  -8.5755  -8.5667  -8.5265  -8.5265  -8.5224
    -7.3007  -6.3888  -6.3888  -5.8772  -5.8772  -5.7291  -5.7291  -5.5932
    -5.4758  -4.8882  -4.8882  -4.2283  -3.7333  -3.7333  -3.7099  -3.6001
    -3.6001  -3.5705  -3.4804  -3.4804  -3.4474  -3.3959  -3.3488  -3.3488

          k =-0.1498-0.0865 0.3111 ( 34065 PWs)   bands (ev):

   -21.1995 -20.9407 -20.9026 -20.8568 -20.8283 -20.7783 -20.6862 -20.6519
   -20.6071 -20.5046 -20.4740 -20.3126  -8.9388  -8.9127  -8.8961  -8.8684
    -8.8144  -8.7884  -8.6195  -8.5990  -8.5905  -8.5208  -8.4755  -8.4677
    -7.1598  -6.5361  -6.4198  -6.1489  -5.9489  -5.7391  -5.5879  -5.4758
    -5.3254  -4.8820  -4.8297  -4.3674  -3.7970  -3.7418  -3.7209  -3.6514
    -3.6386  -3.5984  -3.5142  -3.4742  -3.4215  -3.4107  -3.3619  -3.3408

          k = 0.2996 0.1730-0.6221 ( 34070 PWs)   bands (ev):

   -21.0588 -21.0562 -20.9244 -20.9161 -20.8271 -20.8265 -20.6449 -20.6446
   -20.5128 -20.5024 -20.4169 -20.4162  -8.9196  -8.9068  -8.8739  -8.8700
    -8.8158  -8.7693  -8.6374  -8.6198  -8.6039  -8.5091  -8.4418  -8.4326
    -6.8645  -6.7826  -6.4179  -6.4086  -5.9309  -5.8788  -5.4795  -5.4022
    -5.0108  -4.9395  -4.7954  -4.5837  -3.8580  -3.7584  -3.7097  -3.6986
    -3.6517  -3.6313  -3.5534  -3.4782  -3.4583  -3.3916  -3.3484  -3.3316

          k =-0.1498 0.0865 0.6221 ( 34086 PWs)   bands (ev):

   -21.0901 -20.9851 -20.9761 -20.8870 -20.8663 -20.8172 -20.6517 -20.5921
   -20.5594 -20.4722 -20.4595 -20.3901  -8.9201  -8.9029  -8.8798  -8.8734
    -8.8110  -8.7625  -8.6355  -8.6271  -8.6132  -8.4855  -8.4558  -8.4334
    -6.9079  -6.6530  -6.6133  -6.2185  -6.0484  -5.8862  -5.4755  -5.2682
    -5.1631  -4.8629  -4.8077  -4.5940  -3.8442  -3.7826  -3.7061  -3.6830
    -3.6511  -3.6293  -3.5633  -3.4781  -3.4473  -3.3904  -3.3684  -3.3204

          k = 0.2996 0.3460-0.3111 ( 34081 PWs)   bands (ev):

   -21.1253 -21.0056 -20.9379 -20.9035 -20.8534 -20.7990 -20.6529 -20.5734
   -20.5601 -20.5012 -20.4540 -20.3761  -8.9242  -8.9203  -8.8870  -8.8571
    -8.8075  -8.7831  -8.6708  -8.6397  -8.6141  -8.5015  -8.4695  -8.4435
    -6.9178  -6.6379  -6.4739  -6.2578  -6.2044  -5.7494  -5.4025  -5.3143
    -5.1636  -4.9120  -4.8065  -4.5530  -3.7999  -3.7575  -3.7151  -3.6752
    -3.6343  -3.5849  -3.5306  -3.5084  -3.4279  -3.4256  -3.3590  -3.2893

          k = 0.1498 0.2595 0.0000 ( 34077 PWs)   bands (ev):

   -21.2136 -20.9617 -20.9208 -20.8392 -20.8150 -20.7568 -20.6897 -20.6379
   -20.6060 -20.5071 -20.4851 -20.3053  -8.9538  -8.9100  -8.9005  -8.8680
    -8.8141  -8.8080  -8.6390  -8.6171  -8.5806  -8.5336  -8.5129  -8.4728
    -7.1504  -6.4412  -6.3597  -6.1781  -6.1475  -5.6536  -5.5032  -5.3905
    -5.3635  -4.9215  -4.8778  -4.3305  -3.7368  -3.7260  -3.7208  -3.6388
    -3.6038  -3.5841  -3.5094  -3.4942  -3.4356  -3.4131  -3.3306  -3.3144

          k = 0.2996-0.1730-1.2442 ( 34078 PWs)   bands (ev):

   -21.1174 -21.0843 -20.9279 -20.8807 -20.8100 -20.7804 -20.6399 -20.6336
   -20.5374 -20.5317 -20.4003 -20.3941  -8.9349  -8.9191  -8.8948  -8.8592
    -8.8038  -8.8022  -8.6919  -8.6514  -8.5989  -8.5135  -8.5056  -8.4635
    -6.7891  -6.7595  -6.4401  -6.3191  -6.0904  -5.7712  -5.3352  -5.3238
    -5.1535  -5.0288  -4.7089  -4.5668  -3.7471  -3.7263  -3.7124  -3.6665
    -3.6084  -3.5831  -3.5370  -3.4845  -3.4772  -3.4031  -3.3034  -3.2993

          k = 0.0000 0.0000 0.9332 ( 34071 PWs)   bands (ev):

   -21.0437 -21.0437 -20.9786 -20.9633 -20.8224 -20.8224 -20.5941 -20.5941
   -20.4933 -20.4802 -20.4534 -20.4534  -8.9192  -8.9192  -8.8944  -8.8237
    -8.8237  -8.8051  -8.7003  -8.6375  -8.6375  -8.4563  -8.4563  -8.4378
    -6.7036  -6.7036  -6.6611  -6.3410  -6.0186  -6.0186  -5.1908  -5.1908
    -5.1175  -4.8619  -4.8619  -4.7552  -3.7642  -3.7642  -3.6891  -3.6727
    -3.6084  -3.6084  -3.5764  -3.4766  -3.4766  -3.3947  -3.3947  -3.2698

          k = 0.4494 0.2595 0.0000 ( 34085 PWs)   bands (ev):

   -21.1383 -21.0123 -21.0036 -20.8822 -20.7756 -20.7633 -20.6685 -20.6519
   -20.5323 -20.4809 -20.4596 -20.3695  -8.9338  -8.9127  -8.9052  -8.8504
    -8.8275  -8.7778  -8.7017  -8.6427  -8.6121  -8.5094  -8.4985  -8.4666
    -6.8916  -6.5317  -6.4977  -6.4178  -6.0549  -5.7628  -5.4127  -5.3362
    -5.0776  -4.9375  -4.8374  -4.5282  -3.7371  -3.7299  -3.7173  -3.6597
    -3.6265  -3.5881  -3.5222  -3.5001  -3.4638  -3.3831  -3.3345  -3.2862

          k = 0.2996 0.1730 0.3111 ( 34062 PWs)   bands (ev):

   -21.1612 -20.9712 -20.9148 -20.8957 -20.8419 -20.7884 -20.6650 -20.6248
   -20.5892 -20.4900 -20.4586 -20.3416  -8.9308  -8.9172  -8.8883  -8.8509
    -8.8197  -8.7652  -8.6522  -8.6089  -8.5851  -8.5518  -8.5000  -8.4554
    -7.0218  -6.5124  -6.4820  -6.2180  -6.1258  -5.7424  -5.4973  -5.3521
    -5.2884  -4.8689  -4.8205  -4.4333  -3.8172  -3.7532  -3.7303  -3.6859
    -3.6574  -3.5667  -3.5427  -3.4796  -3.4065  -3.4057  -3.3479  -3.3235

          k = 0.4494-0.2595-0.9332 ( 34060 PWs)   bands (ev):

   -21.0640 -21.0577 -20.9561 -20.9271 -20.8325 -20.7645 -20.6934 -20.6165
   -20.5243 -20.4742 -20.4434 -20.3884  -8.9242  -8.9055  -8.8961  -8.8362
    -8.8057  -8.7525  -8.6737  -8.6369  -8.6044  -8.5570  -8.4977  -8.4680
    -6.7512  -6.6578  -6.5266  -6.3353  -6.1435  -5.7664  -5.5465  -5.2843
    -5.0670  -4.8680  -4.8337  -4.5329  -3.8259  -3.7715  -3.7480  -3.6996
    -3.6764  -3.5823  -3.5050  -3.4883  -3.4237  -3.3910  -3.3304  -3.3124

          k = 0.2996-0.3460-0.6221 ( 34086 PWs)   bands (ev):

   -21.0328 -21.0277 -20.9506 -20.9439 -20.8438 -20.8434 -20.6312 -20.6294
   -20.5098 -20.5048 -20.4181 -20.4113  -8.9244  -8.8795  -8.8691  -8.8532
    -8.8390  -8.7265  -8.6641  -8.6212  -8.5985  -8.5379  -8.4672  -8.4573
    -6.7505  -6.7228  -6.4703  -6.4257  -6.0025  -5.9732  -5.3980  -5.3434
    -5.0239  -4.9911  -4.7606  -4.5591  -3.8787  -3.7725  -3.7452  -3.7401
    -3.6995  -3.5842  -3.5032  -3.4915  -3.4476  -3.3721  -3.3597  -3.3160

          k = 0.0000 0.0000-1.8663 ( 34092 PWs)   bands (ev):

   -21.0063 -20.9929 -20.9248 -20.9248 -20.9226 -20.9226 -20.5657 -20.5657
   -20.5544 -20.5544 -20.4124 -20.3998  -8.9249  -8.8548  -8.8548  -8.8462
    -8.8462  -8.7102  -8.6618  -8.6275  -8.5836  -8.5836  -8.4902  -8.4902
    -6.7402  -6.6108  -6.3084  -6.3084  -6.2413  -6.2413  -5.1775  -5.1775
    -5.1471  -5.1471  -4.7130  -4.5344  -3.8890  -3.7752  -3.7752  -3.7683
    -3.7683  -3.5365  -3.5087  -3.4324  -3.4324  -3.3875  -3.3875  -3.2925

          k = 0.2996-0.3460 0.3111 ( 34081 PWs)   bands (ev):

   -21.1254 -21.0044 -20.9417 -20.9016 -20.8525 -20.7988 -20.6519 -20.5771
   -20.5610 -20.4977 -20.4536 -20.3769  -8.9301  -8.9078  -8.8951  -8.8468
    -8.8159  -8.7837  -8.6796  -8.6358  -8.6099  -8.4986  -8.4631  -8.4519
    -6.9194  -6.6164  -6.5223  -6.2410  -6.1551  -5.8012  -5.4851  -5.2069
    -5.0926  -4.9705  -4.8517  -4.5304  -3.8074  -3.7483  -3.7089  -3.6686
    -3.6430  -3.5851  -3.5380  -3.5190  -3.4352  -3.4014  -3.3594  -3.2938

     highest occupied level (ev):    -3.2698

!    total energy              =    -417.97277254 Ry
     estimated scf accuracy    <          7.4E-10 Ry

     The total energy is the sum of the following terms:
     one-electron contribution =    -310.37675362 Ry
     hartree contribution      =     188.01305626 Ry
     xc contribution           =    -104.71931170 Ry
     ewald contribution        =    -190.88976348 Ry

     convergence has been achieved in  20 iterations

     Forces acting on atoms (cartesian axes, Ry/au):

     atom    1 type  2   force =    -0.01662043    0.06017022    0.03432816
     atom    2 type  2   force =     0.01662043   -0.06017022   -0.03432816
     atom    3 type  2   force =    -0.04379872   -0.04447883    0.03432816
     atom    4 type  2   force =     0.04379872    0.04447883   -0.03432816
     atom    5 type  2   force =     0.06041916   -0.01569139    0.03432816
     atom    6 type  2   force =    -0.06041916    0.01569139   -0.03432816
     atom    7 type  2   force =    -0.04679814    0.03589195   -0.02827656
     atom    8 type  2   force =     0.04679814   -0.03589195    0.02827656
     atom    9 type  2   force =    -0.00768427   -0.05847436   -0.02827656
     atom   10 type  2   force =     0.00768427    0.05847436    0.02827656
     atom   11 type  2   force =     0.05448241    0.02258241   -0.02827656
     atom   12 type  2   force =    -0.05448241   -0.02258241    0.02827656
     atom   13 type  1   force =     0.02747455   -0.04946504    0.02708961
     atom   14 type  1   force =    -0.02747455    0.04946504   -0.02708961
     atom   15 type  1   force =     0.02910070    0.04852618    0.02708961
     atom   16 type  1   force =    -0.02910070   -0.04852618   -0.02708961
     atom   17 type  1   force =    -0.05657526    0.00093886    0.02708961
     atom   18 type  1   force =     0.05657526   -0.00093886   -0.02708961
     atom   19 type  1   force =    -0.01208016   -0.01115196   -0.06134984
     atom   20 type  1   force =     0.01208016    0.01115196    0.06134984
     atom   21 type  1   force =     0.01569796   -0.00488575   -0.06134984
     atom   22 type  1   force =    -0.01569796    0.00488575    0.06134984
     atom   23 type  1   force =    -0.00361780    0.01603771   -0.06134984
     atom   24 type  1   force =     0.00361780   -0.01603771    0.06134984
     atom   25 type  1   force =    -0.01691635   -0.06122226   -0.00160941
     atom   26 type  1   force =     0.01691635    0.06122226    0.00160941
     atom   27 type  1   force =     0.06147821    0.01596115   -0.00160941
     atom   28 type  1   force =    -0.06147821   -0.01596115    0.00160941
     atom   29 type  1   force =    -0.04456186    0.04526112   -0.00160941
     atom   30 type  1   force =     0.04456186   -0.04526112    0.00160941
     atom   31 type  1   force =    -0.03985839    0.03874852    0.03352288
     atom   32 type  1   force =     0.03985839   -0.03874852   -0.03352288
     atom   33 type  1   force =    -0.01362801   -0.05389263    0.03352288
     atom   34 type  1   force =     0.01362801    0.05389263   -0.03352288
     atom   35 type  1   force =     0.05348639    0.01514412    0.03352288
     atom   36 type  1   force =    -0.05348639   -0.01514412   -0.03352288

     Total force =     0.391715     Total SCF correction =     0.000012


     Computing stress (Cartesian axis) and pressure

          total   stress  (Ry/bohr**3)                   (kbar)     P=      -85.41
  -0.00058408  -0.00000000   0.00000000          -85.92       -0.00        0.00
   0.00000000  -0.00058408  -0.00000000            0.00      -85.92       -0.00
  -0.00000000  -0.00000000  -0.00057368           -0.00       -0.00      -84.39


     Writing all to output data dir ./iceII/iceII.save/ :
     XML data file, charge density, pseudopotentials, collected wavefunctions

     init_run     :      2.95s CPU      3.04s WALL (       1 calls)
     electrons    :     21.37s CPU     22.46s WALL (       1 calls)
     forces       :      0.15s CPU      0.16s WALL (       1 calls)
     stress       :      1.20s CPU      1.27s WALL (       1 calls)

     Called by init_run:
     wfcinit      :      0.37s CPU      0.38s WALL (       1 calls)
     potinit      :      1.71s CPU      1.77s WALL (       1 calls)
     hinit0       :      0.67s CPU      0.68s WALL (       1 calls)

     Called by electrons:
     c_bands      :     15.22s CPU     15.35s WALL (      20 calls)
     sum_band     :      2.36s CPU      2.39s WALL (      20 calls)
     v_of_rho     :      5.18s CPU      6.11s WALL (      21 calls)
     newd         :      0.13s CPU      0.13s WALL (      21 calls)
     mix_rho      :      0.11s CPU      0.11s WALL (      20 calls)
     vdW_kernel   :      1.51s CPU      1.52s WALL (       1 calls)

     Called by c_bands:
     init_us_2    :      0.30s CPU      0.31s WALL (     172 calls)
     cegterg      :     14.74s CPU     14.83s WALL (      80 calls)

     Called by *egterg:
     cdiaghg      :      1.02s CPU      1.03s WALL (     269 calls)
     h_psi        :     11.47s CPU     11.55s WALL (     273 calls)
     s_psi        :      0.52s CPU      0.53s WALL (     273 calls)
     g_psi        :      0.03s CPU      0.03s WALL (     189 calls)

     Called by h_psi:
     h_psi:calbec :      0.84s CPU      0.84s WALL (     273 calls)
     vloc_psi     :     10.01s CPU     10.07s WALL (     273 calls)
     add_vuspsi   :      0.53s CPU      0.53s WALL (     273 calls)

     General routines
     calbec       :      1.12s CPU      1.13s WALL (     373 calls)
     fft          :      2.49s CPU      3.08s WALL (    1333 calls)
     ffts         :      0.02s CPU      0.03s WALL (      20 calls)
     fftw         :     10.50s CPU     10.56s WALL (   26742 calls)

     Parallel routines

     PWSCF        :     26.02s CPU     27.62s WALL


   This run was terminated on:  16: 1: 9  26Mar2026            

=------------------------------------------------------------------------------=
   JOB DONE.
=------------------------------------------------------------------------------=
