
     Program PWSCF v.7.3.1 starts on  1Apr2026 at 15:52: 0 

     This program is part of the open-source Quantum ESPRESSO suite
     for quantum simulation of materials; please cite
         "P. Giannozzi et al., J. Phys.:Condens. Matter 21 395502 (2009);
         "P. Giannozzi et al., J. Phys.:Condens. Matter 29 465901 (2017);
         "P. Giannozzi et al., J. Chem. Phys. 152 154105 (2020);
          URL http://www.quantum-espresso.org", 
     in publications or presentations arising from this work. More details at
     http://www.quantum-espresso.org/quote

     Parallel version (MPI), running on   128 processors

     MPI processes distributed on     1 nodes
     242570 MiB available memory on the printing compute node when the environment starts

     Waiting for input...
     Reading input from standard input

     Current dimensions of program PWSCF are:
     Max number of different atomic species (ntypx) = 10
     Max number of k-points (npk) =  40000
     Max angular momentum in pseudopotentials (lmaxx) =  4

     IMPORTANT: XC functional enforced from input :
     Exchange-correlation= VDW-DF2
                           (   1   4  13   0   2   0   0)
     Any further DFT definition will be discarded
     Please, verify this is what you really want


     K-points division:     npool     =       4
     R & G space division:  proc/nbgrp/npool/nimage =      32
     Subspace diagonalization in iterative solution of the eigenvalue problem:
     a serial algorithm will be used


     Parallelization info
     --------------------
     sticks:   dense  smooth     PW     G-vecs:    dense   smooth      PW
     Min         196     196     57                 8594     8594    1354
     Max         197     197     58                 8597     8597    1357
     Sum        6295    6295   1837               275053   275053   43351

     Using Slab Decomposition



     bravais-lattice index     =            5
     lattice parameter (alat)  =      15.4519  a.u.
     unit-cell volume          =    2383.6136 (a.u.)^3
     number of atoms/cell      =           36
     number of atomic types    =            2
     number of electrons       =        96.00
     number of Kohn-Sham states=           48
     kinetic-energy cutoff     =      90.0000  Ry
     charge density cutoff     =     360.0000  Ry
     scf convergence threshold =      1.0E-07
     mixing beta               =       0.7000
     number of iterations used =            8  plain     mixing
     energy convergence thresh.=      1.0E-04
     force convergence thresh. =      1.0E-03
     Exchange-correlation= VDW-DF2
                           (   1   4  13   0   2   0   0)
     nstep                     =           50


     celldm(1)=  15.451874  celldm(2)=   0.000000  celldm(3)=   0.000000
     celldm(4)=  -0.392337  celldm(5)=   0.000000  celldm(6)=   0.000000

     crystal axes: (cart. coord. in units of alat)
               a(1) = (   0.834367  -0.481722   0.267909 )  
               a(2) = (   0.000000   0.963444   0.267909 )  
               a(3) = (  -0.834367  -0.481722   0.267909 )  

     reciprocal axes: (cart. coord. in units 2 pi/alat)
               b(1) = (  0.599257 -0.345981  1.244203 )  
               b(2) = (  0.000000  0.691962  1.244203 )  
               b(3) = ( -0.599257 -0.345981  1.244203 )  


     PseudoPot. # 1 for H  read from file:
     ./H.pbe-van_ak.UPF
     MD5 check sum: 077eb6d537518a38cb46c6de387227b7
     Pseudo is Ultrasoft, Zval =  1.0
     Generated by new atomic code, or converted to UPF format
     Using radial grid of  615 points,  1 beta functions with: 
                l(1) =   0
     Q(r) pseudized with  8 coefficients,  rinner =    0.800

     PseudoPot. # 2 for O  read from file:
     ./O.pbe-van_ak.UPF
     MD5 check sum: 78c19812648e8988a0fe644b0f25305e
     Pseudo is Ultrasoft, Zval =  6.0
     Generated by new atomic code, or converted to UPF format
     Using radial grid of  737 points,  4 beta functions with: 
                l(1) =   0
                l(2) =   0
                l(3) =   1
                l(4) =   1
     Q(r) pseudized with  8 coefficients,  rinner =    0.800   0.800   0.800


     atomic species   valence    mass     pseudopotential
     H                 1.00     1.00800     H ( 1.00)
     O                 6.00    16.00000     O ( 1.00)

      6 Sym. Ops., with inversion, found



   Cartesian axes

     site n.     atom                  positions (alat units)
         1        O      tau(   1) = (  -0.4847673  -0.5197781   0.3083633  )
         2        O      tau(   2) = (   0.4847673   0.5197782   0.4953638  )
         3        O      tau(   3) = (   0.6925247  -0.1599317   0.3083633  )
         4        O      tau(   4) = (  -0.6925248   0.1599317   0.4953638  )
         5        O      tau(   5) = (  -0.2077574   0.6797099   0.3083633  )
         6        O      tau(   6) = (   0.2077574  -0.6797099   0.4953638  )
         7        O      tau(   7) = (   0.1218176   0.3323883   0.4179381  )
         8        O      tau(   8) = (  -0.1218176  -0.3323883   0.3857890  )
         9        O      tau(   9) = (  -0.3487655  -0.0606970   0.4179381  )
        10        O      tau(  10) = (   0.3487655   0.0606970   0.3857890  )
        11        O      tau(  11) = (   0.2269479  -0.2716913   0.4179381  )
        12        O      tau(  12) = (  -0.2269479   0.2716912   0.3857890  )
        13        H      tau(  13) = (  -0.5381668  -0.4032014   0.2796970  )
        14        H      tau(  14) = (   0.5381668   0.4032014   0.5240301  )
        15        H      tau(  15) = (   0.6182661  -0.2644654   0.2796970  )
        16        H      tau(  16) = (  -0.6182661   0.2644654   0.5240301  )
        17        H      tau(  17) = (  -0.0800993   0.6676668   0.2796970  )
        18        H      tau(  18) = (   0.0800993  -0.6676668   0.5240301  )
        19        H      tau(  19) = (  -0.4872704  -0.4817221   0.4326731  )
        20        H      tau(  20) = (   0.4872704   0.4817221   0.3710540  )
        21        H      tau(  21) = (   0.6608188  -0.1811275   0.4326731  )
        22        H      tau(  22) = (  -0.6608188   0.1811275   0.3710540  )
        23        H      tau(  23) = (  -0.1735484   0.6628496   0.4326731  )
        24        H      tau(  24) = (   0.1735484  -0.6628496   0.3710540  )
        25        H      tau(  25) = (   0.2703349  -0.1502973   0.4058822  )
        26        H      tau(  26) = (  -0.2703350   0.1502973   0.3978449  )
        27        H      tau(  27) = (  -0.0050062   0.3092656   0.4058822  )
        28        H      tau(  28) = (   0.0050062  -0.3092656   0.3978449  )
        29        H      tau(  29) = (  -0.2653287  -0.1589683   0.4058822  )
        30        H      tau(  30) = (   0.2653287   0.1589683   0.3978449  )
        31        H      tau(  31) = (   0.3178939  -0.3347969   0.3493534  )
        32        H      tau(  32) = (  -0.3178939   0.3347969   0.4543737  )
        33        H      tau(  33) = (   0.1309957   0.4427026   0.3493534  )
        34        H      tau(  34) = (  -0.1309956  -0.4427026   0.4543737  )
        35        H      tau(  35) = (  -0.4488895  -0.1079057   0.3493534  )
        36        H      tau(  36) = (   0.4488895   0.1079057   0.4543737  )

     number of k points=    14
                       cart. coord. in units 2pi/alat
        k(    1) = (   0.0000000   0.0000000   0.0000000), wk =   0.0312500
        k(    2) = (  -0.1498141  -0.0864952   0.3110508), wk =   0.1875000
        k(    3) = (   0.2996283   0.1729905  -0.6221017), wk =   0.0937500
        k(    4) = (  -0.1498141   0.0864952   0.6221017), wk =   0.1875000
        k(    5) = (   0.2996283   0.3459809  -0.3110508), wk =   0.1875000
        k(    6) = (   0.1498141   0.2594857   0.0000000), wk =   0.1875000
        k(    7) = (   0.2996283  -0.1729905  -1.2442034), wk =   0.0937500
        k(    8) = (   0.0000000   0.0000000   0.9331525), wk =   0.0625000
        k(    9) = (   0.4494424   0.2594857   0.0000000), wk =   0.1875000
        k(   10) = (   0.2996283   0.1729905   0.3110508), wk =   0.1875000
        k(   11) = (   0.4494424  -0.2594857  -0.9331525), wk =   0.1875000
        k(   12) = (   0.2996283  -0.3459809  -0.6221017), wk =   0.1875000
        k(   13) = (   0.0000000   0.0000000  -1.8663050), wk =   0.0312500
        k(   14) = (   0.2996283  -0.3459809   0.3110508), wk =   0.1875000

     Dense  grid:   275053 G-vectors     FFT dimensions: (  96,  96,  96)

     Estimated max dynamical RAM per process >      17.73 MB

     Estimated total dynamical RAM >       2.02 GB

     Initial potential from superposition of free atoms

     starting charge      95.9998, renormalised to      96.0000


     %%%%%%%%%%%%%%%%%%%%%%%%%%%%%%%%%%%%%%%%%%%%%%%%%%%%%%%%%%%%%%%%%%%%%%%%
     %                                                                      %
     % You are using vdW-DF, which was implemented by the Thonhauser group. %
     % Please cite the following two papers that made this development      %
     % possible and the two reviews that describe the various versions:     %
     %                                                                      %
     %   T. Thonhauser et al., PRL 115, 136402 (2015).                      %
     %   T. Thonhauser et al., PRB 76, 125112 (2007).                       %
     %   K. Berland et al., Rep. Prog. Phys. 78, 066501 (2015).             %
     %   D.C. Langreth et al., J. Phys.: Condens. Matter 21, 084203 (2009). %
     %                                                                      %
     % If you are calculating stress with vdW-DF, please also cite:         %
     %                                                                      %
     %   R. Sabatini et al., J. Phys.: Condens. Matter 24, 424209 (2012).   %
     %                                                                      %
     %%%%%%%%%%%%%%%%%%%%%%%%%%%%%%%%%%%%%%%%%%%%%%%%%%%%%%%%%%%%%%%%%%%%%%%%

     %%%%%%%%%%%%%%%%%%%%%%%%%%%%%%%%%%%%%%%%%%%%%%%%%%%%%%%%%%%%%%%%%%%%%%%%
     %                                                                      %
     %  vdW-DF NEWS:                                                        %
     %                                                                      %
     %  * vdW-DF3 is now available. DOI: 10.1021/acs.jctc.0c00471           %
     %    use with input_dft = 'vdW-DF3-opt1' or 'vdW-DF3-opt2'             %
     %                                                                      %
     %  * Unscreened and range-separated hybrid vdW-DF-cx functionals       %
     %    DOI: 10.1063/1.4986522 and 10.1088/1361-648X/ac2ad2               %
     %    use with input_dft = 'vdW-DF-cx0'    and 'vdW-DF-ahcx'            %
     %  * Unscreened and range-separated hybrid vdW-DF2-b86r functionals    %
     %    DOI: 10.1063/1.4986522 and DOI: 10.1103/PhysRevX.12.041003        %
     %    use with input_dft = 'vdW-DF2-br0' and 'vdW-DF2-ahbr'             %
     %                                                                      %
     %%%%%%%%%%%%%%%%%%%%%%%%%%%%%%%%%%%%%%%%%%%%%%%%%%%%%%%%%%%%%%%%%%%%%%%%


     Starting wfcs are   72 randomized atomic wfcs

     total cpu time spent up to now is        3.3 secs

     per-process dynamical memory:    21.7 Mb

     Self-consistent Calculation

     iteration #  1     ecut=    90.00 Ry     beta= 0.70
     Davidson diagonalization with overlap
     ethr =  1.00E-02,  avg # of iterations =  2.0

     total cpu time spent up to now is        4.4 secs

     total energy              =    -415.78603618 Ry
     estimated scf accuracy    <       4.30862215 Ry

     iteration #  2     ecut=    90.00 Ry     beta= 0.70
     Davidson diagonalization with overlap
     ethr =  4.49E-03,  avg # of iterations =  3.0

     total cpu time spent up to now is        5.8 secs

     total energy              =    -417.16149090 Ry
     estimated scf accuracy    <       3.91368499 Ry

     iteration #  3     ecut=    90.00 Ry     beta= 0.70
     Davidson diagonalization with overlap
     ethr =  4.08E-03,  avg # of iterations =  2.0

     negative rho (up, down):  5.857E-08 0.000E+00

     total cpu time spent up to now is        6.8 secs

     total energy              =    -417.64570735 Ry
     estimated scf accuracy    <       0.20316240 Ry

     iteration #  4     ecut=    90.00 Ry     beta= 0.70
     Davidson diagonalization with overlap
     ethr =  2.12E-04,  avg # of iterations =  4.0

     negative rho (up, down):  1.253E-07 0.000E+00

     total cpu time spent up to now is        8.3 secs

     total energy              =    -417.79807503 Ry
     estimated scf accuracy    <       0.19918602 Ry

     iteration #  5     ecut=    90.00 Ry     beta= 0.70
     Davidson diagonalization with overlap
     ethr =  2.07E-04,  avg # of iterations =  1.0

     negative rho (up, down):  1.797E-07 0.000E+00

     total cpu time spent up to now is        9.2 secs

     total energy              =    -417.79803570 Ry
     estimated scf accuracy    <       0.03745068 Ry

     iteration #  6     ecut=    90.00 Ry     beta= 0.70
     Davidson diagonalization with overlap
     ethr =  3.90E-05,  avg # of iterations =  2.0

     negative rho (up, down):  2.002E-07 0.000E+00

     total cpu time spent up to now is       10.2 secs

     total energy              =    -417.80415192 Ry
     estimated scf accuracy    <       0.00228322 Ry

     iteration #  7     ecut=    90.00 Ry     beta= 0.70
     Davidson diagonalization with overlap
     ethr =  2.38E-06,  avg # of iterations =  2.0

     negative rho (up, down):  2.054E-07 0.000E+00

     total cpu time spent up to now is       11.4 secs

     total energy              =    -417.80480355 Ry
     estimated scf accuracy    <       0.00012311 Ry

     iteration #  8     ecut=    90.00 Ry     beta= 0.70
     Davidson diagonalization with overlap
     ethr =  1.28E-07,  avg # of iterations =  5.0

     negative rho (up, down):  2.060E-07 0.000E+00

     total cpu time spent up to now is       12.8 secs

     total energy              =    -417.80490589 Ry
     estimated scf accuracy    <       0.00030312 Ry

     iteration #  9     ecut=    90.00 Ry     beta= 0.70
     Davidson diagonalization with overlap
     ethr =  1.28E-07,  avg # of iterations =  1.8

     negative rho (up, down):  1.998E-07 0.000E+00

     total cpu time spent up to now is       13.8 secs

     total energy              =    -417.80478336 Ry
     estimated scf accuracy    <       0.00033089 Ry

     iteration # 10     ecut=    90.00 Ry     beta= 0.70
     Davidson diagonalization with overlap
     ethr =  1.28E-07,  avg # of iterations =  3.0

     negative rho (up, down):  1.969E-07 0.000E+00

     total cpu time spent up to now is       15.0 secs

     total energy              =    -417.80479875 Ry
     estimated scf accuracy    <       0.00003968 Ry

     iteration # 11     ecut=    90.00 Ry     beta= 0.70
     Davidson diagonalization with overlap
     ethr =  4.13E-08,  avg # of iterations =  3.0

     negative rho (up, down):  1.976E-07 0.000E+00

     total cpu time spent up to now is       16.3 secs

     total energy              =    -417.80481487 Ry
     estimated scf accuracy    <       0.00000269 Ry

     iteration # 12     ecut=    90.00 Ry     beta= 0.70
     Davidson diagonalization with overlap
     ethr =  2.80E-09,  avg # of iterations =  2.1

     negative rho (up, down):  1.986E-07 0.000E+00

     total cpu time spent up to now is       17.3 secs

     total energy              =    -417.80481544 Ry
     estimated scf accuracy    <       0.00000091 Ry

     iteration # 13     ecut=    90.00 Ry     beta= 0.70
     Davidson diagonalization with overlap
     ethr =  9.47E-10,  avg # of iterations =  1.1

     negative rho (up, down):  1.992E-07 0.000E+00

     total cpu time spent up to now is       18.2 secs

     total energy              =    -417.80481529 Ry
     estimated scf accuracy    <       0.00000059 Ry

     iteration # 14     ecut=    90.00 Ry     beta= 0.70
     Davidson diagonalization with overlap
     ethr =  6.18E-10,  avg # of iterations =  2.0

     negative rho (up, down):  1.995E-07 0.000E+00

     total cpu time spent up to now is       19.1 secs

     total energy              =    -417.80481528 Ry
     estimated scf accuracy    <       0.00000013 Ry

     iteration # 15     ecut=    90.00 Ry     beta= 0.70
     Davidson diagonalization with overlap
     ethr =  1.39E-10,  avg # of iterations =  2.1

     negative rho (up, down):  1.996E-07 0.000E+00

     total cpu time spent up to now is       20.2 secs

     End of self-consistent calculation

          k = 0.0000 0.0000 0.0000 ( 34387 PWs)   bands (ev):

   -21.2302 -20.8882 -20.8882 -20.7169 -20.7169 -20.6930 -20.6930 -20.6873
   -20.6823 -20.4563 -20.4563 -20.2195  -8.7295  -8.5591  -8.4957  -8.4957
    -8.4517  -8.4517  -8.0345  -7.9084  -7.9084  -7.7103  -7.7103  -7.6004
    -7.5440  -6.8103  -6.8103  -6.3069  -6.3069  -6.2087  -6.2087  -5.9732
    -5.8090  -5.2233  -5.2233  -4.6132  -3.7742  -3.7742  -3.6924  -3.6170
    -3.5803  -3.5803  -3.4560  -3.4552  -3.4552  -3.4405  -3.3977  -3.3977

          k =-0.1498-0.0865 0.3111 ( 34378 PWs)   bands (ev):

   -21.1743 -20.9198 -20.8801 -20.8257 -20.8047 -20.7504 -20.6435 -20.6100
   -20.5697 -20.4603 -20.4289 -20.2647  -8.6836  -8.6120  -8.5438  -8.5092
    -8.4309  -8.3761  -8.0260  -7.8756  -7.8682  -7.7410  -7.6395  -7.6037
    -7.4422  -6.9337  -6.8267  -6.5833  -6.2913  -6.2018  -6.0622  -5.8705
    -5.8159  -5.2175  -5.1597  -4.7397  -3.8658  -3.8067  -3.7105  -3.6566
    -3.6118  -3.5877  -3.5498  -3.4910  -3.4434  -3.4040  -3.3834  -3.3435

          k = 0.2996 0.1730-0.6221 ( 34412 PWs)   bands (ev):

   -21.0338 -21.0256 -20.8998 -20.8991 -20.8054 -20.8029 -20.5975 -20.5974
   -20.4662 -20.4610 -20.3769 -20.3706  -8.6633  -8.6143  -8.5387  -8.5212
    -8.4302  -8.3788  -7.9790  -7.8772  -7.8432  -7.7489  -7.5724  -7.5707
    -7.2486  -7.1242  -6.8739  -6.7213  -6.3045  -6.2302  -6.0658  -5.9256
    -5.4602  -5.3295  -5.1041  -4.8969  -3.9487  -3.8218  -3.7306  -3.7030
    -3.6444  -3.6301  -3.5536  -3.5083  -3.4812  -3.3763  -3.3662  -3.3050

          k =-0.1498 0.0865 0.6221 ( 34355 PWs)   bands (ev):

   -21.0617 -20.9589 -20.9536 -20.8643 -20.8446 -20.7944 -20.6053 -20.5442
   -20.5178 -20.4288 -20.4144 -20.3480  -8.6699  -8.5924  -8.5787  -8.4821
    -8.4471  -8.3697  -7.9831  -7.9044  -7.8628  -7.6680  -7.6117  -7.5666
    -7.2523  -7.0681  -6.9881  -6.5814  -6.4305  -6.2702  -5.9968  -5.8181
    -5.6278  -5.1868  -5.1652  -4.9032  -3.9316  -3.8552  -3.7210  -3.6831
    -3.6544  -3.6103  -3.5767  -3.5028  -3.4774  -3.3841  -3.3683  -3.3005

          k = 0.2996 0.3460-0.3111 ( 34356 PWs)   bands (ev):

   -21.1006 -20.9826 -20.9105 -20.8788 -20.8271 -20.7705 -20.6102 -20.5327
   -20.5197 -20.4609 -20.4098 -20.3285  -8.6738  -8.6560  -8.5232  -8.5019
    -8.4531  -8.3716  -8.0050  -7.9567  -7.8497  -7.6415  -7.6136  -7.5591
    -7.3564  -7.1059  -6.8985  -6.5863  -6.5656  -6.1401  -5.9738  -5.7340
    -5.5336  -5.3258  -5.1407  -4.8829  -3.8633  -3.8032  -3.7341  -3.6727
    -3.6275  -3.5871  -3.5345  -3.5274  -3.4606  -3.4219  -3.3723  -3.2909

          k = 0.1498 0.2595 0.0000 ( 34379 PWs)   bands (ev):

   -21.1894 -20.9411 -20.9004 -20.8038 -20.7817 -20.7193 -20.6584 -20.6035
   -20.5729 -20.4638 -20.4382 -20.2555  -8.7159  -8.6214  -8.5373  -8.5067
    -8.4059  -8.4000  -8.0642  -7.9540  -7.7963  -7.7152  -7.6668  -7.5750
    -7.5452  -6.9257  -6.8129  -6.5702  -6.4691  -6.0876  -5.9740  -5.8518
    -5.6923  -5.2858  -5.1980  -4.7058  -3.7737  -3.7602  -3.7202  -3.6422
    -3.6091  -3.5869  -3.4961  -3.4782  -3.4570  -3.4444  -3.3615  -3.3504

          k = 0.2996-0.1730-1.2442 ( 34354 PWs)   bands (ev):

   -21.0909 -21.0647 -20.9092 -20.8442 -20.7796 -20.7411 -20.6143 -20.5930
   -20.5023 -20.4907 -20.3541 -20.3435  -8.6956  -8.6654  -8.5520  -8.5235
    -8.3799  -8.3778  -8.0555  -8.0026  -7.7732  -7.7388  -7.5871  -7.5533
    -7.3115  -7.2676  -6.8689  -6.6648  -6.3881  -6.2016  -5.8747  -5.6304
    -5.5454  -5.4480  -5.0659  -4.8978  -3.7831  -3.7459  -3.7386  -3.6721
    -3.6075  -3.5692  -3.5449  -3.4889  -3.4784  -3.4433  -3.3344  -3.3201

          k = 0.0000 0.0000 0.9332 ( 34378 PWs)   bands (ev):

   -21.0189 -21.0189 -20.9603 -20.9279 -20.7969 -20.7969 -20.5521 -20.5521
   -20.4511 -20.4397 -20.4085 -20.4085  -8.6561  -8.6561  -8.5414  -8.4519
    -8.4519  -8.4320  -8.0118  -7.9284  -7.9284  -7.5648  -7.5648  -7.5341
    -7.1948  -7.1828  -7.1828  -6.6066  -6.3625  -6.3625  -5.7954  -5.6128
    -5.6128  -5.1995  -5.1995  -5.0391  -3.8161  -3.8161  -3.7151  -3.6698
    -3.6030  -3.6030  -3.5633  -3.5046  -3.5046  -3.4085  -3.4085  -3.2717

          k = 0.4494 0.2595 0.0000 ( 34362 PWs)   bands (ev):

   -21.1141 -20.9878 -20.9852 -20.8457 -20.7393 -20.7341 -20.6292 -20.6218
   -20.5030 -20.4356 -20.4113 -20.3204  -8.6929  -8.6540  -8.5999  -8.4686
    -8.4180  -8.3605  -8.0708  -7.9621  -7.8506  -7.6511  -7.6116  -7.5684
    -7.3946  -7.0757  -7.0068  -6.6184  -6.4148  -6.1928  -5.7911  -5.7578
    -5.5824  -5.2915  -5.1622  -4.8735  -3.7700  -3.7639  -3.7299  -3.6751
    -3.6236  -3.5771  -3.5191  -3.5001  -3.4609  -3.4250  -3.3754  -3.3055

          k = 0.2996 0.1730 0.3111 ( 34339 PWs)   bands (ev):

   -21.1363 -20.9523 -20.8887 -20.8711 -20.8056 -20.7624 -20.6207 -20.5939
   -20.5452 -20.4499 -20.4122 -20.2936  -8.6929  -8.6403  -8.5679  -8.4652
    -8.4566  -8.3356  -8.0347  -7.9325  -7.7764  -7.7166  -7.6786  -7.5986
    -7.3789  -6.9414  -6.7958  -6.7092  -6.4960  -6.2177  -5.9605  -5.7872
    -5.6284  -5.2869  -5.1454  -4.7828  -3.8795  -3.8102  -3.7508  -3.7000
    -3.6237  -3.5905  -3.5286  -3.5014  -3.4350  -3.3991  -3.3511  -3.3336

          k = 0.4494-0.2595-0.9332 ( 34370 PWs)   bands (ev):

   -21.0392 -21.0366 -20.9324 -20.8995 -20.7975 -20.7379 -20.6505 -20.5848
   -20.4795 -20.4359 -20.3991 -20.3385  -8.7169  -8.6319  -8.5956  -8.4694
    -8.4294  -8.3175  -8.0689  -7.8903  -7.7922  -7.7436  -7.6268  -7.6052
    -7.1672  -7.1275  -6.8563  -6.7169  -6.5539  -6.2938  -5.9244  -5.6762
    -5.3900  -5.3798  -5.1897  -4.8399  -3.8839  -3.8246  -3.7947  -3.6983
    -3.6700  -3.6040  -3.4884  -3.4690  -3.4466  -3.4107  -3.3522  -3.3047

          k = 0.2996-0.3460-0.6221 ( 34364 PWs)   bands (ev):

   -21.0085 -21.0006 -20.9243 -20.9226 -20.8195 -20.8177 -20.5861 -20.5847
   -20.4684 -20.4645 -20.3708 -20.3682  -8.7294  -8.5598  -8.5328  -8.5156
    -8.4857  -8.3221  -8.0050  -7.8987  -7.7782  -7.7355  -7.6109  -7.6059
    -7.1368  -7.0203  -6.8858  -6.7669  -6.4909  -6.4555  -5.8566  -5.7899
    -5.3989  -5.3560  -5.2146  -4.8267  -3.9769  -3.8364  -3.7940  -3.7324
    -3.6899  -3.5808  -3.5239  -3.4905  -3.4754  -3.3708  -3.3565  -3.2903

          k = 0.0000 0.0000-1.8663 ( 34368 PWs)   bands (ev):

   -20.9832 -20.9779 -20.9016 -20.9016 -20.8865 -20.8865 -20.5255 -20.5255
   -20.5139 -20.5139 -20.3601 -20.3592  -8.7695  -8.5299  -8.5299  -8.5088
    -8.5088  -8.2942  -8.0450  -7.8933  -7.6995  -7.6995  -7.6672  -7.6672
    -6.9962  -6.8119  -6.7949  -6.7949  -6.7541  -6.7541  -5.6699  -5.6699
    -5.4202  -5.4202  -5.2526  -4.7804  -4.0042  -3.8363  -3.8363  -3.7594
    -3.7594  -3.5386  -3.5163  -3.4428  -3.4428  -3.3815  -3.3815  -3.2694

          k = 0.2996-0.3460 0.3111 ( 34356 PWs)   bands (ev):

   -21.1003 -20.9845 -20.9049 -20.8838 -20.8253 -20.7710 -20.6096 -20.5373
   -20.5164 -20.4616 -20.4077 -20.3294  -8.6890  -8.6252  -8.5528  -8.5045
    -8.4244  -8.3796  -8.0428  -7.9305  -7.8288  -7.6732  -7.5839  -7.5766
    -7.3524  -7.0465  -6.9772  -6.6440  -6.4229  -6.1945  -6.0447  -5.6627
    -5.5199  -5.3063  -5.1998  -4.8664  -3.8694  -3.7803  -3.7491  -3.6673
    -3.6317  -3.5930  -3.5321  -3.5285  -3.4765  -3.3969  -3.3728  -3.2978

     highest occupied level (ev):    -3.2694

!    total energy              =    -417.80481530 Ry
     estimated scf accuracy    <          7.6E-09 Ry

     The total energy is the sum of the following terms:
     one-electron contribution =    -308.86373934 Ry
     hartree contribution      =     187.16210260 Ry
     xc contribution           =    -104.33858088 Ry
     ewald contribution        =    -191.76459768 Ry

     convergence has been achieved in  15 iterations

     Forces acting on atoms (cartesian axes, Ry/au):

     atom    1 type  2   force =    -0.05626414    0.13145030    0.07682763
     atom    2 type  2   force =     0.05626414   -0.13145030   -0.07682763
     atom    3 type  2   force =    -0.08570723   -0.11445133    0.07682763
     atom    4 type  2   force =     0.08570723    0.11445133   -0.07682763
     atom    5 type  2   force =     0.14197137   -0.01699898    0.07682763
     atom    6 type  2   force =    -0.14197137    0.01699898   -0.07682763
     atom    7 type  2   force =    -0.08493421    0.06202839   -0.05698256
     atom    8 type  2   force =     0.08493421   -0.06202839    0.05698256
     atom    9 type  2   force =    -0.01125105   -0.10456938   -0.05698256
     atom   10 type  2   force =     0.01125105    0.10456938    0.05698256
     atom   11 type  2   force =     0.09618526    0.04254099   -0.05698256
     atom   12 type  2   force =    -0.09618526   -0.04254099    0.05698256
     atom   13 type  1   force =     0.02863196   -0.07903384   -0.03064859
     atom   14 type  1   force =    -0.02863196    0.07903384    0.03064859
     atom   15 type  1   force =     0.05412933    0.06431293   -0.03064859
     atom   16 type  1   force =    -0.05412933   -0.06431293    0.03064859
     atom   17 type  1   force =    -0.08276129    0.01472091   -0.03064859
     atom   18 type  1   force =     0.08276129   -0.01472091    0.03064859
     atom   19 type  1   force =     0.02713498   -0.05793106   -0.05486333
     atom   20 type  1   force =    -0.02713498    0.05793106    0.05486333
     atom   21 type  1   force =     0.03660228    0.05246511   -0.05486333
     atom   22 type  1   force =    -0.03660228   -0.05246511    0.05486333
     atom   23 type  1   force =    -0.06373726    0.00546595   -0.05486333
     atom   24 type  1   force =     0.06373726   -0.00546595    0.05486333
     atom   25 type  1   force =    -0.03248309   -0.06687334    0.01602439
     atom   26 type  1   force =     0.03248309    0.06687334   -0.01602439
     atom   27 type  1   force =     0.07415556    0.00530549    0.01602439
     atom   28 type  1   force =    -0.07415556   -0.00530549   -0.01602439
     atom   29 type  1   force =    -0.04167246    0.06156785    0.01602439
     atom   30 type  1   force =     0.04167246   -0.06156785   -0.01602439
     atom   31 type  1   force =    -0.06994155    0.02623566    0.04822915
     atom   32 type  1   force =     0.06994155   -0.02623566   -0.04822915
     atom   33 type  1   force =     0.01225003   -0.07368899    0.04822915
     atom   34 type  1   force =    -0.01225003    0.07368899   -0.04822915
     atom   35 type  1   force =     0.05769152    0.04745333    0.04822915
     atom   36 type  1   force =    -0.05769152   -0.04745333   -0.04822915

     Total force =     0.645540     Total SCF correction =     0.000081


     Computing stress (Cartesian axis) and pressure

          total   stress  (Ry/bohr**3)                   (kbar)     P=     -100.21
  -0.00075848  -0.00000000   0.00000000         -111.58       -0.00        0.00
   0.00000000  -0.00075848  -0.00000000            0.00     -111.58       -0.00
   0.00000000  -0.00000000  -0.00052661            0.00       -0.00      -77.47


     BFGS Geometry Optimization
     Energy error            =      0.0E+00 Ry
     Gradient error          =      1.4E-01 Ry/Bohr

     number of scf cycles    =   1
     number of bfgs steps    =   0

     energy             new  =    -417.8048152983 Ry

     new trust radius        =       0.1623185769 bohr
     new conv_thr            =       0.0000001000 Ry


ATOMIC_POSITIONS (crystal)
O                0.2740609244        0.0360728268        0.8594249806
O                0.7259390756        0.9639271842        0.1405749894
O                0.8594249806        0.2740609244        0.0360728268
O                0.1405749894        0.7259390756        0.9639271842
O                0.0360728268        0.8594249806        0.2740609244
O                0.9639271842        0.1405749894        0.7259390756
O                0.4687288818        0.7481894356        0.3293167429
O                0.5312711182        0.2518105644        0.6706832271
O                0.3293167429        0.4687288818        0.7481894356
O                0.6706832271        0.5312711182        0.2518105644
O                0.7481894356        0.3293167429        0.4687288818
O                0.2518105644        0.6706832271        0.5312711182
H                0.1654121912        0.0629928639        0.8081913693
H                0.8345877948        0.9370071281        0.1918086307
H                0.8081913693        0.1654121912        0.0629928639
H                0.1918086307        0.8345877948        0.9370071281
H                0.0629928639        0.8081913693        0.1654121912
H                0.9370071281        0.1918086307        0.8345877948
H                0.4109318063        0.1979880833        0.9928270930
H                0.5890681937        0.8020119317        0.0071728860
H                0.9928270930        0.4109318063        0.1979880833
H                0.0071728860        0.5890681937        0.8020119317
H                0.1979880833        0.9928270930        0.4109318063
H                0.8020119317        0.0071728860        0.5890681937
H                0.7205278736        0.3992955908        0.3990474297
H                0.2794721264        0.6007043792        0.6009526003
H                0.3990474297        0.7205278736        0.3992955908
H                0.6009526003        0.2794721264        0.6007043792
H                0.3992955908        0.3990474297        0.7205278736
H                0.6007043792        0.6009526003        0.2794721264
H                0.7415835445        0.2080583416        0.3660085257
H                0.2584164555        0.7919416434        0.6339914743
H                0.3660085257        0.7415835445        0.2080583416
H                0.6339914743        0.2584164555        0.7919416434
H                0.2080583416        0.3660085257        0.7415835445
H                0.7919416434        0.6339914743        0.2584164555



     Writing config-only to output data dir ./iceII/iceII.save/ :
     XML data file
     NEW-OLD atomic charge density approx. for the potential

     negative rho (up, down):  3.625E-07 0.000E+00

     total cpu time spent up to now is       22.0 secs

     per-process dynamical memory:    22.0 Mb

     Self-consistent Calculation

     iteration #  1     ecut=    90.00 Ry     beta= 0.70
     Davidson diagonalization with overlap
     ethr =  1.00E-06,  avg # of iterations = 10.4

     negative rho (up, down):  3.056E-07 0.000E+00

     total cpu time spent up to now is       24.9 secs

     total energy              =    -417.95401848 Ry
     estimated scf accuracy    <       0.15653570 Ry

     iteration #  2     ecut=    90.00 Ry     beta= 0.70
     Davidson diagonalization with overlap
     ethr =  1.63E-04,  avg # of iterations =  3.0

     negative rho (up, down):  2.014E-07 0.000E+00

     total cpu time spent up to now is       26.2 secs

     total energy              =    -417.99671920 Ry
     estimated scf accuracy    <       0.08838039 Ry

     iteration #  3     ecut=    90.00 Ry     beta= 0.70
     Davidson diagonalization with overlap
     ethr =  9.21E-05,  avg # of iterations =  2.0

     negative rho (up, down):  1.471E-07 0.000E+00

     total cpu time spent up to now is       27.3 secs

     total energy              =    -418.01165972 Ry
     estimated scf accuracy    <       0.00211370 Ry

     iteration #  4     ecut=    90.00 Ry     beta= 0.70
     Davidson diagonalization with overlap
     ethr =  2.20E-06,  avg # of iterations =  4.2

     negative rho (up, down):  2.420E-07 0.000E+00

     total cpu time spent up to now is       28.8 secs

     total energy              =    -418.01333266 Ry
     estimated scf accuracy    <       0.00335974 Ry

     iteration #  5     ecut=    90.00 Ry     beta= 0.70
     Davidson diagonalization with overlap
     ethr =  2.20E-06,  avg # of iterations =  2.2

     negative rho (up, down):  2.878E-07 0.000E+00

     total cpu time spent up to now is       29.9 secs

     total energy              =    -418.01385290 Ry
     estimated scf accuracy    <       0.00006206 Ry

     iteration #  6     ecut=    90.00 Ry     beta= 0.70
     Davidson diagonalization with overlap
     ethr =  6.46E-08,  avg # of iterations =  5.0

     negative rho (up, down):  2.745E-07 0.000E+00

     total cpu time spent up to now is       31.5 secs

     total energy              =    -418.01390841 Ry
     estimated scf accuracy    <       0.00017203 Ry

     iteration #  7     ecut=    90.00 Ry     beta= 0.70
     Davidson diagonalization with overlap
     ethr =  6.46E-08,  avg # of iterations =  3.0

     negative rho (up, down):  2.607E-07 0.000E+00

     total cpu time spent up to now is       32.8 secs

     total energy              =    -418.01391383 Ry
     estimated scf accuracy    <       0.00002077 Ry

     iteration #  8     ecut=    90.00 Ry     beta= 0.70
     Davidson diagonalization with overlap
     ethr =  2.16E-08,  avg # of iterations =  3.0

     negative rho (up, down):  2.612E-07 0.000E+00

     total cpu time spent up to now is       34.0 secs

     total energy              =    -418.01392077 Ry
     estimated scf accuracy    <       0.00000010 Ry

     iteration #  9     ecut=    90.00 Ry     beta= 0.70
     Davidson diagonalization with overlap
     ethr =  1.08E-10,  avg # of iterations =  6.0

     negative rho (up, down):  2.642E-07 0.000E+00

     total cpu time spent up to now is       35.7 secs

     total energy              =    -418.01392082 Ry
     estimated scf accuracy    <       0.00000070 Ry

     iteration # 10     ecut=    90.00 Ry     beta= 0.70
     Davidson diagonalization with overlap
     ethr =  1.08E-10,  avg # of iterations =  3.9

     negative rho (up, down):  2.650E-07 0.000E+00

     total cpu time spent up to now is       37.1 secs

     End of self-consistent calculation

          k = 0.0000 0.0000 0.0000 ( 34387 PWs)   bands (ev):

   -21.9780 -21.7066 -21.7066 -21.5333 -21.5333 -21.5096 -21.4992 -21.4992
   -21.4978 -21.2922 -21.2922 -21.1117  -9.5992  -9.4585  -9.4170  -9.4170
    -9.3831  -9.3831  -8.9676  -8.9676  -8.8849  -8.8849  -8.8817  -8.7804
    -7.5146  -6.6994  -6.6994  -6.1490  -6.1490  -6.1398  -6.1398  -5.9180
    -5.8644  -5.2789  -5.2789  -4.7316  -3.9533  -3.9533  -3.9499  -3.7771
    -3.7771  -3.7501  -3.6399  -3.6135  -3.6135  -3.5993  -3.5347  -3.5347

          k =-0.1498-0.0865 0.3111 ( 34378 PWs)   bands (ev):

   -21.9309 -21.7261 -21.7071 -21.6127 -21.5936 -21.5713 -21.4624 -21.4340
   -21.4076 -21.2984 -21.2738 -21.1450  -9.5704  -9.4715  -9.4393  -9.4352
    -9.3777  -9.3406  -8.9734  -8.9532  -8.8991  -8.8512  -8.8443  -8.8108
    -7.3796  -6.8124  -6.7323  -6.4392  -6.2378  -6.0802  -5.9944  -5.8180
    -5.7632  -5.2796  -5.2151  -4.8324  -4.0317  -3.9779  -3.9414  -3.8075
    -3.7951  -3.7770  -3.7186  -3.6499  -3.5939  -3.5595  -3.5327  -3.4950

          k = 0.2996 0.1730-0.6221 ( 34412 PWs)   bands (ev):

   -21.8337 -21.7835 -21.7285 -21.6571 -21.6276 -21.6006 -21.4389 -21.4021
   -21.3390 -21.2943 -21.2567 -21.2039  -9.5219  -9.5008  -9.4625  -9.4263
    -9.3767  -9.3277  -8.9633  -8.9397  -8.8852  -8.8752  -8.8178  -8.8086
    -7.1243  -6.9972  -6.7821  -6.6156  -6.2551  -6.1633  -5.9348  -5.7857
    -5.4764  -5.3423  -5.1631  -4.9733  -4.0997  -3.9897  -3.9212  -3.8727
    -3.8269  -3.8115  -3.7094  -3.6626  -3.6569  -3.5257  -3.5171  -3.4595

          k =-0.1498 0.0865 0.6221 ( 34355 PWs)   bands (ev):

   -21.8426 -21.7527 -21.7449 -21.6594 -21.6330 -21.6054 -21.4280 -21.3922
   -21.3545 -21.2843 -21.2694 -21.1993  -9.5234  -9.4917  -9.4792  -9.4077
    -9.3866  -9.3269  -8.9606  -8.9430  -8.9025  -8.8464  -8.8262  -8.8113
    -7.1508  -6.9060  -6.8840  -6.5095  -6.3400  -6.2076  -5.8730  -5.7273
    -5.5811  -5.2452  -5.2163  -4.9747  -4.0841  -4.0191  -3.9090  -3.8749
    -3.8353  -3.7669  -3.7461  -3.6709  -3.6358  -3.5294  -3.5231  -3.4553

          k = 0.2996 0.3460-0.3111 ( 34356 PWs)   bands (ev):

   -21.8707 -21.7851 -21.7194 -21.6512 -21.6120 -21.5843 -21.4289 -21.4092
   -21.3606 -21.2939 -21.2610 -21.1864  -9.5420  -9.5121  -9.4506  -9.4169
    -9.3795  -9.3210  -9.0060  -8.9840  -8.9267  -8.8342  -8.8081  -8.7975
    -7.1711  -6.9415  -6.7403  -6.5455  -6.4744  -6.1115  -5.8226  -5.7307
    -5.5450  -5.3418  -5.1906  -4.9473  -4.0344  -3.9801  -3.9311  -3.8758
    -3.7898  -3.7507  -3.7117  -3.6861  -3.6182  -3.5664  -3.5275  -3.4425

          k = 0.1498 0.2595 0.0000 ( 34379 PWs)   bands (ev):

   -21.9441 -21.7499 -21.7161 -21.5991 -21.5680 -21.5125 -21.4993 -21.4383
   -21.4260 -21.2970 -21.2720 -21.1374  -9.5825  -9.4841  -9.4380  -9.4340
    -9.3577  -9.3457  -9.0213  -8.9916  -8.8911  -8.8755  -8.8370  -8.7816
    -7.3862  -6.7786  -6.6878  -6.4689  -6.3621  -6.0505  -5.9210  -5.7781
    -5.7254  -5.3200  -5.2501  -4.8023  -3.9619  -3.9470  -3.9449  -3.8341
    -3.7785  -3.7521  -3.6570  -3.6379  -3.6309  -3.5916  -3.5080  -3.4977

          k = 0.2996-0.1730-1.2442 ( 34354 PWs)   bands (ev):

   -21.8584 -21.8499 -21.7246 -21.6270 -21.5795 -21.5175 -21.4838 -21.4205
   -21.3830 -21.3044 -21.2202 -21.1907  -9.5482  -9.5272  -9.4455  -9.4399
    -9.3409  -9.3238  -9.0567  -9.0127  -8.8989  -8.8701  -8.7989  -8.7915
    -7.0854  -7.0574  -6.6972  -6.6288  -6.3165  -6.1681  -5.8349  -5.6681
    -5.5406  -5.4364  -5.1203  -4.9519  -3.9715  -3.9415  -3.9385  -3.8777
    -3.7838  -3.7251  -3.6992  -3.6674  -3.6263  -3.5888  -3.4839  -3.4752

          k = 0.0000 0.0000 0.9332 ( 34378 PWs)   bands (ev):

   -21.8005 -21.8005 -21.7928 -21.6596 -21.6026 -21.6026 -21.3906 -21.3906
   -21.3695 -21.2599 -21.2599 -21.2336  -9.5195  -9.5195  -9.4834  -9.3736
    -9.3736  -9.3564  -9.0179  -8.9686  -8.9686  -8.8022  -8.8022  -8.7891
    -6.9777  -6.9739  -6.9739  -6.5489  -6.3324  -6.3324  -5.6591  -5.6154
    -5.6154  -5.2300  -5.2300  -5.0906  -3.9952  -3.9952  -3.9208  -3.8761
    -3.7693  -3.7693  -3.7372  -3.6629  -3.6629  -3.5497  -3.5497  -3.4218

          k = 0.4494 0.2595 0.0000 ( 34362 PWs)   bands (ev):

   -21.8821 -21.7883 -21.7775 -21.6066 -21.5727 -21.5381 -21.4609 -21.4372
   -21.3902 -21.2753 -21.2493 -21.1813  -9.5532  -9.5092  -9.4825  -9.4031
    -9.3650  -9.3129  -9.0650  -8.9881  -8.9372  -8.8328  -8.8149  -8.7903
    -7.1681  -6.8884  -6.8219  -6.5837  -6.3412  -6.1419  -5.7925  -5.7553
    -5.5711  -5.3024  -5.2046  -4.9349  -3.9641  -3.9495  -3.9339  -3.8815
    -3.7926  -3.7336  -3.6943  -3.6591  -3.6179  -3.5717  -3.5199  -3.4605

          k = 0.2996 0.1730 0.3111 ( 34339 PWs)   bands (ev):

   -21.9003 -21.7584 -21.7058 -21.6489 -21.5977 -21.5679 -21.4580 -21.4354
   -21.3602 -21.3122 -21.2547 -21.1632  -9.5567  -9.4892  -9.4571  -9.4239
    -9.3859  -9.3055  -9.0181  -8.9399  -8.8952  -8.8776  -8.8227  -8.8106
    -7.2651  -6.8363  -6.7097  -6.5747  -6.3745  -6.1032  -5.9275  -5.7698
    -5.6002  -5.3270  -5.1959  -4.8629  -4.0485  -3.9845  -3.9476  -3.8560
    -3.8132  -3.7586  -3.7071  -3.6551  -3.5858  -3.5636  -3.5055  -3.4905

          k = 0.4494-0.2595-0.9332 ( 34370 PWs)   bands (ev):

   -21.8317 -21.8140 -21.7383 -21.6597 -21.6011 -21.5618 -21.4640 -21.4273
   -21.3265 -21.2997 -21.2523 -21.1861  -9.5292  -9.5153  -9.4760  -9.4172
    -9.3817  -9.2822  -9.0451  -8.9495  -8.8939  -8.8832  -8.8158  -8.8088
    -7.0572  -6.9377  -6.7199  -6.6899  -6.4321  -6.1470  -5.9204  -5.7013
    -5.3973  -5.3831  -5.2223  -4.9045  -4.0571  -3.9960  -3.9656  -3.8675
    -3.8272  -3.7950  -3.6644  -3.6306  -3.6040  -3.5638  -3.5083  -3.4694

          k = 0.2996-0.3460-0.6221 ( 34364 PWs)   bands (ev):

   -21.8206 -21.7605 -21.7361 -21.6897 -21.6268 -21.6129 -21.4313 -21.4110
   -21.3121 -21.2960 -21.2745 -21.1941  -9.5324  -9.4794  -9.4612  -9.4275
    -9.4116  -9.2867  -8.9791  -8.9454  -8.8767  -8.8700  -8.8291  -8.8242
    -7.0502  -6.9114  -6.7725  -6.7002  -6.3470  -6.3030  -5.8107  -5.7423
    -5.4054  -5.3617  -5.2548  -4.9073  -4.1240  -4.0011  -3.9677  -3.8886
    -3.8640  -3.7315  -3.7149  -3.6599  -3.6390  -3.5254  -3.5174  -3.4512

          k = 0.0000 0.0000-1.8663 ( 34368 PWs)   bands (ev):

   -21.8102 -21.7284 -21.7284 -21.7008 -21.6532 -21.6532 -21.4051 -21.4051
   -21.3072 -21.3072 -21.2812 -21.1856  -9.5377  -9.4602  -9.4602  -9.4313
    -9.4313  -9.2604  -8.9928  -8.9519  -8.8605  -8.8605  -8.8466  -8.8466
    -6.9959  -6.8397  -6.6463  -6.6463  -6.5434  -6.5434  -5.6697  -5.6697
    -5.4129  -5.4129  -5.2760  -4.8626  -4.1484  -3.9975  -3.9975  -3.9075
    -3.9075  -3.7387  -3.6779  -3.6059  -3.6059  -3.5477  -3.5477  -3.4362

          k = 0.2996-0.3460 0.3111 ( 34356 PWs)   bands (ev):

   -21.8717 -21.7775 -21.7305 -21.6521 -21.6027 -21.5851 -21.4418 -21.4017
   -21.3524 -21.3077 -21.2513 -21.1883  -9.5471  -9.4971  -9.4586  -9.4310
    -9.3599  -9.3284  -9.0138  -8.9784  -8.9236  -8.8312  -8.8140  -8.7958
    -7.1783  -6.8720  -6.8343  -6.5711  -6.3589  -6.1598  -5.9208  -5.6346
    -5.5221  -5.3478  -5.2260  -4.9366  -4.0365  -3.9750  -3.9376  -3.8647
    -3.7885  -3.7566  -3.7040  -3.7018  -3.6286  -3.5418  -3.5307  -3.4485

     highest occupied level (ev):    -3.4218

!    total energy              =    -418.01392090 Ry
     estimated scf accuracy    <       0.00000002 Ry

     The total energy is the sum of the following terms:
     one-electron contribution =    -323.67516427 Ry
     hartree contribution      =     193.88082019 Ry
     xc contribution           =    -105.90123028 Ry
     ewald contribution        =    -182.31834654 Ry

     convergence has been achieved in  10 iterations

     Forces acting on atoms (cartesian axes, Ry/au):

     atom    1 type  2   force =     0.00025978   -0.01086336   -0.00925652
     atom    2 type  2   force =    -0.00025978    0.01086336    0.00925652
     atom    3 type  2   force =     0.00927805    0.00565665   -0.00925652
     atom    4 type  2   force =    -0.00927805   -0.00565665    0.00925652
     atom    5 type  2   force =    -0.00953783    0.00520670   -0.00925652
     atom    6 type  2   force =     0.00953783   -0.00520670    0.00925652
     atom    7 type  2   force =     0.01069559   -0.01142705    0.00665419
     atom    8 type  2   force =    -0.01069559    0.01142705   -0.00665419
     atom    9 type  2   force =     0.00454833    0.01497618    0.00665419
     atom   10 type  2   force =    -0.00454833   -0.01497618   -0.00665419
     atom   11 type  2   force =    -0.01524391   -0.00354912    0.00665419
     atom   12 type  2   force =     0.01524391    0.00354912   -0.00665419
     atom   13 type  1   force =    -0.01554548    0.02094995   -0.03835376
     atom   14 type  1   force =     0.01554548   -0.02094995    0.03835376
     atom   15 type  1   force =    -0.01037045   -0.02393776   -0.03835376
     atom   16 type  1   force =     0.01037045    0.02393776    0.03835376
     atom   17 type  1   force =     0.02591593    0.00298781   -0.03835376
     atom   18 type  1   force =    -0.02591593   -0.00298781    0.03835376
     atom   19 type  1   force =     0.01810931   -0.01358845    0.04231821
     atom   20 type  1   force =    -0.01810931    0.01358845   -0.04231821
     atom   21 type  1   force =     0.00271329    0.02247735    0.04231821
     atom   22 type  1   force =    -0.00271329   -0.02247735   -0.04231821
     atom   23 type  1   force =    -0.02082260   -0.00888890    0.04231821
     atom   24 type  1   force =     0.02082260    0.00888890   -0.04231821
     atom   25 type  1   force =     0.00839654    0.01376993    0.00072420
     atom   26 type  1   force =    -0.00839654   -0.01376993   -0.00072420
     atom   27 type  1   force =    -0.01612338    0.00038665    0.00072420
     atom   28 type  1   force =     0.01612338   -0.00038665   -0.00072420
     atom   29 type  1   force =     0.00772684   -0.01415658    0.00072420
     atom   30 type  1   force =    -0.00772684    0.01415658   -0.00072420
     atom   31 type  1   force =     0.00456102   -0.00896078   -0.00501001
     atom   32 type  1   force =    -0.00456102    0.00896078    0.00501001
     atom   33 type  1   force =     0.00547975    0.00843035   -0.00501001
     atom   34 type  1   force =    -0.00547975   -0.00843035    0.00501001
     atom   35 type  1   force =    -0.01004077    0.00053043   -0.00501001
     atom   36 type  1   force =     0.01004077   -0.00053043    0.00501001

     Total force =     0.178911     Total SCF correction =     0.000071


     Computing stress (Cartesian axis) and pressure

          total   stress  (Ry/bohr**3)                   (kbar)     P=        8.15
  -0.00000176   0.00000000  -0.00000000           -0.26        0.00       -0.00
  -0.00000000  -0.00000176  -0.00000000           -0.00       -0.26       -0.00
  -0.00000000  -0.00000000   0.00016965           -0.00       -0.00       24.96

     Energy error            =      2.1E-01 Ry
     Gradient error          =      4.2E-02 Ry/Bohr

     number of scf cycles    =   2
     number of bfgs steps    =   1

     energy             old  =    -417.8048152983 Ry
     energy             new  =    -418.0139209003 Ry

     CASE: energy            _new < energy            _old

     new trust radius        =       0.0420842151 bohr
     new conv_thr            =       0.0000000423 Ry


ATOMIC_POSITIONS (crystal)
O                0.2736740624        0.0355818261        0.8592413782
O                0.7263259376        0.9644181849        0.1407585918
O                0.8592413782        0.2736740624        0.0355818261
O                0.1407585918        0.7263259376        0.9644181849
O                0.0355818261        0.8592413782        0.2736740624
O                0.9644181849        0.1407585918        0.7263259376
O                0.4693392441        0.7481191864        0.3295181956
O                0.5306607559        0.2518808136        0.6704817744
O                0.3295181956        0.4693392441        0.7481191864
O                0.6704817744        0.5306607559        0.2518808136
O                0.7481191864        0.3295181956        0.4693392441
O                0.2518808136        0.6704817744        0.5306607559
H                0.1617071673        0.0607625993        0.8054536152
H                0.8382928187        0.9392373927        0.1945463848
H                0.8054536152        0.1617071673        0.0607625993
H                0.1945463848        0.8382928187        0.9392373927
H                0.0607625993        0.8054536152        0.1617071673
H                0.9392373927        0.1945463848        0.8382928187
H                0.4147801765        0.2001392827        0.9953107435
H                0.5852198235        0.7998607323        0.0046892355
H                0.9953107435        0.4147801765        0.2001392827
H                0.0046892355        0.5852198235        0.7998607323
H                0.2001392827        0.9953107435        0.4147801765
H                0.7998607323        0.0046892355        0.5852198235
H                0.7206730864        0.3998136481        0.3987371318
H                0.2793269136        0.6001863219        0.6012628982
H                0.3987371318        0.7206730864        0.3998136481
H                0.6012628982        0.2793269136        0.6001863219
H                0.3998136481        0.3987371318        0.7206730864
H                0.6001863219        0.6012628982        0.2793269136
H                0.7415899527        0.2075941732        0.3659731994
H                0.2584100473        0.7924058118        0.6340268006
H                0.3659731994        0.7415899527        0.2075941732
H                0.6340268006        0.2584100473        0.7924058118
H                0.2075941732        0.3659731994        0.7415899527
H                0.7924058118        0.6340268006        0.2584100473



     Writing config-only to output data dir ./iceII/iceII.save/ :
     XML data file
     NEW-OLD atomic charge density approx. for the potential

     negative rho (up, down):  2.711E-07 0.000E+00

     total cpu time spent up to now is       38.9 secs

     per-process dynamical memory:    21.7 Mb

     Self-consistent Calculation

     iteration #  1     ecut=    90.00 Ry     beta= 0.70
     Davidson diagonalization with overlap
     ethr =  1.00E-06,  avg # of iterations =  4.6

     negative rho (up, down):  1.640E-07 0.000E+00

     total cpu time spent up to now is       40.5 secs

     total energy              =    -418.03056298 Ry
     estimated scf accuracy    <       0.00294778 Ry

     iteration #  2     ecut=    90.00 Ry     beta= 0.70
     Davidson diagonalization with overlap
     ethr =  3.07E-06,  avg # of iterations =  3.0

     negative rho (up, down):  2.053E-07 0.000E+00

     total cpu time spent up to now is       41.8 secs

     total energy              =    -418.03134694 Ry
     estimated scf accuracy    <       0.00146365 Ry

     iteration #  3     ecut=    90.00 Ry     beta= 0.70
     Davidson diagonalization with overlap
     ethr =  1.52E-06,  avg # of iterations =  2.0

     negative rho (up, down):  2.398E-07 0.000E+00

     total cpu time spent up to now is       42.8 secs

     total energy              =    -418.03159073 Ry
     estimated scf accuracy    <       0.00004092 Ry

     iteration #  4     ecut=    90.00 Ry     beta= 0.70
     Davidson diagonalization with overlap
     ethr =  4.26E-08,  avg # of iterations =  4.4

     negative rho (up, down):  2.300E-07 0.000E+00

     total cpu time spent up to now is       44.3 secs

     total energy              =    -418.03162331 Ry
     estimated scf accuracy    <       0.00005769 Ry

     iteration #  5     ecut=    90.00 Ry     beta= 0.70
     Davidson diagonalization with overlap
     ethr =  4.26E-08,  avg # of iterations =  2.0

     negative rho (up, down):  2.204E-07 0.000E+00

     total cpu time spent up to now is       45.3 secs

     total energy              =    -418.03162261 Ry
     estimated scf accuracy    <       0.00001063 Ry

     iteration #  6     ecut=    90.00 Ry     beta= 0.70
     Davidson diagonalization with overlap
     ethr =  1.11E-08,  avg # of iterations =  3.0

     negative rho (up, down):  2.229E-07 0.000E+00

     total cpu time spent up to now is       46.6 secs

     total energy              =    -418.03162699 Ry
     estimated scf accuracy    <       0.00000205 Ry

     iteration #  7     ecut=    90.00 Ry     beta= 0.70
     Davidson diagonalization with overlap
     ethr =  2.13E-09,  avg # of iterations =  2.0

     negative rho (up, down):  2.249E-07 0.000E+00

     total cpu time spent up to now is       47.6 secs

     total energy              =    -418.03162701 Ry
     estimated scf accuracy    <       0.00000043 Ry

     iteration #  8     ecut=    90.00 Ry     beta= 0.70
     Davidson diagonalization with overlap
     ethr =  4.52E-10,  avg # of iterations =  2.0

     negative rho (up, down):  2.261E-07 0.000E+00

     total cpu time spent up to now is       48.6 secs

     End of self-consistent calculation

          k = 0.0000 0.0000 0.0000 ( 34387 PWs)   bands (ev):

   -21.8329 -21.5333 -21.5333 -21.3787 -21.3787 -21.3673 -21.3673 -21.3569
   -21.3431 -21.1513 -21.1513 -20.9648  -9.5292  -9.3903  -9.3464  -9.3464
    -9.3141  -9.3141  -8.8891  -8.8891  -8.8019  -8.7933  -8.7933  -8.6855
    -7.4886  -6.6100  -6.6100  -6.1515  -6.1515  -6.0626  -6.0626  -5.8282
    -5.8141  -5.2349  -5.2349  -4.6802  -3.9394  -3.9394  -3.9011  -3.7352
    -3.7352  -3.7054  -3.6226  -3.5802  -3.5589  -3.5589  -3.5175  -3.5175

          k =-0.1498-0.0865 0.3111 ( 34378 PWs)   bands (ev):

   -21.7834 -21.5579 -21.5264 -21.4759 -21.4581 -21.4120 -21.3169 -21.2871
   -21.2546 -21.1573 -21.1323 -21.0005  -9.5005  -9.4024  -9.3712  -9.3654
    -9.3086  -9.2707  -8.8922  -8.8733  -8.8086  -8.7653  -8.7526  -8.7198
    -7.3437  -6.7431  -6.6499  -6.3992  -6.2413  -6.0163  -5.9159  -5.7655
    -5.6797  -5.2336  -5.1722  -4.7922  -4.0138  -3.9632  -3.8976  -3.7695
    -3.7623  -3.7347  -3.6989  -3.6056  -3.5688  -3.5139  -3.5092  -3.4668

          k = 0.2996 0.1730-0.6221 ( 34412 PWs)   bands (ev):

   -21.6681 -21.6428 -21.5474 -21.5282 -21.4692 -21.4520 -21.2845 -21.2619
   -21.1832 -21.1502 -21.1017 -21.0763  -9.4521  -9.4315  -9.3934  -9.3587
    -9.3090  -9.2572  -8.8777  -8.8534  -8.7997  -8.7898  -8.7258  -8.7167
    -7.0557  -6.9573  -6.7070  -6.5964  -6.2227  -6.1500  -5.8252  -5.6963
    -5.3898  -5.3017  -5.1251  -4.9584  -4.0809  -3.9755  -3.8965  -3.8203
    -3.7905  -3.7796  -3.6808  -3.6504  -3.6112  -3.4980  -3.4714  -3.4291

          k =-0.1498 0.0865 0.6221 ( 34355 PWs)   bands (ev):

   -21.6855 -21.5929 -21.5857 -21.5100 -21.4914 -21.4504 -21.2821 -21.2324
   -21.2089 -21.1380 -21.1238 -21.0646  -9.4537  -9.4224  -9.4101  -9.3416
    -9.3169  -9.2567  -8.8750  -8.8568  -8.8192  -8.7575  -8.7356  -8.7194
    -7.0887  -6.8536  -6.8318  -6.4684  -6.3146  -6.1771  -5.7854  -5.6217
    -5.5107  -5.2016  -5.1744  -4.9600  -4.0674  -3.9997  -3.8865  -3.8178
    -3.8048  -3.7377  -3.7195  -3.6330  -3.6122  -3.5018  -3.4773  -3.4236

          k = 0.2996 0.3460-0.3111 ( 34356 PWs)   bands (ev):

   -21.7191 -21.6144 -21.5616 -21.5152 -21.4688 -21.4253 -21.2908 -21.2382
   -21.1864 -21.1793 -21.1130 -21.0500  -9.4720  -9.4428  -9.3814  -9.3467
    -9.3119  -9.2515  -8.9294  -8.9038  -8.8393  -8.7440  -8.7166  -8.7036
    -7.1278  -6.8740  -6.6728  -6.5014  -6.4628  -6.0591  -5.7119  -5.6543
    -5.5002  -5.2916  -5.1515  -4.9228  -4.0146  -3.9587  -3.9031  -3.8314
    -3.7501  -3.7161  -3.6768  -3.6563  -3.6020  -3.5406  -3.4796  -3.4105

          k = 0.1498 0.2595 0.0000 ( 34379 PWs)   bands (ev):

   -21.7970 -21.5821 -21.5463 -21.4521 -21.4303 -21.3778 -21.3362 -21.2891
   -21.2604 -21.1595 -21.1350 -20.9929  -9.5123  -9.4150  -9.3682  -9.3638
    -9.2883  -9.2767  -8.9472  -8.9128  -8.8055  -8.7846  -8.7475  -8.6869
    -7.3556  -6.6919  -6.6112  -6.4360  -6.3394  -5.9851  -5.8477  -5.7073
    -5.6751  -5.2784  -5.2120  -4.7557  -3.9383  -3.9292  -3.9121  -3.7915
    -3.7345  -3.7072  -3.6311  -3.6197  -3.5919  -3.5599  -3.4767  -3.4674

          k = 0.2996-0.1730-1.2442 ( 34354 PWs)   bands (ev):

   -21.7089 -21.6907 -21.5569 -21.4839 -21.4315 -21.3918 -21.3035 -21.2752
   -21.2051 -21.1788 -21.0757 -21.0564  -9.4782  -9.4571  -9.3754  -9.3705
    -9.2712  -9.2553  -8.9852  -8.9342  -8.8138  -8.7795  -8.7069  -8.6970
    -7.0298  -7.0196  -6.6280  -6.5893  -6.2790  -6.0905  -5.7437  -5.6127
    -5.4505  -5.4312  -5.0697  -4.9245  -3.9423  -3.9194  -3.9160  -3.8355
    -3.7375  -3.6835  -3.6687  -3.6423  -3.5990  -3.5660  -3.4525  -3.4361

          k = 0.0000 0.0000 0.9332 ( 34378 PWs)   bands (ev):

   -21.6459 -21.6459 -21.6135 -21.5484 -21.4457 -21.4457 -21.2421 -21.2421
   -21.1757 -21.1197 -21.1197 -21.1175  -9.4501  -9.4501  -9.4134  -9.3031
    -9.3031  -9.2911  -8.9432  -8.8850  -8.8850  -8.7106  -8.7106  -8.6929
    -6.9312  -6.9312  -6.8784  -6.5674  -6.2755  -6.2755  -5.5368  -5.5368
    -5.5258  -5.1994  -5.1994  -5.0924  -3.9738  -3.9738  -3.8900  -3.8473
    -3.7260  -3.7260  -3.6986  -3.6413  -3.6413  -3.5135  -3.5135  -3.3899

          k = 0.4494 0.2595 0.0000 ( 34362 PWs)   bands (ev):

   -21.7309 -21.6223 -21.6206 -21.4836 -21.4017 -21.3873 -21.3111 -21.2972
   -21.2084 -21.1394 -21.1133 -21.0427  -9.4830  -9.4394  -9.4125  -9.3333
    -9.2953  -9.2446  -8.9936  -8.9083  -8.8534  -8.7396  -8.7245  -8.6964
    -7.1269  -6.8157  -6.7708  -6.5684  -6.2711  -6.0591  -5.7363  -5.7058
    -5.4776  -5.2680  -5.1678  -4.9016  -3.9310  -3.9285  -3.9148  -3.8377
    -3.7507  -3.6988  -3.6568  -3.6326  -3.5858  -3.5479  -3.4937  -3.4203

          k = 0.2996 0.1730 0.3111 ( 34339 PWs)   bands (ev):

   -21.7502 -21.5888 -21.5323 -21.5180 -21.4505 -21.4220 -21.2960 -21.2829
   -21.2245 -21.1597 -21.1153 -21.0218  -9.4867  -9.4197  -9.3880  -9.3543
    -9.3177  -9.2355  -8.9415  -8.8580  -8.8046  -8.7905  -8.7319  -8.7193
    -7.2253  -6.7634  -6.6657  -6.4933  -6.3671  -6.0487  -5.8368  -5.6978
    -5.5699  -5.2613  -5.1551  -4.8286  -4.0317  -3.9585  -3.9160  -3.8174
    -3.7686  -3.7241  -3.6771  -3.6278  -3.5705  -3.5343  -3.4724  -3.4432

          k = 0.4494-0.2595-0.9332 ( 34370 PWs)   bands (ev):

   -21.6671 -21.6620 -21.5746 -21.5324 -21.4470 -21.4028 -21.3187 -21.2690
   -21.1740 -21.1518 -21.1119 -21.0506  -9.4595  -9.4451  -9.4061  -9.3481
    -9.3133  -9.2124  -8.9709  -8.8671  -8.8061  -8.7943  -8.7247  -8.7168
    -6.9997  -6.8942  -6.6895  -6.6236  -6.3776  -6.0620  -5.8696  -5.6463
    -5.3607  -5.2950  -5.1803  -4.8790  -4.0403  -3.9651  -3.9375  -3.8240
    -3.7873  -3.7577  -3.6386  -3.6048  -3.5894  -3.5425  -3.4751  -3.4134

          k = 0.2996-0.3460-0.6221 ( 34364 PWs)   bands (ev):

   -21.6471 -21.6192 -21.5648 -21.5584 -21.4733 -21.4649 -21.2720 -21.2603
   -21.1717 -21.1613 -21.1090 -21.0633  -9.4627  -9.4097  -9.3914  -9.3596
    -9.3436  -9.2170  -8.8957  -8.8610  -8.7895  -8.7831  -8.7379  -8.7332
    -6.9723  -6.8846  -6.7064  -6.6636  -6.2987  -6.2685  -5.7192  -5.6614
    -5.3666  -5.3261  -5.1764  -4.8931  -4.1065  -3.9774  -3.9405  -3.8458
    -3.8189  -3.7150  -3.6756  -3.6332  -3.6203  -3.5000  -3.4836  -3.3999

          k = 0.0000 0.0000-1.8663 ( 34368 PWs)   bands (ev):

   -21.6243 -21.5928 -21.5611 -21.5611 -21.5116 -21.5116 -21.2275 -21.2275
   -21.1951 -21.1951 -21.1062 -21.0511  -9.4680  -9.3898  -9.3898  -9.3633
    -9.3633  -9.1911  -8.9111  -8.8694  -8.7707  -8.7707  -8.7579  -8.7579
    -6.9091  -6.8443  -6.5485  -6.5485  -6.5271  -6.5271  -5.5727  -5.5727
    -5.4151  -5.4151  -5.1583  -4.8486  -4.1288  -3.9707  -3.9707  -3.8660
    -3.8660  -3.6828  -3.6780  -3.5919  -3.5919  -3.5135  -3.5135  -3.3767

          k = 0.2996-0.3460 0.3111 ( 34356 PWs)   bands (ev):

   -21.7185 -21.6201 -21.5456 -21.5270 -21.4675 -21.4267 -21.2863 -21.2354
   -21.2118 -21.1539 -21.1194 -21.0498  -9.4773  -9.4275  -9.3887  -9.3617
    -9.2930  -9.2578  -8.9374  -8.8976  -8.8363  -8.7413  -8.7224  -8.7019
    -7.1328  -6.8257  -6.7536  -6.5193  -6.3625  -6.1007  -5.8178  -5.5532
    -5.4442  -5.3214  -5.1900  -4.9093  -4.0186  -3.9439  -3.9172  -3.8209
    -3.7497  -3.7214  -3.6777  -3.6565  -3.6184  -3.5193  -3.4803  -3.4159

     highest occupied level (ev):    -3.3767

!    total energy              =    -418.03162705 Ry
     estimated scf accuracy    <       0.00000003 Ry

     The total energy is the sum of the following terms:
     one-electron contribution =    -321.13240620 Ry
     hartree contribution      =     192.73133345 Ry
     xc contribution           =    -105.66793583 Ry
     ewald contribution        =    -183.96261847 Ry

     convergence has been achieved in   8 iterations

     Forces acting on atoms (cartesian axes, Ry/au):

     atom    1 type  2   force =    -0.00618344    0.01094319    0.01144388
     atom    2 type  2   force =     0.00618344   -0.01094319   -0.01144388
     atom    3 type  2   force =    -0.00638536   -0.01082661    0.01144388
     atom    4 type  2   force =     0.00638536    0.01082661   -0.01144388
     atom    5 type  2   force =     0.01256880   -0.00011658    0.01144388
     atom    6 type  2   force =    -0.01256880    0.00011658   -0.01144388
     atom    7 type  2   force =     0.00068043   -0.00518458    0.00053976
     atom    8 type  2   force =    -0.00068043    0.00518458   -0.00053976
     atom    9 type  2   force =     0.00414976    0.00318156    0.00053976
     atom   10 type  2   force =    -0.00414976   -0.00318156   -0.00053976
     atom   11 type  2   force =    -0.00483019    0.00200302    0.00053976
     atom   12 type  2   force =     0.00483019   -0.00200302   -0.00053976
     atom   13 type  1   force =    -0.00518777   -0.00047258   -0.02245787
     atom   14 type  1   force =     0.00518777    0.00047258    0.02245787
     atom   15 type  1   force =     0.00300315   -0.00425645   -0.02245787
     atom   16 type  1   force =    -0.00300315    0.00425645    0.02245787
     atom   17 type  1   force =     0.00218462    0.00472903   -0.02245787
     atom   18 type  1   force =    -0.00218462   -0.00472903    0.02245787
     atom   19 type  1   force =     0.01385157   -0.01369638    0.00610783
     atom   20 type  1   force =    -0.01385157    0.01369638   -0.00610783
     atom   21 type  1   force =     0.00493563    0.01884400    0.00610783
     atom   22 type  1   force =    -0.00493563   -0.01884400   -0.00610783
     atom   23 type  1   force =    -0.01878720   -0.00514762    0.00610783
     atom   24 type  1   force =     0.01878720    0.00514762   -0.00610783
     atom   25 type  1   force =     0.00424135    0.00291122    0.00210850
     atom   26 type  1   force =    -0.00424135   -0.00291122   -0.00210850
     atom   27 type  1   force =    -0.00464187    0.00221751    0.00210850
     atom   28 type  1   force =     0.00464187   -0.00221751   -0.00210850
     atom   29 type  1   force =     0.00040051   -0.00512873    0.00210850
     atom   30 type  1   force =    -0.00040051    0.00512873   -0.00210850
     atom   31 type  1   force =    -0.00183194   -0.00424154    0.00003006
     atom   32 type  1   force =     0.00183194    0.00424154   -0.00003006
     atom   33 type  1   force =     0.00458925    0.00053426    0.00003006
     atom   34 type  1   force =    -0.00458925   -0.00053426   -0.00003006
     atom   35 type  1   force =    -0.00275731    0.00370727    0.00003006
     atom   36 type  1   force =     0.00275731   -0.00370727   -0.00003006

     Total force =     0.088896     Total SCF correction =     0.000158


     Computing stress (Cartesian axis) and pressure

          total   stress  (Ry/bohr**3)                   (kbar)     P=      -11.68
  -0.00010515   0.00000000   0.00000000          -15.47        0.00        0.00
  -0.00000000  -0.00010515  -0.00000000           -0.00      -15.47       -0.00
  -0.00000000  -0.00000000  -0.00002792           -0.00       -0.00       -4.11

     Energy error            =      1.8E-02 Ry
     Gradient error          =      2.2E-02 Ry/Bohr

     number of scf cycles    =   3
     number of bfgs steps    =   2

     energy             old  =    -418.0139209003 Ry
     energy             new  =    -418.0316270497 Ry

     CASE: energy            _new < energy            _old

     new trust radius        =       0.0595058317 bohr
     new conv_thr            =       0.0000000225 Ry


ATOMIC_POSITIONS (crystal)
O                0.2741745975        0.0379911060        0.8607883466
O                0.7258254025        0.9620089050        0.1392116234
O                0.8607883466        0.2741745975        0.0379911060
O                0.1392116234        0.7258254025        0.9620089050
O                0.0379911060        0.8607883466        0.2741745975
O                0.9620089050        0.1392116234        0.7258254025
O                0.4696193636        0.7477094313        0.3297383783
O                0.5303806364        0.2522905687        0.6702615917
O                0.3297383783        0.4696193636        0.7477094313
O                0.6702615917        0.5303806364        0.2522905687
O                0.7477094313        0.3297383783        0.4696193636
O                0.2522905687        0.6702615917        0.5303806364
H                0.1564101998        0.0563413615        0.8012676122
H                0.8435897862        0.9436586305        0.1987323878
H                0.8012676122        0.1564101998        0.0563413615
H                0.1987323878        0.8435897862        0.9436586305
H                0.0563413615        0.8012676122        0.1564101998
H                0.9436586305        0.1987323878        0.8435897862
H                0.4190541171        0.2009318569        0.9970128095
H                0.5809458829        0.7990681581        0.0029871695
H                0.9970128095        0.4190541171        0.2009318569
H                0.0029871695        0.5809458829        0.7990681581
H                0.2009318569        0.9970128095        0.4190541171
H                0.7990681581        0.0029871695        0.5809458829
H                0.7212417315        0.4005209525        0.3986224998
H                0.2787582685        0.5994790175        0.6013775302
H                0.3986224998        0.7212417315        0.4005209525
H                0.6013775302        0.2787582685        0.5994790175
H                0.4005209525        0.3986224998        0.7212417315
H                0.5994790175        0.6013775302        0.2787582685
H                0.7416583691        0.2072292132        0.3664567483
H                0.2583416309        0.7927707718        0.6335432517
H                0.3664567483        0.7416583691        0.2072292132
H                0.6335432517        0.2583416309        0.7927707718
H                0.2072292132        0.3664567483        0.7416583691
H                0.7927707718        0.6335432517        0.2583416309



     Writing config-only to output data dir ./iceII/iceII.save/ :
     XML data file
     NEW-OLD atomic charge density approx. for the potential

     negative rho (up, down):  2.872E-07 0.000E+00

     total cpu time spent up to now is       50.4 secs

     per-process dynamical memory:    21.7 Mb

     Self-consistent Calculation

     iteration #  1     ecut=    90.00 Ry     beta= 0.70
     Davidson diagonalization with overlap
     ethr =  1.00E-06,  avg # of iterations =  7.0

     negative rho (up, down):  7.649E-08 0.000E+00

     total cpu time spent up to now is       52.2 secs

     total energy              =    -418.04255971 Ry
     estimated scf accuracy    <       0.00127544 Ry

     iteration #  2     ecut=    90.00 Ry     beta= 0.70
     Davidson diagonalization with overlap
     ethr =  1.33E-06,  avg # of iterations =  2.4

     negative rho (up, down):  6.882E-08 0.000E+00

     total cpu time spent up to now is       53.3 secs

     total energy              =    -418.04278928 Ry
     estimated scf accuracy    <       0.00019991 Ry

     iteration #  3     ecut=    90.00 Ry     beta= 0.70
     Davidson diagonalization with overlap
     ethr =  2.08E-07,  avg # of iterations =  2.6

     negative rho (up, down):  6.693E-08 0.000E+00

     total cpu time spent up to now is       54.5 secs

     total energy              =    -418.04283557 Ry
     estimated scf accuracy    <       0.00001880 Ry

     iteration #  4     ecut=    90.00 Ry     beta= 0.70
     Davidson diagonalization with overlap
     ethr =  1.96E-08,  avg # of iterations =  2.1

     negative rho (up, down):  6.707E-08 0.000E+00

     total cpu time spent up to now is       55.5 secs

     total energy              =    -418.04283750 Ry
     estimated scf accuracy    <       0.00000127 Ry

     iteration #  5     ecut=    90.00 Ry     beta= 0.70
     Davidson diagonalization with overlap
     ethr =  1.33E-09,  avg # of iterations =  3.5

     negative rho (up, down):  6.756E-08 0.000E+00

     total cpu time spent up to now is       56.7 secs

     total energy              =    -418.04283792 Ry
     estimated scf accuracy    <       0.00000011 Ry

     iteration #  6     ecut=    90.00 Ry     beta= 0.70
     Davidson diagonalization with overlap
     ethr =  1.18E-10,  avg # of iterations =  3.0

     negative rho (up, down):  6.782E-08 0.000E+00

     total cpu time spent up to now is       57.8 secs

     End of self-consistent calculation

          k = 0.0000 0.0000 0.0000 ( 34387 PWs)   bands (ev):

   -21.7685 -21.4774 -21.4774 -21.3055 -21.3055 -21.2822 -21.2822 -21.2731
   -21.2708 -21.0533 -21.0533 -20.8744  -9.4853  -9.3590  -9.3265  -9.3265
    -9.3099  -9.3099  -8.9975  -8.9975  -8.9667  -8.9581  -8.9581  -8.8591
    -7.3868  -6.4804  -6.4804  -6.1056  -6.1056  -5.9356  -5.9356  -5.7377
    -5.6886  -5.1494  -5.1494  -4.6009  -3.9251  -3.9251  -3.8861  -3.7218
    -3.7218  -3.6806  -3.6129  -3.5548  -3.5330  -3.5330  -3.5012  -3.5012

          k =-0.1498-0.0865 0.3111 ( 34378 PWs)   bands (ev):

   -21.7203 -21.5002 -21.4787 -21.3932 -21.3650 -21.3364 -21.2415 -21.2090
   -21.1811 -21.0586 -21.0352 -20.9078  -9.4581  -9.3800  -9.3480  -9.3364
    -9.2987  -9.2559  -9.0264  -9.0038  -8.9739  -8.9191  -8.9043  -8.8846
    -7.2425  -6.6331  -6.5241  -6.3133  -6.1937  -5.9322  -5.7572  -5.6913
    -5.5340  -5.1504  -5.0906  -4.7219  -3.9939  -3.9466  -3.8824  -3.7558
    -3.7489  -3.7099  -3.6862  -3.5817  -3.5529  -3.5003  -3.4815  -3.4498

          k = 0.2996 0.1730-0.6221 ( 34412 PWs)   bands (ev):

   -21.6217 -21.5663 -21.4979 -21.4387 -21.3947 -21.3642 -21.2187 -21.1773
   -21.1145 -21.0523 -21.0173 -20.9668  -9.4131  -9.4009  -9.3613  -9.3411
    -9.2924  -9.2357  -9.0245  -9.0106  -8.9565  -8.9411  -8.8781  -8.8666
    -6.9219  -6.8866  -6.5653  -6.5488  -6.1317  -6.1064  -5.6381  -5.5820
    -5.2544  -5.2147  -5.0496  -4.9234  -4.0561  -3.9583  -3.8806  -3.7981
    -3.7700  -3.7673  -3.6634  -3.6445  -3.5868  -3.4865  -3.4428  -3.4136

          k =-0.1498 0.0865 0.6221 ( 34355 PWs)   bands (ev):

   -21.6308 -21.5330 -21.5200 -21.4349 -21.4029 -21.3709 -21.2070 -21.1653
   -21.1278 -21.0467 -21.0304 -20.9608  -9.4150  -9.3892  -9.3821  -9.3267
    -9.2950  -9.2356  -9.0224  -9.0133  -8.9767  -8.9056  -8.8879  -8.8722
    -6.9781  -6.7553  -6.7293  -6.3818  -6.2454  -6.1016  -5.6458  -5.4548
    -5.3968  -5.1339  -5.0780  -4.9251  -4.0429  -3.9799  -3.8726  -3.7944
    -3.7876  -3.7245  -3.7052  -3.6168  -3.5954  -3.4860  -3.4537  -3.4058

          k = 0.2996 0.3460-0.3111 ( 34356 PWs)   bands (ev):

   -21.6577 -21.5552 -21.5110 -21.4271 -21.3784 -21.3507 -21.2174 -21.1700
   -21.1184 -21.0739 -21.0157 -20.9513  -9.4323  -9.4085  -9.3476  -9.3240
    -9.2983  -9.2339  -9.0743  -9.0559  -9.0016  -8.8946  -8.8731  -8.8572
    -7.0247  -6.7422  -6.5884  -6.4233  -6.3745  -5.9671  -5.5781  -5.4874
    -5.4440  -5.1905  -5.0763  -4.8653  -3.9943  -3.9429  -3.8877  -3.8158
    -3.7310  -3.6942  -3.6641  -3.6384  -3.5906  -3.5248  -3.4511  -3.3917

          k = 0.1498 0.2595 0.0000 ( 34379 PWs)   bands (ev):

   -21.7329 -21.5250 -21.4896 -21.3739 -21.3476 -21.2893 -21.2685 -21.2092
   -21.1896 -21.0616 -21.0351 -20.9011  -9.4690  -9.3843  -9.3481  -9.3324
    -9.2774  -9.2710  -9.0829  -9.0461  -8.9718  -8.9330  -8.8980  -8.8549
    -7.2529  -6.5431  -6.5164  -6.3450  -6.2752  -5.8755  -5.7345  -5.5966
    -5.5809  -5.1909  -5.1336  -4.6771  -3.9248  -3.9147  -3.8979  -3.7770
    -3.7183  -3.6815  -3.6238  -3.5979  -3.5723  -3.5397  -3.4545  -3.4450

          k = 0.2996-0.1730-1.2442 ( 34354 PWs)   bands (ev):

   -21.6433 -21.6318 -21.5003 -21.4045 -21.3543 -21.2996 -21.2439 -21.1918
   -21.1366 -21.0756 -20.9864 -20.9550  -9.4379  -9.4175  -9.3537  -9.3349
    -9.2531  -9.2408  -9.1366  -9.0857  -8.9818  -8.9227  -8.8666  -8.8519
    -6.9199  -6.9106  -6.5137  -6.5135  -6.1904  -5.9723  -5.6065  -5.5286
    -5.3819  -5.3154  -4.9863  -4.8562  -3.9280  -3.9046  -3.9026  -3.8216
    -3.7174  -3.6558  -3.6493  -3.6364  -3.5831  -3.5480  -3.4294  -3.4121

          k = 0.0000 0.0000 0.9332 ( 34378 PWs)   bands (ev):

   -21.5815 -21.5815 -21.5760 -21.4376 -21.3732 -21.3732 -21.1616 -21.1616
   -21.1312 -21.0256 -21.0256 -20.9983  -9.4136  -9.4136  -9.3737  -9.2825
    -9.2825  -9.2823  -9.0968  -9.0408  -9.0408  -8.8615  -8.8615  -8.8472
    -6.8291  -6.8291  -6.7019  -6.5657  -6.1822  -6.1822  -5.4118  -5.4118
    -5.3160  -5.1373  -5.1373  -5.0770  -3.9557  -3.9557  -3.8744  -3.8369
    -3.7022  -3.7022  -3.6786  -3.6331  -3.6331  -3.4890  -3.4890  -3.3714

          k = 0.4494 0.2595 0.0000 ( 34362 PWs)   bands (ev):

   -21.6674 -21.5659 -21.5575 -21.3921 -21.3409 -21.3095 -21.2313 -21.2064
   -21.1469 -21.0447 -21.0147 -20.9459  -9.4413  -9.4029  -9.3787  -9.3084
    -9.2796  -9.2275  -9.1449  -9.0585  -9.0158  -8.8952  -8.8733  -8.8570
    -7.0205  -6.6821  -6.6670  -6.5175  -6.1597  -5.9364  -5.6429  -5.6152
    -5.3411  -5.1899  -5.0942  -4.8293  -3.9157  -3.9149  -3.9008  -3.8237
    -3.7313  -3.6788  -3.6394  -3.6184  -3.5668  -3.5297  -3.4736  -3.3949

          k = 0.2996 0.1730 0.3111 ( 34339 PWs)   bands (ev):

   -21.6878 -21.5321 -21.4844 -21.4317 -21.3636 -21.3362 -21.2319 -21.2081
   -21.1329 -21.0758 -21.0167 -20.9255  -9.4449  -9.3913  -9.3609  -9.3199
    -9.3053  -9.2205  -9.0821  -8.9994  -8.9638  -8.9543  -8.8856  -8.8775
    -7.1237  -6.6503  -6.5853  -6.3482  -6.3106  -5.9589  -5.6774  -5.5976
    -5.5061  -5.1480  -5.0772  -4.7617  -4.0106  -3.9411  -3.9002  -3.7992
    -3.7524  -3.7062  -3.6621  -3.6094  -3.5596  -3.5172  -3.4566  -3.4139

          k = 0.4494-0.2595-0.9332 ( 34370 PWs)   bands (ev):

   -21.6110 -21.5984 -21.5183 -21.4444 -21.3682 -21.3247 -21.2413 -21.1922
   -21.0899 -21.0727 -21.0207 -20.9448  -9.4199  -9.4083  -9.3749  -9.3181
    -9.2901  -9.1908  -9.1187  -9.0271  -8.9734  -8.9473  -8.8825  -8.8704
    -6.8953  -6.7947  -6.6122  -6.5213  -6.2556  -5.9326  -5.7698  -5.5659
    -5.2892  -5.1557  -5.0998  -4.8179  -4.0181  -3.9465  -3.9192  -3.8062
    -3.7679  -3.7435  -3.6249  -3.5912  -3.5774  -3.5282  -3.4570  -3.3831

          k = 0.2996-0.3460-0.6221 ( 34364 PWs)   bands (ev):

   -21.6034 -21.5446 -21.5121 -21.4750 -21.3914 -21.3756 -21.2061 -21.1836
   -21.0850 -21.0630 -21.0400 -20.9503  -9.4239  -9.3753  -9.3574  -9.3383
    -9.3213  -9.1935  -9.0397  -9.0246  -8.9491  -8.9375  -8.8930  -8.8870
    -6.8472  -6.8206  -6.6004  -6.5737  -6.1988  -6.1690  -5.5800  -5.5419
    -5.2871  -5.2643  -5.0275  -4.8658  -4.0766  -3.9588  -3.9224  -3.8258
    -3.7985  -3.7074  -3.6580  -3.6206  -3.6053  -3.4872  -3.4670  -3.3721

          k = 0.0000 0.0000-1.8663 ( 34368 PWs)   bands (ev):

   -21.5833 -21.5176 -21.5176 -21.4889 -21.4144 -21.4144 -21.1688 -21.1688
   -21.0838 -21.0838 -21.0517 -20.9371  -9.4272  -9.3549  -9.3549  -9.3364
    -9.3364  -9.1619  -9.0541  -9.0386  -8.9332  -8.9332  -8.9140  -8.9140
    -6.8360  -6.7467  -6.4881  -6.4881  -6.3656  -6.3656  -5.4101  -5.4101
    -5.4036  -5.4036  -4.9883  -4.8230  -4.0923  -3.9516  -3.9516  -3.8469
    -3.8469  -3.6769  -3.6602  -3.5821  -3.5821  -3.4976  -3.4976  -3.3460

          k = 0.2996-0.3460 0.3111 ( 34356 PWs)   bands (ev):

   -21.6564 -21.5650 -21.4964 -21.4300 -21.3837 -21.3518 -21.2028 -21.1796
   -21.1292 -21.0579 -21.0235 -20.9505  -9.4360  -9.3974  -9.3556  -9.3343
    -9.2801  -9.2410  -9.0858  -9.0472  -8.9979  -8.8906  -8.8776  -8.8578
    -7.0242  -6.7458  -6.6074  -6.4033  -6.3437  -6.0039  -5.6523  -5.4254
    -5.3652  -5.2224  -5.1185  -4.8501  -3.9985  -3.9272  -3.9012  -3.8073
    -3.7300  -3.6998  -3.6643  -3.6355  -3.6096  -3.5051  -3.4513  -3.3966

     highest occupied level (ev):    -3.3460

!    total energy              =    -418.04283795 Ry
     estimated scf accuracy    <          8.5E-09 Ry

     The total energy is the sum of the following terms:
     one-electron contribution =    -319.86103241 Ry
     hartree contribution      =     192.15434991 Ry
     xc contribution           =    -105.58726476 Ry
     ewald contribution        =    -184.74889068 Ry

     convergence has been achieved in   6 iterations

     Forces acting on atoms (cartesian axes, Ry/au):

     atom    1 type  2   force =    -0.00446208    0.00588903    0.00111974
     atom    2 type  2   force =     0.00446208   -0.00588903   -0.00111974
     atom    3 type  2   force =    -0.00286901   -0.00680879    0.00111974
     atom    4 type  2   force =     0.00286901    0.00680879   -0.00111974
     atom    5 type  2   force =     0.00733109    0.00091976    0.00111974
     atom    6 type  2   force =    -0.00733109   -0.00091976   -0.00111974
     atom    7 type  2   force =    -0.00286342    0.00146260   -0.00484825
     atom    8 type  2   force =     0.00286342   -0.00146260    0.00484825
     atom    9 type  2   force =     0.00016506   -0.00321109   -0.00484825
     atom   10 type  2   force =    -0.00016506    0.00321109    0.00484825
     atom   11 type  2   force =     0.00269836    0.00174849   -0.00484825
     atom   12 type  2   force =    -0.00269836   -0.00174849    0.00484825
     atom   13 type  1   force =    -0.00057775   -0.00747272   -0.00339464
     atom   14 type  1   force =     0.00057775    0.00747272    0.00339464
     atom   15 type  1   force =     0.00676044    0.00323602   -0.00339464
     atom   16 type  1   force =    -0.00676044   -0.00323602    0.00339464
     atom   17 type  1   force =    -0.00618269    0.00423671   -0.00339464
     atom   18 type  1   force =     0.00618269   -0.00423671    0.00339464
     atom   19 type  1   force =     0.00714373   -0.00107779   -0.00208363
     atom   20 type  1   force =    -0.00714373    0.00107779    0.00208363
     atom   21 type  1   force =    -0.00263847    0.00672554   -0.00208363
     atom   22 type  1   force =     0.00263847   -0.00672554    0.00208363
     atom   23 type  1   force =    -0.00450526   -0.00564775   -0.00208363
     atom   24 type  1   force =     0.00450526    0.00564775    0.00208363
     atom   25 type  1   force =     0.00180697   -0.00286464    0.00287580
     atom   26 type  1   force =    -0.00180697    0.00286464   -0.00287580
     atom   27 type  1   force =     0.00157736    0.00299720    0.00287580
     atom   28 type  1   force =    -0.00157736   -0.00299720   -0.00287580
     atom   29 type  1   force =    -0.00338434   -0.00013256    0.00287580
     atom   30 type  1   force =     0.00338434    0.00013256   -0.00287580
     atom   31 type  1   force =    -0.00648554    0.00065667    0.00384504
     atom   32 type  1   force =     0.00648554   -0.00065667   -0.00384504
     atom   33 type  1   force =     0.00267408   -0.00594497    0.00384504
     atom   34 type  1   force =    -0.00267408    0.00594497   -0.00384504
     atom   35 type  1   force =     0.00381146    0.00528831    0.00384504
     atom   36 type  1   force =    -0.00381146   -0.00528831   -0.00384504

     Total force =     0.041781     Total SCF correction =     0.000127


     Computing stress (Cartesian axis) and pressure

          total   stress  (Ry/bohr**3)                   (kbar)     P=      -19.98
  -0.00015639  -0.00000000  -0.00000000          -23.01       -0.00       -0.00
   0.00000000  -0.00015639  -0.00000000            0.00      -23.01       -0.00
   0.00000000  -0.00000000  -0.00009460            0.00       -0.00      -13.92

     Energy error            =      1.1E-02 Ry
     Gradient error          =      7.5E-03 Ry/Bohr

     number of scf cycles    =   4
     number of bfgs steps    =   3

     energy             old  =    -418.0316270497 Ry
     energy             new  =    -418.0428379508 Ry

     CASE: energy            _new < energy            _old

     new trust radius        =       0.0198584770 bohr
     new conv_thr            =       0.0000000075 Ry


ATOMIC_POSITIONS (crystal)
O                0.2738691240        0.0385868082        0.8610742845
O                0.7261308760        0.9614132028        0.1389256855
O                0.8610742845        0.2738691240        0.0385868082
O                0.1389256855        0.7261308760        0.9614132028
O                0.0385868082        0.8610742845        0.2738691240
O                0.9614132028        0.1389256855        0.7261308760
O                0.4690924684        0.7472448574        0.3294095621
O                0.5309075316        0.2527551426        0.6705904079
O                0.3294095621        0.4690924684        0.7472448574
[...]
H                0.1880026672        0.9775528372        0.4148548731
H                0.8119973478        0.0224471418        0.5851451269
H                0.7307534108        0.4046121104        0.4089021514
H                0.2692465892        0.5953878596        0.5910978786
H                0.4089021514        0.7307534108        0.4046121104
H                0.5910978786        0.2692465892        0.5953878596
H                0.4046121104        0.4089021514        0.7307534108
H                0.5953878596        0.5910978786        0.2692465892
H                0.7461960258        0.2095743839        0.3769337348
H                0.2538039742        0.7904256011        0.6230662652
H                0.3769337348        0.7461960258        0.2095743839
H                0.6230662652        0.2538039742        0.7904256011
H                0.2095743839        0.3769337348        0.7461960258
H                0.7904256011        0.6230662652        0.2538039742



     Writing config-only to output data dir ./iceII/iceII.save/ :
     XML data file
     NEW-OLD atomic charge density approx. for the potential

     negative rho (up, down):  2.601E-07 0.000E+00

     total cpu time spent up to now is      274.2 secs

     per-process dynamical memory:    42.7 Mb

     Self-consistent Calculation

     iteration #  1     ecut=    90.00 Ry     beta= 0.70
     Davidson diagonalization with overlap
     ethr =  1.00E-06,  avg # of iterations =  3.0

     Threshold (ethr) on eigenvalues was too large:
     Diagonalizing with lowered threshold

     Davidson diagonalization with overlap
     ethr =  2.01E-08,  avg # of iterations =  3.4

     negative rho (up, down):  2.718E-07 0.000E+00

     total cpu time spent up to now is      276.4 secs

     total energy              =    -418.05223799 Ry
     estimated scf accuracy    <       0.00002458 Ry

     iteration #  2     ecut=    90.00 Ry     beta= 0.70
     Davidson diagonalization with overlap
     ethr =  2.56E-08,  avg # of iterations =  2.0

     negative rho (up, down):  2.764E-07 0.000E+00

     total cpu time spent up to now is      277.3 secs

     total energy              =    -418.05224102 Ry
     estimated scf accuracy    <       0.00000170 Ry

     iteration #  3     ecut=    90.00 Ry     beta= 0.70
     Davidson diagonalization with overlap
     ethr =  1.77E-09,  avg # of iterations =  3.1

     negative rho (up, down):  2.767E-07 0.000E+00

     total cpu time spent up to now is      278.5 secs

     total energy              =    -418.05224140 Ry
     estimated scf accuracy    <       0.00000031 Ry

     iteration #  4     ecut=    90.00 Ry     beta= 0.70
     Davidson diagonalization with overlap
     ethr =  3.23E-10,  avg # of iterations =  3.0

     negative rho (up, down):  2.771E-07 0.000E+00

     total cpu time spent up to now is      279.7 secs

     total energy              =    -418.05224147 Ry
     estimated scf accuracy    <       0.00000003 Ry

     iteration #  5     ecut=    90.00 Ry     beta= 0.70
     Davidson diagonalization with overlap
     ethr =  3.62E-11,  avg # of iterations =  2.7

     negative rho (up, down):  2.771E-07 0.000E+00

     total cpu time spent up to now is      280.8 secs

     total energy              =    -418.05224148 Ry
     estimated scf accuracy    <          8.9E-09 Ry

     iteration #  6     ecut=    90.00 Ry     beta= 0.70
     Davidson diagonalization with overlap
     ethr =  9.28E-12,  avg # of iterations =  2.1

     negative rho (up, down):  2.770E-07 0.000E+00

     total cpu time spent up to now is      281.9 secs

     End of self-consistent calculation

          k = 0.0000 0.0000 0.0000 ( 34387 PWs)   bands (ev):

   -21.7707 -21.4615 -21.4615 -21.3212 -21.3212 -21.2980 -21.2942 -21.2923
   -21.2923 -21.0972 -21.0972 -20.8905  -9.3914  -9.3246  -9.3229  -9.3229
    -9.2674  -9.2674  -9.0540  -9.0540  -9.0323  -9.0322  -9.0250  -9.0250
    -7.3093  -6.5028  -6.5028  -6.0381  -6.0381  -5.8774  -5.8774  -5.7779
    -5.6732  -5.1355  -5.1355  -4.5364  -3.8979  -3.8979  -3.8620  -3.7448
    -3.7448  -3.7109  -3.6095  -3.6031  -3.6031  -3.5711  -3.5145  -3.5145

          k =-0.1498-0.0865 0.3111 ( 34378 PWs)   bands (ev):

   -21.7213 -21.4889 -21.4553 -21.4148 -21.3888 -21.3463 -21.2621 -21.2297
   -21.1926 -21.1000 -21.0729 -20.9287  -9.3705  -9.3401  -9.3211  -9.3077
    -9.2636  -9.2405  -9.0876  -9.0717  -9.0586  -9.0204  -8.9901  -8.9797
    -7.1849  -6.6354  -6.5343  -6.2783  -6.0991  -5.9089  -5.7372  -5.6709
    -5.5108  -5.1334  -5.0798  -4.6570  -3.9583  -3.9067  -3.8669  -3.7849
    -3.7819  -3.7462  -3.6786  -3.6059  -3.5758  -3.5530  -3.5184  -3.4999

          k = 0.2996 0.1730-0.6221 ( 34412 PWs)   bands (ev):

   -21.5986 -21.5889 -21.4733 -21.4678 -21.3933 -21.3851 -21.2298 -21.2178
   -21.1159 -21.0908 -21.0295 -21.0140  -9.3511  -9.3407  -9.3110  -9.3085
    -9.2630  -9.2116  -9.1030  -9.1024  -9.0616  -9.0185  -8.9609  -8.9504
    -6.9140  -6.8602  -6.5312  -6.5262  -6.0717  -6.0362  -5.6360  -5.5923
    -5.2254  -5.1702  -5.0327  -4.8694  -4.0168  -3.9161  -3.8480  -3.8471
    -3.7982  -3.7881  -3.7045  -3.6201  -3.6122  -3.5290  -3.4988  -3.4842

          k =-0.1498 0.0865 0.6221 ( 34355 PWs)   bands (ev):

   -21.6234 -21.5286 -21.5200 -21.4422 -21.4233 -21.3807 -21.2301 -21.1788
   -21.1488 -21.0720 -21.0596 -20.9972  -9.3527  -9.3336  -9.3194  -9.3102
    -9.2567  -9.2114  -9.1020  -9.0962  -9.0847  -8.9889  -8.9715  -8.9553
    -6.9638  -6.7326  -6.7039  -6.3544  -6.1890  -6.0409  -5.6452  -5.4451
    -5.3610  -5.1102  -5.0517  -4.8706  -4.0053  -3.9371  -3.8417  -3.8381
    -3.8030  -3.7733  -3.7243  -3.6136  -3.6022  -3.5378  -3.5092  -3.4740

          k = 0.2996 0.3460-0.3111 ( 34356 PWs)   bands (ev):

   -21.6549 -21.5455 -21.4928 -21.4511 -21.4106 -21.3641 -21.2337 -21.1699
   -21.1357 -21.1083 -21.0502 -20.9844  -9.3543  -9.3535  -9.3116  -9.2954
    -9.2554  -9.2303  -9.1355  -9.1136  -9.0878  -8.9950  -8.9800  -8.9532
    -6.9699  -6.7208  -6.5866  -6.3920  -6.3247  -5.9341  -5.5871  -5.4820
    -5.3873  -5.1395  -5.0565  -4.8284  -3.9630  -3.9060  -3.8632  -3.8234
    -3.7740  -3.7409  -3.6811  -3.6549  -3.5848  -3.5743  -3.4978  -3.4478

          k = 0.1498 0.2595 0.0000 ( 34379 PWs)   bands (ev):

   -21.7340 -21.5087 -21.4719 -21.3971 -21.3763 -21.3244 -21.2670 -21.2215
   -21.1919 -21.1027 -21.0804 -20.9217  -9.3788  -9.3365  -9.3243  -9.3062
    -9.2645  -9.2559  -9.1105  -9.0942  -9.0613  -9.0143  -9.0070  -8.9812
    -7.1796  -6.5480  -6.4893  -6.2917  -6.2837  -5.8453  -5.6957  -5.5798
    -5.5481  -5.1609  -5.1239  -4.6265  -3.8992  -3.8845  -3.8720  -3.7800
    -3.7408  -3.7287  -3.6512  -3.6350  -3.6060  -3.5663  -3.4856  -3.4736

          k = 0.2996-0.1730-1.2442 ( 34354 PWs)   bands (ev):

   -21.6477 -21.6180 -21.4784 -21.4336 -21.3740 -21.3436 -21.2256 -21.2165
   -21.1296 -21.1253 -21.0066 -20.9984  -9.3582  -9.3480  -9.3209  -9.2984
    -9.2565  -9.2468  -9.1532  -9.1253  -9.0741  -9.0025  -8.9991  -8.9665
    -6.8643  -6.8273  -6.5646  -6.4267  -6.2333  -5.9585  -5.5414  -5.5210
    -5.3785  -5.2384  -4.9496  -4.8451  -3.9004  -3.8757  -3.8756  -3.8109
    -3.7323  -3.7235  -3.7000  -3.6523  -3.6226  -3.5580  -3.4623  -3.4478

          k = 0.0000 0.0000 0.9332 ( 34378 PWs)   bands (ev):

   -21.5812 -21.5812 -21.5289 -21.5036 -21.3839 -21.3839 -21.1821 -21.1821
   -21.1020 -21.0669 -21.0528 -21.0528  -9.3514  -9.3514  -9.3201  -9.2580
    -9.2566  -9.2566  -9.1716  -9.1106  -9.1106  -8.9649  -8.9649  -8.9455
    -6.7760  -6.7760  -6.7328  -6.4720  -6.1807  -6.1807  -5.3978  -5.3978
    -5.2681  -5.1032  -5.1032  -5.0397  -3.9206  -3.9206  -3.8442  -3.8253
    -3.7572  -3.7572  -3.7357  -3.6211  -3.6211  -3.5368  -3.5368  -3.4288

          k = 0.4494 0.2595 0.0000 ( 34362 PWs)   bands (ev):

   -21.6664 -21.5536 -21.5460 -21.4351 -21.3410 -21.3311 -21.2483 -21.2329
   -21.1312 -21.0776 -21.0562 -20.9780  -9.3596  -9.3398  -9.3322  -9.2876
    -9.2692  -9.2387  -9.1600  -9.1125  -9.0884  -8.9999  -8.9870  -8.9745
    -6.9508  -6.6209  -6.5965  -6.5501  -6.1971  -5.9389  -5.6230  -5.5436
    -5.2784  -5.1638  -5.0816  -4.8042  -3.8945  -3.8805  -3.8727  -3.8003
    -3.7713  -3.7273  -3.6775  -3.6487  -3.6224  -3.5387  -3.4889  -3.4385

          k = 0.2996 0.1730 0.3111 ( 34339 PWs)   bands (ev):

   -21.6870 -21.5164 -21.4656 -21.4514 -21.3980 -21.3553 -21.2429 -21.2103
   -21.1713 -21.0929 -21.0561 -20.9538  -9.3637  -9.3427  -9.3223  -9.2883
    -9.2664  -9.2227  -9.1137  -9.0856  -9.0494  -9.0371  -9.0098  -8.9674
    -7.0669  -6.6274  -6.5940  -6.3316  -6.2513  -5.9161  -5.6772  -5.5347
    -5.5005  -5.1067  -5.0652  -4.7199  -3.9828  -3.9003  -3.8741  -3.8275
    -3.7911  -3.7233  -3.6792  -3.6372  -3.5700  -3.5638  -3.4884  -3.4765

          k = 0.4494-0.2595-0.9332 ( 34370 PWs)   bands (ev):

   -21.6001 -21.5939 -21.5041 -21.4760 -21.3915 -21.3341 -21.2670 -21.2007
   -21.1161 -21.0798 -21.0450 -20.9924  -9.3574  -9.3379  -9.3247  -9.2781
    -9.2571  -9.2079  -9.1302  -9.1079  -9.0756  -9.0341  -9.0003  -8.9748
    -6.8336  -6.7439  -6.6447  -6.4510  -6.2686  -5.9159  -5.7448  -5.4965
    -5.2842  -5.0929  -5.0634  -4.8179  -3.9936  -3.9111  -3.8890  -3.8376
    -3.8097  -3.7267  -3.6634  -3.6423  -3.5830  -3.5557  -3.4886  -3.4468

          k = 0.2996-0.3460-0.6221 ( 34364 PWs)   bands (ev):

   -21.5742 -21.5644 -21.4960 -21.4949 -21.4050 -21.4010 -21.2144 -21.2083
   -21.1063 -21.0983 -21.0365 -21.0053  -9.3601  -9.3157  -9.3057  -9.2972
    -9.2809  -9.1801  -9.1113  -9.1047  -9.0626  -9.0287  -8.9817  -8.9738
    -6.8322  -6.8077  -6.5741  -6.5414  -6.1358  -6.1091  -5.5836  -5.5407
    -5.2413  -5.2147  -4.9825  -4.8543  -4.0438  -3.9197  -3.8883  -3.8721
    -3.8370  -3.7350  -3.6507  -3.6422  -3.6104  -3.5287  -3.5178  -3.4499

          k = 0.0000 0.0000-1.8663 ( 34368 PWs)   bands (ev):

   -21.5451 -21.5375 -21.4869 -21.4869 -21.4621 -21.4621 -21.1563 -21.1563
   -21.1416 -21.1416 -21.0339 -20.9940  -9.3617  -9.2934  -9.2934  -9.2930
    -9.2930  -9.1616  -9.1113  -9.1024  -9.0523  -9.0523  -9.0036  -9.0036
    -6.8324  -6.7296  -6.4317  -6.4317  -6.3442  -6.3442  -5.3772  -5.3772
    -5.3668  -5.3668  -4.9332  -4.8337  -4.0597  -3.9147  -3.9147  -3.8948
    -3.8948  -3.6901  -3.6555  -3.5805  -3.5805  -3.5602  -3.5602  -3.4237

          k = 0.2996-0.3460 0.3111 ( 34356 PWs)   bands (ev):

   -21.6546 -21.5482 -21.4844 -21.4590 -21.4085 -21.3643 -21.2310 -21.1649
   -21.1558 -21.0895 -21.0566 -20.9843  -9.3618  -9.3416  -9.3182  -9.2849
    -9.2662  -9.2287  -9.1382  -9.1116  -9.0874  -8.9929  -8.9752  -8.9588
    -6.9708  -6.7151  -6.6119  -6.3657  -6.3012  -5.9758  -5.6481  -5.4064
    -5.3232  -5.1922  -5.0867  -4.8119  -3.9678  -3.8945  -3.8714  -3.8144
    -3.7742  -3.7367  -3.6947  -3.6603  -3.5983  -3.5478  -3.5000  -3.4510

     highest occupied level (ev):    -3.4237

!    total energy              =    -418.05224148 Ry
     estimated scf accuracy    <          4.2E-10 Ry

     The total energy is the sum of the following terms:
     one-electron contribution =    -321.70821557 Ry
     hartree contribution      =     193.08320553 Ry
     xc contribution           =    -105.62502542 Ry
     ewald contribution        =    -183.80220601 Ry

     convergence has been achieved in   6 iterations

     Forces acting on atoms (cartesian axes, Ry/au):

     atom    1 type  2   force =    -0.00026525   -0.00032976    0.00010587
     atom    2 type  2   force =     0.00026525    0.00032976   -0.00010587
     atom    3 type  2   force =     0.00041820   -0.00006484    0.00010587
     atom    4 type  2   force =    -0.00041820    0.00006484   -0.00010587
     atom    5 type  2   force =    -0.00015295    0.00039459    0.00010587
     atom    6 type  2   force =     0.00015295   -0.00039459   -0.00010587
     atom    7 type  2   force =    -0.00026271   -0.00000075    0.00068302
     atom    8 type  2   force =     0.00026271    0.00000075   -0.00068302
     atom    9 type  2   force =     0.00013200   -0.00022714    0.00068302
     atom   10 type  2   force =    -0.00013200    0.00022714   -0.00068302
     atom   11 type  2   force =     0.00013071    0.00022789    0.00068302
     atom   12 type  2   force =    -0.00013071   -0.00022789   -0.00068302
     atom   13 type  1   force =    -0.00004172    0.00006700    0.00063085
     atom   14 type  1   force =     0.00004172   -0.00006700   -0.00063085
     atom   15 type  1   force =    -0.00003716   -0.00006963    0.00063085
     atom   16 type  1   force =     0.00003716    0.00006963   -0.00063085
     atom   17 type  1   force =     0.00007889    0.00000263    0.00063085
     atom   18 type  1   force =    -0.00007889   -0.00000263   -0.00063085
     atom   19 type  1   force =     0.00019663   -0.00027468    0.00028192
     atom   20 type  1   force =    -0.00019663    0.00027468   -0.00028192
     atom   21 type  1   force =     0.00013957    0.00030762    0.00028192
     atom   22 type  1   force =    -0.00013957   -0.00030762   -0.00028192
     atom   23 type  1   force =    -0.00033620   -0.00003294    0.00028192
     atom   24 type  1   force =     0.00033620    0.00003294   -0.00028192
     atom   25 type  1   force =    -0.00038062    0.00042182    0.00005539
     atom   26 type  1   force =     0.00038062   -0.00042182   -0.00005539
     atom   27 type  1   force =    -0.00017500   -0.00054053    0.00005539
     atom   28 type  1   force =     0.00017500    0.00054053   -0.00005539
     atom   29 type  1   force =     0.00055561    0.00011872    0.00005539
     atom   30 type  1   force =    -0.00055561   -0.00011872   -0.00005539
     atom   31 type  1   force =    -0.00071917   -0.00043612    0.00011456
     atom   32 type  1   force =     0.00071917    0.00043612   -0.00011456
     atom   33 type  1   force =     0.00073727   -0.00040476    0.00011456
     atom   34 type  1   force =    -0.00073727    0.00040476   -0.00011456
     atom   35 type  1   force =    -0.00001810    0.00084088    0.00011456
     atom   36 type  1   force =     0.00001810   -0.00084088   -0.00011456

     Total force =     0.003771     Total SCF correction =     0.000050


     Computing stress (Cartesian axis) and pressure

          total   stress  (Ry/bohr**3)                   (kbar)     P=      -17.02
  -0.00011925   0.00000000   0.00000000          -17.54        0.00        0.00
  -0.00000000  -0.00011925  -0.00000000           -0.00      -17.54       -0.00
   0.00000000  -0.00000000  -0.00010866            0.00       -0.00      -15.98

     Energy error            =      2.6E-05 Ry
     Gradient error          =      8.4E-04 Ry/Bohr

     bfgs converged in  27 scf cycles and  26 bfgs steps
     (criteria: energy <  1.0E-04 Ry, force <  1.0E-03 Ry/Bohr)

     End of BFGS Geometry Optimization

     Final energy             =    -418.0522414774 Ry

     File ./iceII/iceII.bfgs deleted, as requested
Begin final coordinates

ATOMIC_POSITIONS (crystal)
O                0.2686498635        0.0241459378        0.8528068546
O                0.7313501365        0.9758540732        0.1471931154
O                0.8528068546        0.2686498635        0.0241459378
O                0.1471931154        0.7313501365        0.9758540732
O                0.0241459378        0.8528068546        0.2686498635
O                0.9758540732        0.1471931154        0.7313501365
O                0.4783951346        0.7509947736        0.3313811320
O                0.5216048654        0.2490052264        0.6686188380
O                0.3313811320        0.4783951346        0.7509947736
O                0.6686188380        0.5216048654        0.2490052264
O                0.7509947736        0.3313811320        0.4783951346
O                0.2490052264        0.6686188380        0.5216048654
H                0.1468211371        0.0367428081        0.7922696909
H                0.8531788489        0.9632571839        0.2077303091
H                0.7922696909        0.1468211371        0.0367428081
H                0.2077303091        0.8531788489        0.9632571839
H                0.0367428081        0.7922696909        0.1468211371
H                0.9632571839        0.2077303091        0.8531788489
H                0.4148548731        0.1880026672        0.9775528372
H                0.5851451269        0.8119973478        0.0224471418
H                0.9775528372        0.4148548731        0.1880026672
H                0.0224471418        0.5851451269        0.8119973478
H                0.1880026672        0.9775528372        0.4148548731
H                0.8119973478        0.0224471418        0.5851451269
H                0.7307534108        0.4046121104        0.4089021514
H                0.2692465892        0.5953878596        0.5910978786
H                0.4089021514        0.7307534108        0.4046121104
H                0.5910978786        0.2692465892        0.5953878596
H                0.4046121104        0.4089021514        0.7307534108
H                0.5953878596        0.5910978786        0.2692465892
H                0.7461960258        0.2095743839        0.3769337348
H                0.2538039742        0.7904256011        0.6230662652
H                0.3769337348        0.7461960258        0.2095743839
H                0.6230662652        0.2538039742        0.7904256011
H                0.2095743839        0.3769337348        0.7461960258
H                0.7904256011        0.6230662652        0.2538039742
End final coordinates



     Writing all to output data dir ./iceII/iceII.save/ :
     XML data file, charge density, pseudopotentials, collected wavefunctions

     init_run     :      2.92s CPU      3.06s WALL (       1 calls)
     electrons    :    225.09s CPU    234.34s WALL (      27 calls)
     update_pot   :      4.78s CPU      5.58s WALL (      26 calls)
     forces       :      4.22s CPU      4.25s WALL (      27 calls)
     stress       :     33.31s CPU     34.04s WALL (      27 calls)

     Called by init_run:
     wfcinit      :      0.38s CPU      0.39s WALL (       1 calls)
     potinit      :      1.67s CPU      1.77s WALL (       1 calls)
     hinit0       :      0.68s CPU      0.69s WALL (       1 calls)

     Called by electrons:
     c_bands      :    165.46s CPU    167.33s WALL (     196 calls)
     sum_band     :     23.22s CPU     23.40s WALL (     196 calls)
     v_of_rho     :     39.85s CPU     46.51s WALL (     216 calls)
     newd         :      1.48s CPU      1.50s WALL (     216 calls)
     mix_rho      :      0.69s CPU      0.70s WALL (     196 calls)
     vdW_kernel   :      1.51s CPU      1.52s WALL (       1 calls)

     Called by c_bands:
     init_us_2    :      3.17s CPU      3.27s WALL (    1788 calls)
     cegterg      :    159.56s CPU    160.98s WALL (     784 calls)

     Called by *egterg:
     cdiaghg      :     11.32s CPU     11.35s WALL (    2930 calls)
     h_psi        :    119.04s CPU    120.10s WALL (    3066 calls)
     s_psi        :      5.58s CPU      5.72s WALL (    3066 calls)
     g_psi        :      0.36s CPU      0.36s WALL (    2278 calls)

     Called by h_psi:
     h_psi:calbec :      9.09s CPU      9.12s WALL (    3066 calls)
     vloc_psi     :    103.52s CPU    104.48s WALL (    3066 calls)
     add_vuspsi   :      5.48s CPU      5.49s WALL (    3066 calls)

     General routines
     calbec       :     13.27s CPU     13.33s WALL (    4390 calls)
     fft          :     21.49s CPU     24.90s WALL (   14613 calls)
     ffts         :      0.24s CPU      0.25s WALL (     196 calls)
     fftw         :    108.01s CPU    108.94s WALL (  274320 calls)

     Parallel routines

     PWSCF        :   4m32.28s CPU   4m44.17s WALL


   This run was terminated on:  15:56:44   1Apr2026            

=------------------------------------------------------------------------------=
   JOB DONE.
=------------------------------------------------------------------------------=
