
     Program PWSCF v.7.3.1 starts on 26Mar2026 at 16: 1:45 

     This program is part of the open-source Quantum ESPRESSO suite
     for quantum simulation of materials; please cite
         "P. Giannozzi et al., J. Phys.:Condens. Matter 21 395502 (2009);
         "P. Giannozzi et al., J. Phys.:Condens. Matter 29 465901 (2017);
         "P. Giannozzi et al., J. Chem. Phys. 152 154105 (2020);
          URL http://www.quantum-espresso.org", 
     in publications or presentations arising from this work. More details at
     http://www.quantum-espresso.org/quote

     Parallel version (MPI), running on   128 processors

     MPI processes distributed on     1 nodes
     242744 MiB available memory on the printing compute node when the environment starts

     Waiting for input...
     Reading input from standard input

     Current dimensions of program PWSCF are:
     Max number of different atomic species (ntypx) = 10
     Max number of k-points (npk) =  40000
     Max angular momentum in pseudopotentials (lmaxx) =  4

     IMPORTANT: XC functional enforced from input :
     Exchange-correlation= VDW-DF2
                           (   1   4  13   0   2   0   0)
     Any further DFT definition will be discarded
     Please, verify this is what you really want


     K-points division:     npool     =       4
     R & G space division:  proc/nbgrp/npool/nimage =      32
     Subspace diagonalization in iterative solution of the eigenvalue problem:
     a serial algorithm will be used


     Parallelization info
     --------------------
     sticks:   dense  smooth     PW     G-vecs:    dense   smooth      PW
     Min         196     196     57                 8618     8618    1356
     Max         197     197     58                 8622     8622    1360
     Sum        6303    6303   1837               275875   275875   43447

     Using Slab Decomposition



     bravais-lattice index     =            5
     lattice parameter (alat)  =      15.4666  a.u.
     unit-cell volume          =    2390.4239 (a.u.)^3
     number of atoms/cell      =           36
     number of atomic types    =            2
     number of electrons       =        96.00
     number of Kohn-Sham states=           48
     kinetic-energy cutoff     =      90.0000  Ry
     charge density cutoff     =     360.0000  Ry
     scf convergence threshold =      1.0E-07
     mixing beta               =       0.7000
     number of iterations used =            8  plain     mixing
     Exchange-correlation= VDW-DF2
                           (   1   4  13   0   2   0   0)

     celldm(1)=  15.466576  celldm(2)=   0.000000  celldm(3)=   0.000000
     celldm(4)=  -0.392337  celldm(5)=   0.000000  celldm(6)=   0.000000

     crystal axes: (cart. coord. in units of alat)
               a(1) = (   0.834367  -0.481722   0.267909 )  
               a(2) = (   0.000000   0.963444   0.267909 )  
               a(3) = (  -0.834367  -0.481722   0.267909 )  

     reciprocal axes: (cart. coord. in units 2 pi/alat)
               b(1) = (  0.599257 -0.345981  1.244203 )  
               b(2) = (  0.000000  0.691962  1.244203 )  
               b(3) = ( -0.599257 -0.345981  1.244203 )  


     PseudoPot. # 1 for H  read from file:
     ./H.pbe-van_ak.UPF
     MD5 check sum: 077eb6d537518a38cb46c6de387227b7
     Pseudo is Ultrasoft, Zval =  1.0
     Generated by new atomic code, or converted to UPF format
     Using radial grid of  615 points,  1 beta functions with: 
                l(1) =   0
     Q(r) pseudized with  8 coefficients,  rinner =    0.800

     PseudoPot. # 2 for O  read from file:
     ./O.pbe-van_ak.UPF
     MD5 check sum: 78c19812648e8988a0fe644b0f25305e
     Pseudo is Ultrasoft, Zval =  6.0
     Generated by new atomic code, or converted to UPF format
     Using radial grid of  737 points,  4 beta functions with: 
                l(1) =   0
                l(2) =   0
                l(3) =   1
                l(4) =   1
     Q(r) pseudized with  8 coefficients,  rinner =    0.800   0.800   0.800


     atomic species   valence    mass     pseudopotential
     H                 1.00     1.00800     H ( 1.00)
     O                 6.00    16.00000     O ( 1.00)

      6 Sym. Ops., with inversion, found



   Cartesian axes

     site n.     atom                  positions (alat units)
         1        O      tau(   1) = (  -0.4881587  -0.5153728   0.3102004  )
         2        O      tau(   2) = (   0.4881587   0.5153729   0.4935268  )
         3        O      tau(   3) = (   0.6904053  -0.1650714   0.3102004  )
         4        O      tau(   4) = (  -0.6904053   0.1650714   0.4935268  )
         5        O      tau(   5) = (  -0.2022466   0.6804442   0.3102004  )
         6        O      tau(   6) = (   0.2022466  -0.6804442   0.4935268  )
         7        O      tau(   7) = (   0.1208629   0.3351200   0.4137471  )
         8        O      tau(   8) = (  -0.1208629  -0.3351200   0.3899800  )
         9        O      tau(   9) = (  -0.3506539  -0.0628897   0.4137471  )
        10        O      tau(  10) = (   0.3506539   0.0628897   0.3899800  )
        11        O      tau(  11) = (   0.2297910  -0.2722304   0.4137471  )
        12        O      tau(  12) = (  -0.2297910   0.2722304   0.3899800  )
        13        H      tau(  13) = (  -0.5430428  -0.4102686   0.2622098  )
        14        H      tau(  14) = (   0.5430428   0.4102686   0.5415173  )
        15        H      tau(  15) = (   0.6268245  -0.2651546   0.2622098  )
        16        H      tau(  16) = (  -0.6268245   0.2651546   0.5415173  )
        17        H      tau(  17) = (  -0.0837816   0.6754232   0.2622098  )
        18        H      tau(  18) = (   0.0837817  -0.6754232   0.5415173  )
        19        H      tau(  19) = (  -0.4681736  -0.4859583   0.4327384  )
        20        H      tau(  20) = (   0.4681736   0.4859583   0.3709887  )
        21        H      tau(  21) = (   0.6549390  -0.1624711   0.4327384  )
        22        H      tau(  22) = (  -0.6549390   0.1624711   0.3709887  )
        23        H      tau(  23) = (  -0.1867654   0.6484294   0.4327384  )
        24        H      tau(  24) = (   0.1867654  -0.6484294   0.3709887  )
        25        H      tau(  25) = (   0.2718867  -0.1516220   0.4118766  )
        26        H      tau(  26) = (  -0.2718867   0.1516219   0.3918506  )
        27        H      tau(  27) = (  -0.0046349   0.3112717   0.4118766  )
        28        H      tau(  28) = (   0.0046349  -0.3112717   0.3918506  )
        29        H      tau(  29) = (  -0.2672518  -0.1596498   0.4118766  )
        30        H      tau(  30) = (   0.2672518   0.1596498   0.3918506  )
        31        H      tau(  31) = (   0.3136186  -0.3416266   0.3473301  )
        32        H      tau(  32) = (  -0.3136186   0.3416266   0.4563970  )
        33        H      tau(  33) = (   0.1390481   0.4424150   0.3473301  )
        34        H      tau(  34) = (  -0.1390480  -0.4424150   0.4563970  )
        35        H      tau(  35) = (  -0.4526667  -0.1007884   0.3473301  )
        36        H      tau(  36) = (   0.4526666   0.1007884   0.4563970  )

     number of k points=    14
                       cart. coord. in units 2pi/alat
        k(    1) = (   0.0000000   0.0000000   0.0000000), wk =   0.0312500
        k(    2) = (  -0.1498141  -0.0864952   0.3110508), wk =   0.1875000
        k(    3) = (   0.2996283   0.1729905  -0.6221017), wk =   0.0937500
        k(    4) = (  -0.1498141   0.0864952   0.6221017), wk =   0.1875000
        k(    5) = (   0.2996283   0.3459809  -0.3110508), wk =   0.1875000
        k(    6) = (   0.1498141   0.2594857   0.0000000), wk =   0.1875000
        k(    7) = (   0.2996283  -0.1729905  -1.2442034), wk =   0.0937500
        k(    8) = (   0.0000000   0.0000000   0.9331525), wk =   0.0625000
        k(    9) = (   0.4494424   0.2594857   0.0000000), wk =   0.1875000
        k(   10) = (   0.2996283   0.1729905   0.3110508), wk =   0.1875000
        k(   11) = (   0.4494424  -0.2594857  -0.9331525), wk =   0.1875000
        k(   12) = (   0.2996283  -0.3459809  -0.6221017), wk =   0.1875000
        k(   13) = (   0.0000000   0.0000000  -1.8663050), wk =   0.0312500
        k(   14) = (   0.2996283  -0.3459809   0.3110508), wk =   0.1875000

     Dense  grid:   275875 G-vectors     FFT dimensions: (  96,  96,  96)

     Estimated max dynamical RAM per process >      17.78 MB

     Estimated total dynamical RAM >       2.02 GB

     Initial potential from superposition of free atoms

     starting charge      95.9998, renormalised to      96.0000


     %%%%%%%%%%%%%%%%%%%%%%%%%%%%%%%%%%%%%%%%%%%%%%%%%%%%%%%%%%%%%%%%%%%%%%%%
     %                                                                      %
     % You are using vdW-DF, which was implemented by the Thonhauser group. %
     % Please cite the following two papers that made this development      %
     % possible and the two reviews that describe the various versions:     %
     %                                                                      %
     %   T. Thonhauser et al., PRL 115, 136402 (2015).                      %
     %   T. Thonhauser et al., PRB 76, 125112 (2007).                       %
     %   K. Berland et al., Rep. Prog. Phys. 78, 066501 (2015).             %
     %   D.C. Langreth et al., J. Phys.: Condens. Matter 21, 084203 (2009). %
     %                                                                      %
     % If you are calculating stress with vdW-DF, please also cite:         %
     %                                                                      %
     %   R. Sabatini et al., J. Phys.: Condens. Matter 24, 424209 (2012).   %
     %                                                                      %
     %%%%%%%%%%%%%%%%%%%%%%%%%%%%%%%%%%%%%%%%%%%%%%%%%%%%%%%%%%%%%%%%%%%%%%%%

     %%%%%%%%%%%%%%%%%%%%%%%%%%%%%%%%%%%%%%%%%%%%%%%%%%%%%%%%%%%%%%%%%%%%%%%%
     %                                                                      %
     %  vdW-DF NEWS:                                                        %
     %                                                                      %
     %  * vdW-DF3 is now available. DOI: 10.1021/acs.jctc.0c00471           %
     %    use with input_dft = 'vdW-DF3-opt1' or 'vdW-DF3-opt2'             %
     %                                                                      %
     %  * Unscreened and range-separated hybrid vdW-DF-cx functionals       %
     %    DOI: 10.1063/1.4986522 and 10.1088/1361-648X/ac2ad2               %
     %    use with input_dft = 'vdW-DF-cx0'    and 'vdW-DF-ahcx'            %
     %  * Unscreened and range-separated hybrid vdW-DF2-b86r functionals    %
     %    DOI: 10.1063/1.4986522 and DOI: 10.1103/PhysRevX.12.041003        %
     %    use with input_dft = 'vdW-DF2-br0' and 'vdW-DF2-ahbr'             %
     %                                                                      %
     %%%%%%%%%%%%%%%%%%%%%%%%%%%%%%%%%%%%%%%%%%%%%%%%%%%%%%%%%%%%%%%%%%%%%%%%


     Starting wfcs are   72 randomized atomic wfcs

     total cpu time spent up to now is        3.3 secs

     per-process dynamical memory:    21.4 Mb

     Self-consistent Calculation

     iteration #  1     ecut=    90.00 Ry     beta= 0.70
     Davidson diagonalization with overlap
     ethr =  1.00E-02,  avg # of iterations =  2.0

     total cpu time spent up to now is        4.4 secs

     total energy              =    -415.85722742 Ry
     estimated scf accuracy    <       4.52189191 Ry

     iteration #  2     ecut=    90.00 Ry     beta= 0.70
     Davidson diagonalization with overlap
     ethr =  4.71E-03,  avg # of iterations =  3.0

     total cpu time spent up to now is        5.7 secs

     total energy              =    -417.29787549 Ry
     estimated scf accuracy    <       3.96033516 Ry

     iteration #  3     ecut=    90.00 Ry     beta= 0.70
     Davidson diagonalization with overlap
     ethr =  4.13E-03,  avg # of iterations =  2.0

     total cpu time spent up to now is        6.8 secs

     total energy              =    -417.80117468 Ry
     estimated scf accuracy    <       0.19196626 Ry

     iteration #  4     ecut=    90.00 Ry     beta= 0.70
     Davidson diagonalization with overlap
     ethr =  2.00E-04,  avg # of iterations =  4.0

     total cpu time spent up to now is        8.3 secs

     total energy              =    -417.94756929 Ry
     estimated scf accuracy    <       0.21345975 Ry

     iteration #  5     ecut=    90.00 Ry     beta= 0.70
     Davidson diagonalization with overlap
     ethr =  2.00E-04,  avg # of iterations =  1.7

     negative rho (up, down):  1.565E-07 0.000E+00

     total cpu time spent up to now is        9.2 secs

     total energy              =    -417.94931849 Ry
     estimated scf accuracy    <       0.03524631 Ry

     iteration #  6     ecut=    90.00 Ry     beta= 0.70
     Davidson diagonalization with overlap
     ethr =  3.67E-05,  avg # of iterations =  2.0

     negative rho (up, down):  2.197E-07 0.000E+00

     total cpu time spent up to now is       10.3 secs

     total energy              =    -417.95639807 Ry
     estimated scf accuracy    <       0.00155901 Ry

     iteration #  7     ecut=    90.00 Ry     beta= 0.70
     Davidson diagonalization with overlap
     ethr =  1.62E-06,  avg # of iterations =  3.4

     negative rho (up, down):  2.227E-07 0.000E+00

     total cpu time spent up to now is       11.4 secs

     total energy              =    -417.95729289 Ry
     estimated scf accuracy    <       0.00036561 Ry

     iteration #  8     ecut=    90.00 Ry     beta= 0.70
     Davidson diagonalization with overlap
     ethr =  3.81E-07,  avg # of iterations =  1.8

     negative rho (up, down):  1.683E-07 0.000E+00

     total cpu time spent up to now is       12.4 secs

     total energy              =    -417.95722996 Ry
     estimated scf accuracy    <       0.00051697 Ry

     iteration #  9     ecut=    90.00 Ry     beta= 0.70
     Davidson diagonalization with overlap
     ethr =  3.81E-07,  avg # of iterations =  1.0

     negative rho (up, down):  1.339E-07 0.000E+00

     total cpu time spent up to now is       13.2 secs

     total energy              =    -417.95708752 Ry
     estimated scf accuracy    <       0.00029404 Ry

     iteration # 10     ecut=    90.00 Ry     beta= 0.70
     Davidson diagonalization with overlap
     ethr =  3.06E-07,  avg # of iterations =  2.0

     negative rho (up, down):  1.353E-07 0.000E+00

     total cpu time spent up to now is       14.3 secs

     total energy              =    -417.95715416 Ry
     estimated scf accuracy    <       0.00000397 Ry

     iteration # 11     ecut=    90.00 Ry     beta= 0.70
     Davidson diagonalization with overlap
     ethr =  4.14E-09,  avg # of iterations =  4.0

     negative rho (up, down):  1.340E-07 0.000E+00

     total cpu time spent up to now is       15.9 secs

     total energy              =    -417.95716061 Ry
     estimated scf accuracy    <       0.00001075 Ry

     iteration # 12     ecut=    90.00 Ry     beta= 0.70
     Davidson diagonalization with overlap
     ethr =  4.14E-09,  avg # of iterations =  2.0

     negative rho (up, down):  1.511E-07 0.000E+00

     total cpu time spent up to now is       16.8 secs

     total energy              =    -417.95716430 Ry
     estimated scf accuracy    <       0.00001562 Ry

     iteration # 13     ecut=    90.00 Ry     beta= 0.70
     Davidson diagonalization with overlap
     ethr =  4.14E-09,  avg # of iterations =  3.0

     negative rho (up, down):  1.552E-07 0.000E+00

     total cpu time spent up to now is       18.0 secs

     total energy              =    -417.95716134 Ry
     estimated scf accuracy    <       0.00002991 Ry

     iteration # 14     ecut=    90.00 Ry     beta= 0.70
     Davidson diagonalization with overlap
     ethr =  4.14E-09,  avg # of iterations =  1.0

     negative rho (up, down):  1.593E-07 0.000E+00

     total cpu time spent up to now is       18.8 secs

     total energy              =    -417.95715619 Ry
     estimated scf accuracy    <       0.00001923 Ry

     iteration # 15     ecut=    90.00 Ry     beta= 0.70
     Davidson diagonalization with overlap
     ethr =  4.14E-09,  avg # of iterations =  2.0

     negative rho (up, down):  1.604E-07 0.000E+00

     total cpu time spent up to now is       20.0 secs

     total energy              =    -417.95715725 Ry
     estimated scf accuracy    <       0.00000400 Ry

     iteration # 16     ecut=    90.00 Ry     beta= 0.70
     Davidson diagonalization with overlap
     ethr =  4.14E-09,  avg # of iterations =  1.0

     negative rho (up, down):  1.623E-07 0.000E+00

     total cpu time spent up to now is       20.8 secs

     total energy              =    -417.95715650 Ry
     estimated scf accuracy    <       0.00000252 Ry

     iteration # 17     ecut=    90.00 Ry     beta= 0.70
     Davidson diagonalization with overlap
     ethr =  2.62E-09,  avg # of iterations =  2.0

     negative rho (up, down):  1.641E-07 0.000E+00

     total cpu time spent up to now is       21.9 secs

     total energy              =    -417.95715664 Ry
     estimated scf accuracy    <       0.00000021 Ry

     iteration # 18     ecut=    90.00 Ry     beta= 0.70
     Davidson diagonalization with overlap
     ethr =  2.24E-10,  avg # of iterations =  4.0

     negative rho (up, down):  1.650E-07 0.000E+00

     total cpu time spent up to now is       23.4 secs

     total energy              =    -417.95715723 Ry
     estimated scf accuracy    <       0.00000042 Ry

     iteration # 19     ecut=    90.00 Ry     beta= 0.70
     Davidson diagonalization with overlap
     ethr =  2.24E-10,  avg # of iterations =  3.0

     negative rho (up, down):  1.629E-07 0.000E+00

     total cpu time spent up to now is       24.6 secs

     total energy              =    -417.95715654 Ry
     estimated scf accuracy    <       0.00000196 Ry

     iteration # 20     ecut=    90.00 Ry     beta= 0.70
     Davidson diagonalization with overlap
     ethr =  2.24E-10,  avg # of iterations =  4.0

     negative rho (up, down):  1.614E-07 0.000E+00

     total cpu time spent up to now is       26.1 secs

     End of self-consistent calculation

          k = 0.0000 0.0000 0.0000 ( 34507 PWs)   bands (ev):

   -21.2551 -20.9181 -20.9181 -20.7668 -20.7668 -20.7379 -20.7329 -20.7321
   -20.7321 -20.5193 -20.5193 -20.2929  -8.9770  -8.9077  -8.9077  -8.8966
    -8.8311  -8.8311  -8.5899  -8.5899  -8.5808  -8.5419  -8.5419  -8.5367
    -7.3202  -6.4194  -6.4194  -5.9147  -5.9147  -5.7680  -5.7680  -5.6344
    -5.5167  -4.9355  -4.9355  -4.2809  -3.7733  -3.7733  -3.7504  -3.6424
    -3.6424  -3.6133  -3.5242  -3.5242  -3.4923  -3.4425  -3.3956  -3.3956

          k =-0.1498-0.0865 0.3111 ( 34459 PWs)   bands (ev):

   -21.2014 -20.9490 -20.9118 -20.8667 -20.8387 -20.7899 -20.6998 -20.6662
   -20.6225 -20.5223 -20.4925 -20.3347  -8.9488  -8.9225  -8.9061  -8.8791
    -8.8267  -8.8008  -8.6329  -8.6128  -8.6046  -8.5361  -8.4918  -8.4835
    -7.1813  -6.5652  -6.4503  -6.1829  -5.9857  -5.7781  -5.6280  -5.5176
    -5.3680  -4.9294  -4.8776  -4.4193  -3.8357  -3.7814  -3.7610  -3.6926
    -3.6802  -3.6410  -3.5580  -3.5184  -3.4666  -3.4562  -3.4082  -3.3874

          k = 0.2996 0.1730-0.6221 ( 34492 PWs)   bands (ev):

   -21.0639 -21.0616 -20.9328 -20.9252 -20.8375 -20.8371 -20.6595 -20.6589
   -20.5305 -20.5201 -20.4365 -20.4361  -8.9295  -8.9169  -8.8852  -8.8806
    -8.8282  -8.7819  -8.6506  -8.6328  -8.6179  -8.5246  -8.4586  -8.4496
    -6.8892  -6.8095  -6.4489  -6.4394  -5.9675  -5.9164  -5.5209  -5.4444
    -5.0574  -4.9856  -4.8433  -4.6342  -3.8957  -3.7975  -3.7500  -3.7390
    -3.6929  -3.6736  -3.5964  -3.5224  -3.5029  -3.4372  -3.3949  -3.3782

          k =-0.1498 0.0865 0.6221 ( 34467 PWs)   bands (ev):

   -21.0946 -20.9920 -20.9835 -20.8964 -20.8761 -20.8280 -20.6660 -20.6078
   -20.5759 -20.4906 -20.4781 -20.4105  -8.9301  -8.9130  -8.8905  -8.8843
    -8.8234  -8.7755  -8.6487  -8.6402  -8.6265  -8.5017  -8.4722  -8.4502
    -6.9327  -6.6807  -6.6418  -6.2516  -6.0842  -5.9234  -5.5170  -5.3115
    -5.2076  -4.9102  -4.8562  -4.6436  -3.8821  -3.8213  -3.7466  -3.7237
    -3.6930  -3.6709  -3.6061  -3.5223  -3.4920  -3.4359  -3.4147  -3.3672

          k = 0.2996 0.3460-0.3111 ( 34442 PWs)   bands (ev):

   -21.1289 -21.0120 -20.9463 -20.9121 -20.8637 -20.8101 -20.6674 -20.5897
   -20.5764 -20.5192 -20.4728 -20.3967  -8.9342  -8.9306  -8.8973  -8.8682
    -8.8196  -8.7953  -8.6829  -8.6526  -8.6273  -8.5172  -8.4856  -8.4604
    -6.9425  -6.6657  -6.5045  -6.2903  -6.2383  -5.7884  -5.4448  -5.3570
    -5.2082  -4.9585  -4.8551  -4.6036  -3.8388  -3.7968  -3.7553  -3.7161
    -3.6758  -3.6276  -3.5737  -3.5523  -3.4730  -3.4706  -3.4054  -3.3369

          k = 0.1498 0.2595 0.0000 ( 34481 PWs)   bands (ev):

   -21.2152 -20.9692 -20.9294 -20.8497 -20.8259 -20.7688 -20.7034 -20.6526
   -20.6214 -20.5248 -20.5033 -20.3275  -8.9637  -8.9200  -8.9104  -8.8787
    -8.8258  -8.8199  -8.6517  -8.6307  -8.5943  -8.5485  -8.5285  -8.4890
    -7.1722  -6.4713  -6.3916  -6.2117  -6.1816  -5.6935  -5.5451  -5.4331
    -5.4058  -4.9686  -4.9250  -4.3831  -3.7768  -3.7661  -3.7611  -3.6801
    -3.6459  -3.6267  -3.5529  -3.5380  -3.4812  -3.4586  -3.3776  -3.3617

          k = 0.2996-0.1730-1.2442 ( 34466 PWs)   bands (ev):

   -21.1210 -21.0889 -20.9361 -20.8905 -20.8209 -20.7924 -20.6546 -20.6487
   -20.5544 -20.5488 -20.4204 -20.4143  -8.9450  -8.9296  -8.9052  -8.8704
    -8.8153  -8.8135  -8.7033  -8.6643  -8.6121  -8.5291  -8.5210  -8.4799
    -6.8159  -6.7863  -6.4708  -6.3514  -6.1246  -5.8098  -5.3785  -5.3674
    -5.1980  -5.0744  -4.7577  -4.6178  -3.7868  -3.7664  -3.7532  -3.7071
    -3.6501  -3.6256  -3.5803  -3.5292  -3.5212  -3.4486  -3.3510  -3.3468

          k = 0.0000 0.0000 0.9332 ( 34486 PWs)   bands (ev):

   -21.0491 -21.0491 -20.9855 -20.9711 -20.8334 -20.8334 -20.6099 -20.6099
   -20.5111 -20.4986 -20.4721 -20.4721  -8.9295  -8.9295  -8.9048  -8.8354
    -8.8354  -8.8169  -8.7118  -8.6501  -8.6501  -8.4730  -8.4730  -8.4548
    -6.7309  -6.7309  -6.6882  -6.3743  -6.0541  -6.0541  -5.2351  -5.2351
    -5.1616  -4.9098  -4.9098  -4.8036  -3.8037  -3.8037  -3.7298  -3.7138
    -3.6505  -3.6505  -3.6194  -3.5208  -3.5208  -3.4403  -3.4403  -3.3177

          k = 0.4494 0.2595 0.0000 ( 34452 PWs)   bands (ev):

   -21.1415 -21.0183 -21.0102 -20.8920 -20.7875 -20.7754 -20.6827 -20.6662
   -20.5493 -20.4991 -20.4783 -20.3902  -8.9440  -8.9231  -8.9155  -8.8615
    -8.8388  -8.7896  -8.7132  -8.6552  -8.6252  -8.5250  -8.5142  -8.4830
    -6.9169  -6.5609  -6.5280  -6.4493  -6.0895  -5.8010  -5.4554  -5.3796
    -5.1229  -4.9846  -4.8850  -4.5794  -3.7769  -3.7700  -3.7579  -3.7003
    -3.6683  -3.6305  -3.5656  -3.5439  -3.5088  -3.4291  -3.3813  -3.3340

          k = 0.2996 0.1730 0.3111 ( 34449 PWs)   bands (ev):

   -21.1640 -20.9787 -20.9239 -20.9044 -20.8520 -20.7997 -20.6791 -20.6398
   -20.6051 -20.5081 -20.4774 -20.3630  -8.9410  -8.9273  -8.8987  -8.8620
    -8.8318  -8.7776  -8.6650  -8.6222  -8.5992  -8.5666  -8.5151  -8.4719
    -7.0453  -6.5422  -6.5121  -6.2507  -6.1604  -5.7818  -5.5384  -5.3955
    -5.3315  -4.9164  -4.8684  -4.4852  -3.8558  -3.7926  -3.7700  -3.7266
    -3.6985  -3.6097  -3.5857  -3.5239  -3.4520  -3.4512  -3.3946  -3.3705

          k = 0.4494-0.2595-0.9332 ( 34469 PWs)   bands (ev):

   -21.0688 -21.0631 -20.9636 -20.9359 -20.8429 -20.7763 -20.7069 -20.6318
   -20.5417 -20.4926 -20.4625 -20.4087  -8.9344  -8.9160  -8.9068  -8.8478
    -8.8178  -8.7644  -8.6862  -8.6497  -8.6177  -8.5716  -8.5130  -8.4842
    -6.7782  -6.6860  -6.5564  -6.3674  -6.1774  -5.8046  -5.5879  -5.3281
    -5.1129  -4.9153  -4.8817  -4.5838  -3.8646  -3.8106  -3.7876  -3.7399
    -3.7170  -3.6244  -3.5488  -3.5323  -3.4689  -3.4368  -3.3774  -3.3597

          k = 0.2996-0.3460-0.6221 ( 34470 PWs)   bands (ev):

   -21.0385 -21.0339 -20.9583 -20.9521 -20.8538 -20.8535 -20.6459 -20.6443
   -20.5274 -20.5226 -20.4380 -20.4310  -8.9346  -8.8899  -8.8802  -8.8645
    -8.8509  -8.7399  -8.6768  -8.6338  -8.6125  -8.5530  -8.4832  -8.4736
    -6.7774  -6.7501  -6.5004  -6.4565  -6.0382  -6.0096  -5.4405  -5.3870
    -5.0697  -5.0372  -4.8093  -4.6093  -3.9163  -3.8114  -3.7847  -3.7796
    -3.7403  -3.6263  -3.5468  -3.5355  -3.4924  -3.4180  -3.4059  -3.3633

          k = 0.0000 0.0000-1.8663 ( 34494 PWs)   bands (ev):

   -21.0129 -21.0006 -20.9331 -20.9331 -20.9305 -20.9305 -20.5818 -20.5818
   -20.5713 -20.5713 -20.4324 -20.4198  -8.9351  -8.8665  -8.8665  -8.8574
    -8.8574  -8.7229  -8.6754  -8.6396  -8.5980  -8.5980  -8.5055  -8.5055
    -6.7673  -6.6397  -6.3403  -6.3403  -6.2748  -6.2748  -5.2231  -5.2231
    -5.1917  -5.1917  -4.7624  -4.5843  -3.9272  -3.8139  -3.8139  -3.8072
    -3.8072  -3.5792  -3.5521  -3.4773  -3.4773  -3.4333  -3.4333  -3.3404

          k = 0.2996-0.3460 0.3111 ( 34442 PWs)   bands (ev):

   -21.1290 -21.0109 -20.9496 -20.9105 -20.8628 -20.8100 -20.6664 -20.5929
   -20.5777 -20.5155 -20.4725 -20.3974  -8.9403  -8.9180  -8.9054  -8.8583
    -8.8276  -8.7958  -8.6915  -8.6487  -8.6231  -8.5146  -8.4793  -8.4686
    -6.9440  -6.6451  -6.5515  -6.2740  -6.1898  -5.8393  -5.5262  -5.2518
    -5.1376  -5.0172  -4.8984  -4.5816  -3.8461  -3.7878  -3.7495  -3.7095
    -3.6843  -3.6276  -3.5812  -3.5627  -3.4801  -3.4469  -3.4058  -3.3413

     highest occupied level (ev):    -3.3177

!    total energy              =    -417.95715670 Ry
     estimated scf accuracy    <       0.00000010 Ry

     The total energy is the sum of the following terms:
     one-electron contribution =    -311.66703105 Ry
     hartree contribution      =     188.49792142 Ry
     xc contribution           =    -104.62410017 Ry
     ewald contribution        =    -190.16394689 Ry

     convergence has been achieved in  20 iterations

     Forces acting on atoms (cartesian axes, Ry/au):

     atom    1 type  2   force =    -0.01766270    0.06442248    0.03675634
     atom    2 type  2   force =     0.01766270   -0.06442248   -0.03675634
     atom    3 type  2   force =    -0.04696015   -0.04750758    0.03675634
     atom    4 type  2   force =     0.04696015    0.04750758   -0.03675634
     atom    5 type  2   force =     0.06462285   -0.01691489    0.03675634
     atom    6 type  2   force =    -0.06462285    0.01691489   -0.03675634
     atom    7 type  2   force =    -0.04998109    0.03844679   -0.03051095
     atom    8 type  2   force =     0.04998109   -0.03844679    0.03051095
     atom    9 type  2   force =    -0.00830535   -0.06250829   -0.03051095
     atom   10 type  2   force =     0.00830535    0.06250829    0.03051095
     atom   11 type  2   force =     0.05828644    0.02406150   -0.03051095
     atom   12 type  2   force =    -0.05828644   -0.02406150    0.03051095
     atom   13 type  1   force =     0.02931383   -0.05283181    0.02897573
     atom   14 type  1   force =    -0.02931383    0.05283181   -0.02897573
     atom   15 type  1   force =     0.03109677    0.05180243    0.02897573
     atom   16 type  1   force =    -0.03109677   -0.05180243   -0.02897573
     atom   17 type  1   force =    -0.06041060    0.00102938    0.02897573
     atom   18 type  1   force =     0.06041060   -0.00102938   -0.02897573
     atom   19 type  1   force =    -0.01291139   -0.01185305   -0.06559914
     atom   20 type  1   force =     0.01291139    0.01185305    0.06559914
     atom   21 type  1   force =     0.01672074   -0.00525507   -0.06559914
     atom   22 type  1   force =    -0.01672074    0.00525507    0.06559914
     atom   23 type  1   force =    -0.00380935    0.01710812   -0.06559914
     atom   24 type  1   force =     0.00380935   -0.01710812    0.06559914
     atom   25 type  1   force =    -0.01808838   -0.06539733   -0.00173824
     atom   26 type  1   force =     0.01808838    0.06539733    0.00173824
     atom   27 type  1   force =     0.06567994    0.01703367   -0.00173824
     atom   28 type  1   force =    -0.06567994   -0.01703367    0.00173824
     atom   29 type  1   force =    -0.04759156    0.04836366   -0.00173824
     atom   30 type  1   force =     0.04759156   -0.04836366    0.00173824
     atom   31 type  1   force =    -0.04261779    0.04142371    0.03575271
     atom   32 type  1   force =     0.04261779   -0.04142371   -0.03575271
     atom   33 type  1   force =    -0.01456509   -0.05761995    0.03575271
     atom   34 type  1   force =     0.01456509    0.05761995   -0.03575271
     atom   35 type  1   force =     0.05718288    0.01619623    0.03575271
     atom   36 type  1   force =    -0.05718288   -0.01619623   -0.03575271

     Total force =     0.418845     Total SCF correction =     0.000224


     Computing stress (Cartesian axis) and pressure

          total   stress  (Ry/bohr**3)                   (kbar)     P=      -90.79
  -0.00062072  -0.00000000  -0.00000000          -91.31       -0.00       -0.00
   0.00000000  -0.00062072  -0.00000000            0.00      -91.31       -0.00
  -0.00000000  -0.00000000  -0.00061002           -0.00       -0.00      -89.74


     Writing all to output data dir ./iceII/iceII.save/ :
     XML data file, charge density, pseudopotentials, collected wavefunctions

     init_run     :      2.96s CPU      3.05s WALL (       1 calls)
     electrons    :     21.93s CPU     22.86s WALL (       1 calls)
     forces       :      0.15s CPU      0.17s WALL (       1 calls)
     stress       :      1.22s CPU      1.28s WALL (       1 calls)

     Called by init_run:
     wfcinit      :      0.37s CPU      0.38s WALL (       1 calls)
     potinit      :      1.71s CPU      1.77s WALL (       1 calls)
     hinit0       :      0.67s CPU      0.68s WALL (       1 calls)

     Called by electrons:
     c_bands      :     15.59s CPU     15.74s WALL (      20 calls)
     sum_band     :      2.35s CPU      2.39s WALL (      20 calls)
     v_of_rho     :      5.41s CPU      6.15s WALL (      21 calls)
     newd         :      0.10s CPU      0.11s WALL (      21 calls)
     mix_rho      :      0.11s CPU      0.11s WALL (      20 calls)
     vdW_kernel   :      1.51s CPU      1.52s WALL (       1 calls)

     Called by c_bands:
     init_us_2    :      0.30s CPU      0.32s WALL (     172 calls)
     cegterg      :     15.09s CPU     15.20s WALL (      80 calls)

     Called by *egterg:
     cdiaghg      :      1.02s CPU      1.02s WALL (     276 calls)
     h_psi        :     11.64s CPU     11.73s WALL (     280 calls)
     s_psi        :      0.54s CPU      0.55s WALL (     280 calls)
     g_psi        :      0.03s CPU      0.03s WALL (     196 calls)

     Called by h_psi:
     h_psi:calbec :      0.86s CPU      0.86s WALL (     280 calls)
     vloc_psi     :     10.13s CPU     10.22s WALL (     280 calls)
     add_vuspsi   :      0.55s CPU      0.55s WALL (     280 calls)

     General routines
     calbec       :      1.17s CPU      1.18s WALL (     380 calls)
     fft          :      2.70s CPU      3.13s WALL (    1333 calls)
     ffts         :      0.03s CPU      0.03s WALL (      20 calls)
     fftw         :     10.59s CPU     10.68s WALL (   27120 calls)

     Parallel routines

     PWSCF        :     26.56s CPU     28.09s WALL


   This run was terminated on:  16: 2:13  26Mar2026            

=------------------------------------------------------------------------------=
   JOB DONE.
=------------------------------------------------------------------------------=
