
     Program PWSCF v.7.3.1 starts on 26Mar2026 at 16: 2:16 

     This program is part of the open-source Quantum ESPRESSO suite
     for quantum simulation of materials; please cite
         "P. Giannozzi et al., J. Phys.:Condens. Matter 21 395502 (2009);
         "P. Giannozzi et al., J. Phys.:Condens. Matter 29 465901 (2017);
         "P. Giannozzi et al., J. Chem. Phys. 152 154105 (2020);
          URL http://www.quantum-espresso.org", 
     in publications or presentations arising from this work. More details at
     http://www.quantum-espresso.org/quote

     Parallel version (MPI), running on   128 processors

     MPI processes distributed on     1 nodes
     242768 MiB available memory on the printing compute node when the environment starts

     Waiting for input...
     Reading input from standard input

     Current dimensions of program PWSCF are:
     Max number of different atomic species (ntypx) = 10
     Max number of k-points (npk) =  40000
     Max angular momentum in pseudopotentials (lmaxx) =  4

     IMPORTANT: XC functional enforced from input :
     Exchange-correlation= VDW-DF2
                           (   1   4  13   0   2   0   0)
     Any further DFT definition will be discarded
     Please, verify this is what you really want


     K-points division:     npool     =       4
     R & G space division:  proc/nbgrp/npool/nimage =      32
     Subspace diagonalization in iterative solution of the eigenvalue problem:
     a serial algorithm will be used


     Parallelization info
     --------------------
     sticks:   dense  smooth     PW     G-vecs:    dense   smooth      PW
     Min         197     197     57                 8665     8665    1362
     Max         198     198     58                 8667     8667    1365
     Sum        6321    6321   1845               277309   277309   43633

     Using Slab Decomposition



     bravais-lattice index     =            5
     lattice parameter (alat)  =      15.4960  a.u.
     unit-cell volume          =    2404.0834 (a.u.)^3
     number of atoms/cell      =           36
     number of atomic types    =            2
     number of electrons       =        96.00
     number of Kohn-Sham states=           48
     kinetic-energy cutoff     =      90.0000  Ry
     charge density cutoff     =     360.0000  Ry
     scf convergence threshold =      1.0E-07
     mixing beta               =       0.7000
     number of iterations used =            8  plain     mixing
     Exchange-correlation= VDW-DF2
                           (   1   4  13   0   2   0   0)

     celldm(1)=  15.495980  celldm(2)=   0.000000  celldm(3)=   0.000000
     celldm(4)=  -0.392337  celldm(5)=   0.000000  celldm(6)=   0.000000

     crystal axes: (cart. coord. in units of alat)
               a(1) = (   0.834367  -0.481722   0.267909 )  
               a(2) = (   0.000000   0.963444   0.267909 )  
               a(3) = (  -0.834367  -0.481722   0.267909 )  

     reciprocal axes: (cart. coord. in units 2 pi/alat)
               b(1) = (  0.599257 -0.345981  1.244203 )  
               b(2) = (  0.000000  0.691962  1.244203 )  
               b(3) = ( -0.599257 -0.345981  1.244203 )  


     PseudoPot. # 1 for H  read from file:
     ./H.pbe-van_ak.UPF
     MD5 check sum: 077eb6d537518a38cb46c6de387227b7
     Pseudo is Ultrasoft, Zval =  1.0
     Generated by new atomic code, or converted to UPF format
     Using radial grid of  615 points,  1 beta functions with: 
                l(1) =   0
     Q(r) pseudized with  8 coefficients,  rinner =    0.800

     PseudoPot. # 2 for O  read from file:
     ./O.pbe-van_ak.UPF
     MD5 check sum: 78c19812648e8988a0fe644b0f25305e
     Pseudo is Ultrasoft, Zval =  6.0
     Generated by new atomic code, or converted to UPF format
     Using radial grid of  737 points,  4 beta functions with: 
                l(1) =   0
                l(2) =   0
                l(3) =   1
                l(4) =   1
     Q(r) pseudized with  8 coefficients,  rinner =    0.800   0.800   0.800


     atomic species   valence    mass     pseudopotential
     H                 1.00     1.00800     H ( 1.00)
     O                 6.00    16.00000     O ( 1.00)

      6 Sym. Ops., with inversion, found



   Cartesian axes

     site n.     atom                  positions (alat units)
         1        O      tau(   1) = (  -0.4881587  -0.5153728   0.3102004  )
         2        O      tau(   2) = (   0.4881587   0.5153729   0.4935268  )
         3        O      tau(   3) = (   0.6904053  -0.1650714   0.3102004  )
         4        O      tau(   4) = (  -0.6904053   0.1650714   0.4935268  )
         5        O      tau(   5) = (  -0.2022466   0.6804442   0.3102004  )
         6        O      tau(   6) = (   0.2022466  -0.6804442   0.4935268  )
         7        O      tau(   7) = (   0.1208629   0.3351200   0.4137471  )
         8        O      tau(   8) = (  -0.1208629  -0.3351200   0.3899800  )
         9        O      tau(   9) = (  -0.3506539  -0.0628897   0.4137471  )
        10        O      tau(  10) = (   0.3506539   0.0628897   0.3899800  )
        11        O      tau(  11) = (   0.2297910  -0.2722304   0.4137471  )
        12        O      tau(  12) = (  -0.2297910   0.2722304   0.3899800  )
        13        H      tau(  13) = (  -0.5430428  -0.4102686   0.2622098  )
        14        H      tau(  14) = (   0.5430428   0.4102686   0.5415173  )
        15        H      tau(  15) = (   0.6268245  -0.2651546   0.2622098  )
        16        H      tau(  16) = (  -0.6268245   0.2651546   0.5415173  )
        17        H      tau(  17) = (  -0.0837816   0.6754232   0.2622098  )
        18        H      tau(  18) = (   0.0837817  -0.6754232   0.5415173  )
        19        H      tau(  19) = (  -0.4681736  -0.4859583   0.4327384  )
        20        H      tau(  20) = (   0.4681736   0.4859583   0.3709887  )
        21        H      tau(  21) = (   0.6549390  -0.1624711   0.4327384  )
        22        H      tau(  22) = (  -0.6549390   0.1624711   0.3709887  )
        23        H      tau(  23) = (  -0.1867654   0.6484294   0.4327384  )
        24        H      tau(  24) = (   0.1867654  -0.6484294   0.3709887  )
        25        H      tau(  25) = (   0.2718867  -0.1516220   0.4118766  )
        26        H      tau(  26) = (  -0.2718867   0.1516219   0.3918506  )
        27        H      tau(  27) = (  -0.0046349   0.3112717   0.4118766  )
        28        H      tau(  28) = (   0.0046349  -0.3112717   0.3918506  )
        29        H      tau(  29) = (  -0.2672518  -0.1596498   0.4118766  )
        30        H      tau(  30) = (   0.2672518   0.1596498   0.3918506  )
        31        H      tau(  31) = (   0.3136186  -0.3416266   0.3473301  )
        32        H      tau(  32) = (  -0.3136186   0.3416266   0.4563970  )
        33        H      tau(  33) = (   0.1390481   0.4424150   0.3473301  )
        34        H      tau(  34) = (  -0.1390480  -0.4424150   0.4563970  )
        35        H      tau(  35) = (  -0.4526667  -0.1007884   0.3473301  )
        36        H      tau(  36) = (   0.4526666   0.1007884   0.4563970  )

     number of k points=    14
                       cart. coord. in units 2pi/alat
        k(    1) = (   0.0000000   0.0000000   0.0000000), wk =   0.0312500
        k(    2) = (  -0.1498141  -0.0864952   0.3110508), wk =   0.1875000
        k(    3) = (   0.2996283   0.1729905  -0.6221017), wk =   0.0937500
        k(    4) = (  -0.1498141   0.0864952   0.6221017), wk =   0.1875000
        k(    5) = (   0.2996283   0.3459809  -0.3110508), wk =   0.1875000
        k(    6) = (   0.1498141   0.2594857   0.0000000), wk =   0.1875000
        k(    7) = (   0.2996283  -0.1729905  -1.2442034), wk =   0.0937500
        k(    8) = (   0.0000000   0.0000000   0.9331525), wk =   0.0625000
        k(    9) = (   0.4494424   0.2594857   0.0000000), wk =   0.1875000
        k(   10) = (   0.2996283   0.1729905   0.3110508), wk =   0.1875000
        k(   11) = (   0.4494424  -0.2594857  -0.9331525), wk =   0.1875000
        k(   12) = (   0.2996283  -0.3459809  -0.6221017), wk =   0.1875000
        k(   13) = (   0.0000000   0.0000000  -1.8663050), wk =   0.0312500
        k(   14) = (   0.2996283  -0.3459809   0.3110508), wk =   0.1875000

     Dense  grid:   277309 G-vectors     FFT dimensions: (  96,  96,  96)

     Estimated max dynamical RAM per process >      17.86 MB

     Estimated total dynamical RAM >       2.03 GB

     Initial potential from superposition of free atoms

     starting charge      95.9998, renormalised to      96.0000


     %%%%%%%%%%%%%%%%%%%%%%%%%%%%%%%%%%%%%%%%%%%%%%%%%%%%%%%%%%%%%%%%%%%%%%%%
     %                                                                      %
     % You are using vdW-DF, which was implemented by the Thonhauser group. %
     % Please cite the following two papers that made this development      %
     % possible and the two reviews that describe the various versions:     %
     %                                                                      %
     %   T. Thonhauser et al., PRL 115, 136402 (2015).                      %
     %   T. Thonhauser et al., PRB 76, 125112 (2007).                       %
     %   K. Berland et al., Rep. Prog. Phys. 78, 066501 (2015).             %
     %   D.C. Langreth et al., J. Phys.: Condens. Matter 21, 084203 (2009). %
     %                                                                      %
     % If you are calculating stress with vdW-DF, please also cite:         %
     %                                                                      %
     %   R. Sabatini et al., J. Phys.: Condens. Matter 24, 424209 (2012).   %
     %                                                                      %
     %%%%%%%%%%%%%%%%%%%%%%%%%%%%%%%%%%%%%%%%%%%%%%%%%%%%%%%%%%%%%%%%%%%%%%%%

     %%%%%%%%%%%%%%%%%%%%%%%%%%%%%%%%%%%%%%%%%%%%%%%%%%%%%%%%%%%%%%%%%%%%%%%%
     %                                                                      %
     %  vdW-DF NEWS:                                                        %
     %                                                                      %
     %  * vdW-DF3 is now available. DOI: 10.1021/acs.jctc.0c00471           %
     %    use with input_dft = 'vdW-DF3-opt1' or 'vdW-DF3-opt2'             %
     %                                                                      %
     %  * Unscreened and range-separated hybrid vdW-DF-cx functionals       %
     %    DOI: 10.1063/1.4986522 and 10.1088/1361-648X/ac2ad2               %
     %    use with input_dft = 'vdW-DF-cx0'    and 'vdW-DF-ahcx'            %
     %  * Unscreened and range-separated hybrid vdW-DF2-b86r functionals    %
     %    DOI: 10.1063/1.4986522 and DOI: 10.1103/PhysRevX.12.041003        %
     %    use with input_dft = 'vdW-DF2-br0' and 'vdW-DF2-ahbr'             %
     %                                                                      %
     %%%%%%%%%%%%%%%%%%%%%%%%%%%%%%%%%%%%%%%%%%%%%%%%%%%%%%%%%%%%%%%%%%%%%%%%


     Starting wfcs are   72 randomized atomic wfcs

     total cpu time spent up to now is        3.3 secs

     per-process dynamical memory:    21.4 Mb

     Self-consistent Calculation

     iteration #  1     ecut=    90.00 Ry     beta= 0.70
     Davidson diagonalization with overlap
     ethr =  1.00E-02,  avg # of iterations =  2.0

     total cpu time spent up to now is        4.4 secs

     total energy              =    -415.84885578 Ry
     estimated scf accuracy    <       4.51539580 Ry

     iteration #  2     ecut=    90.00 Ry     beta= 0.70
     Davidson diagonalization with overlap
     ethr =  4.70E-03,  avg # of iterations =  3.0

     total cpu time spent up to now is        5.7 secs

     total energy              =    -417.28642992 Ry
     estimated scf accuracy    <       3.98351729 Ry

     iteration #  3     ecut=    90.00 Ry     beta= 0.70
     Davidson diagonalization with overlap
     ethr =  4.15E-03,  avg # of iterations =  2.0

     total cpu time spent up to now is        6.8 secs

     total energy              =    -417.79127649 Ry
     estimated scf accuracy    <       0.19430078 Ry

     iteration #  4     ecut=    90.00 Ry     beta= 0.70
     Davidson diagonalization with overlap
     ethr =  2.02E-04,  avg # of iterations =  4.0

     total cpu time spent up to now is        8.4 secs

     total energy              =    -417.93931380 Ry
     estimated scf accuracy    <       0.21437703 Ry

     iteration #  5     ecut=    90.00 Ry     beta= 0.70
     Davidson diagonalization with overlap
     ethr =  2.02E-04,  avg # of iterations =  1.6

     negative rho (up, down):  1.773E-08 0.000E+00

     total cpu time spent up to now is        9.2 secs

     total energy              =    -417.94095147 Ry
     estimated scf accuracy    <       0.03556713 Ry

     iteration #  6     ecut=    90.00 Ry     beta= 0.70
     Davidson diagonalization with overlap
     ethr =  3.70E-05,  avg # of iterations =  2.0

     negative rho (up, down):  4.340E-08 0.000E+00

     total cpu time spent up to now is       10.3 secs

     total energy              =    -417.94812621 Ry
     estimated scf accuracy    <       0.00152223 Ry

     iteration #  7     ecut=    90.00 Ry     beta= 0.70
     Davidson diagonalization with overlap
     ethr =  1.59E-06,  avg # of iterations =  3.1

     negative rho (up, down):  4.673E-08 0.000E+00

     total cpu time spent up to now is       11.5 secs

     total energy              =    -417.94899587 Ry
     estimated scf accuracy    <       0.00035475 Ry

     iteration #  8     ecut=    90.00 Ry     beta= 0.70
     Davidson diagonalization with overlap
     ethr =  3.70E-07,  avg # of iterations =  2.0

     negative rho (up, down):  2.259E-08 0.000E+00

     total cpu time spent up to now is       12.5 secs

     total energy              =    -417.94892915 Ry
     estimated scf accuracy    <       0.00052029 Ry

     iteration #  9     ecut=    90.00 Ry     beta= 0.70
     Davidson diagonalization with overlap
     ethr =  3.70E-07,  avg # of iterations =  1.0

     negative rho (up, down):  1.564E-08 0.000E+00

     total cpu time spent up to now is       13.3 secs

     total energy              =    -417.94879604 Ry
     estimated scf accuracy    <       0.00028657 Ry

     iteration # 10     ecut=    90.00 Ry     beta= 0.70
     Davidson diagonalization with overlap
     ethr =  2.99E-07,  avg # of iterations =  2.0

     negative rho (up, down):  1.619E-08 0.000E+00

     total cpu time spent up to now is       14.4 secs

     total energy              =    -417.94885600 Ry
     estimated scf accuracy    <       0.00000386 Ry

     iteration # 11     ecut=    90.00 Ry     beta= 0.70
     Davidson diagonalization with overlap
     ethr =  4.02E-09,  avg # of iterations =  4.1

     negative rho (up, down):  1.735E-08 0.000E+00

     total cpu time spent up to now is       15.9 secs

     total energy              =    -417.94885920 Ry
     estimated scf accuracy    <       0.00000743 Ry

     iteration # 12     ecut=    90.00 Ry     beta= 0.70
     Davidson diagonalization with overlap
     ethr =  4.02E-09,  avg # of iterations =  2.0

     negative rho (up, down):  2.239E-08 0.000E+00

     total cpu time spent up to now is       17.0 secs

     total energy              =    -417.94885973 Ry
     estimated scf accuracy    <       0.00000235 Ry

     iteration # 13     ecut=    90.00 Ry     beta= 0.70
     Davidson diagonalization with overlap
     ethr =  2.45E-09,  avg # of iterations =  4.4

     negative rho (up, down):  2.137E-08 0.000E+00

     total cpu time spent up to now is       18.4 secs

     total energy              =    -417.94885965 Ry
     estimated scf accuracy    <       0.00001233 Ry

     iteration # 14     ecut=    90.00 Ry     beta= 0.70
     Davidson diagonalization with overlap
     ethr =  2.45E-09,  avg # of iterations =  2.0

     negative rho (up, down):  1.953E-08 0.000E+00

     total cpu time spent up to now is       19.6 secs

     total energy              =    -417.94885723 Ry
     estimated scf accuracy    <       0.00000404 Ry

     iteration # 15     ecut=    90.00 Ry     beta= 0.70
     Davidson diagonalization with overlap
     ethr =  2.45E-09,  avg # of iterations =  4.0

     negative rho (up, down):  2.013E-08 0.000E+00

     total cpu time spent up to now is       21.2 secs

     total energy              =    -417.94885960 Ry
     estimated scf accuracy    <       0.00000475 Ry

     iteration # 16     ecut=    90.00 Ry     beta= 0.70
     Davidson diagonalization with overlap
     ethr =  2.45E-09,  avg # of iterations =  1.9

     negative rho (up, down):  2.069E-08 0.000E+00

     total cpu time spent up to now is       22.1 secs

     total energy              =    -417.94885904 Ry
     estimated scf accuracy    <       0.00000152 Ry

     iteration # 17     ecut=    90.00 Ry     beta= 0.70
     Davidson diagonalization with overlap
     ethr =  1.58E-09,  avg # of iterations =  2.0

     negative rho (up, down):  2.060E-08 0.000E+00

     total cpu time spent up to now is       23.2 secs

     End of self-consistent calculation

          k = 0.0000 0.0000 0.0000 ( 34639 PWs)   bands (ev):

   -21.2555 -20.9226 -20.9226 -20.7728 -20.7728 -20.7444 -20.7393 -20.7384
   -20.7384 -20.5282 -20.5282 -20.3042  -8.9816  -8.9124  -8.9124  -8.9017
    -8.8369  -8.8369  -8.5970  -8.5970  -8.5878  -8.5494  -8.5494  -8.5438
    -7.3298  -6.4344  -6.4344  -5.9331  -5.9331  -5.7871  -5.7871  -5.6547
    -5.5369  -4.9588  -4.9588  -4.3068  -3.7930  -3.7930  -3.7706  -3.6635
    -3.6635  -3.6346  -3.5460  -3.5460  -3.5144  -3.4655  -3.4187  -3.4187

          k =-0.1498-0.0865 0.3111 ( 34668 PWs)   bands (ev):

   -21.2024 -20.9531 -20.9164 -20.8716 -20.8439 -20.7957 -20.7066 -20.6733
   -20.6301 -20.5311 -20.5016 -20.3456  -8.9536  -8.9272  -8.9109  -8.8842
    -8.8326  -8.8068  -8.6395  -8.6195  -8.6115  -8.5437  -8.4999  -8.4913
    -7.1918  -6.5795  -6.4654  -6.1997  -6.0039  -5.7973  -5.6478  -5.5382
    -5.3890  -4.9528  -4.9013  -4.4449  -3.8548  -3.8009  -3.7810  -3.7131
    -3.7010  -3.6622  -3.5796  -3.5405  -3.4891  -3.4787  -3.4312  -3.4105

          k = 0.2996 0.1730-0.6221 ( 34656 PWs)   bands (ev):

   -21.0664 -21.0643 -20.9370 -20.9296 -20.8427 -20.8424 -20.6667 -20.6661
   -20.5392 -20.5289 -20.4462 -20.4459  -8.9343  -8.9217  -8.8906  -8.8856
    -8.8341  -8.7880  -8.6571  -8.6392  -8.6249  -8.5321  -8.4668  -8.4579
    -6.9014  -6.8227  -6.4642  -6.4546  -5.9855  -5.9348  -5.5413  -5.4652
    -5.0804  -5.0083  -4.8668  -4.6590  -3.9142  -3.8168  -3.7700  -3.7590
    -3.7134  -3.6948  -3.6176  -3.5444  -3.5248  -3.4598  -3.4179  -3.4013

          k =-0.1498 0.0865 0.6221 ( 34671 PWs)   bands (ev):

   -21.0969 -20.9955 -20.9872 -20.9011 -20.8809 -20.8333 -20.6731 -20.6156
   -20.5841 -20.4998 -20.4874 -20.4205  -8.9349  -8.9179  -8.8957  -8.8894
    -8.8294  -8.7818  -8.6552  -8.6467  -8.6331  -8.5096  -8.4804  -8.4585
    -6.9448  -6.6943  -6.6558  -6.2680  -6.1018  -5.9417  -5.5375  -5.3328
    -5.2295  -4.9335  -4.8801  -4.6680  -3.9007  -3.8404  -3.7667  -3.7439
    -3.7139  -3.6916  -3.6274  -3.5442  -3.5141  -3.4585  -3.4376  -3.3904

          k = 0.2996 0.3460-0.3111 ( 34655 PWs)   bands (ev):

   -21.1307 -21.0153 -20.9504 -20.9165 -20.8688 -20.8157 -20.6746 -20.5977
   -20.5845 -20.5280 -20.4821 -20.4069  -8.9390  -8.9355  -8.9023  -8.8736
    -8.8254  -8.8012  -8.6889  -8.6590  -8.6338  -8.5250  -8.4936  -8.4687
    -6.9546  -6.6795  -6.5195  -6.3064  -6.2549  -5.8077  -5.4657  -5.3781
    -5.2302  -4.9814  -4.8791  -4.6286  -3.8581  -3.8163  -3.7752  -3.7365
    -3.6965  -3.6488  -3.5952  -3.5740  -3.4953  -3.4930  -3.4284  -3.3604

          k = 0.1498 0.2595 0.0000 ( 34689 PWs)   bands (ev):

   -21.2160 -20.9730 -20.9337 -20.8549 -20.8313 -20.7748 -20.7102 -20.6599
   -20.6290 -20.5335 -20.5123 -20.3385  -8.9685  -8.9249  -8.9152  -8.8839
    -8.8315  -8.8256  -8.6580  -8.6373  -8.6010  -8.5559  -8.5362  -8.4969
    -7.1828  -6.4861  -6.4073  -6.2283  -6.1984  -5.7131  -5.5658  -5.4541
    -5.4267  -4.9919  -4.9483  -4.4090  -3.7965  -3.7860  -3.7810  -3.7007
    -3.6669  -3.6479  -3.5745  -3.5597  -3.5037  -3.4811  -3.4008  -3.3851

          k = 0.2996-0.1730-1.2442 ( 34692 PWs)   bands (ev):

   -21.1229 -21.0913 -20.9402 -20.8953 -20.8263 -20.7983 -20.6619 -20.6561
   -20.5628 -20.5572 -20.4304 -20.4243  -8.9498  -8.9347  -8.9103  -8.8758
    -8.8208  -8.8190  -8.7089  -8.6706  -8.6187  -8.5368  -8.5286  -8.4880
    -6.8291  -6.7994  -6.4859  -6.3672  -6.1415  -5.8289  -5.3999  -5.3890
    -5.2199  -5.0970  -4.7818  -4.6429  -3.8065  -3.7863  -3.7734  -3.7275
    -3.6709  -3.6468  -3.6018  -3.5515  -3.5430  -3.4711  -3.3745  -3.3703

          k = 0.0000 0.0000 0.9332 ( 34684 PWs)   bands (ev):

   -21.0518 -21.0518 -20.9890 -20.9749 -20.8388 -20.8388 -20.6177 -20.6177
   -20.5200 -20.5077 -20.4814 -20.4814  -8.9344  -8.9344  -8.9099  -8.8411
    -8.8411  -8.8225  -8.7175  -8.6564  -8.6564  -8.4812  -8.4812  -8.4632
    -6.7444  -6.7444  -6.7016  -6.3906  -6.0717  -6.0717  -5.2570  -5.2570
    -5.1834  -4.9334  -4.9334  -4.8274  -3.8232  -3.8232  -3.7501  -3.7342
    -3.6714  -3.6714  -3.6407  -3.5427  -3.5427  -3.4629  -3.4629  -3.3415

          k = 0.4494 0.2595 0.0000 ( 34634 PWs)   bands (ev):

   -21.1432 -21.0214 -21.0135 -20.8968 -20.7935 -20.7814 -20.6898 -20.6733
   -20.5578 -20.5082 -20.4876 -20.4005  -8.9489  -8.9281  -8.9205  -8.8669
    -8.8442  -8.7953  -8.7188  -8.6614  -8.6316  -8.5326  -8.5219  -8.4910
    -6.9293  -6.5753  -6.5429  -6.4647  -6.1066  -5.8199  -5.4764  -5.4009
    -5.1452  -5.0078  -4.9084  -4.6046  -3.7967  -3.7899  -3.7779  -3.7205
    -3.6892  -3.6516  -3.5871  -3.5655  -3.5311  -3.4518  -3.4044  -3.3577

          k = 0.2996 0.1730 0.3111 ( 34679 PWs)   bands (ev):

   -21.1654 -20.9824 -20.9284 -20.9088 -20.8570 -20.8054 -20.6862 -20.6472
   -20.6129 -20.5170 -20.4867 -20.3736  -8.9459  -8.9322  -8.9037  -8.8673
    -8.8376  -8.7837  -8.6712  -8.6289  -8.6061  -8.5738  -8.5226  -8.4801
    -7.0568  -6.5569  -6.5269  -6.2669  -6.1774  -5.8012  -5.5586  -5.4170
    -5.3527  -4.9398  -4.8920  -4.5108  -3.8749  -3.8122  -3.7898  -3.7468
    -3.7190  -3.6310  -3.6071  -3.5458  -3.4745  -3.4738  -3.4178  -3.3937

          k = 0.4494-0.2595-0.9332 ( 34655 PWs)   bands (ev):

   -21.0713 -21.0659 -20.9673 -20.9403 -20.8481 -20.7822 -20.7137 -20.6393
   -20.5503 -20.5018 -20.4720 -20.4188  -8.9393  -8.9211  -8.9119  -8.8534
    -8.8236  -8.7703  -8.6922  -8.6561  -8.6243  -8.5788  -8.5205  -8.4922
    -6.7914  -6.6999  -6.5710  -6.3832  -6.1940  -5.8235  -5.6083  -5.3497
    -5.1355  -4.9387  -4.9053  -4.6089  -3.8837  -3.8300  -3.8072  -3.7600
    -3.7372  -3.6453  -3.5706  -3.5542  -3.4912  -3.4594  -3.4006  -3.3831

          k = 0.2996-0.3460-0.6221 ( 34662 PWs)   bands (ev):

   -21.0414 -21.0370 -20.9622 -20.9562 -20.8588 -20.8585 -20.6533 -20.6517
   -20.5361 -20.5314 -20.4478 -20.4408  -8.9394  -8.8950  -8.8855  -8.8699
    -8.8567  -8.7464  -8.6831  -8.6400  -8.6194  -8.5604  -8.4912  -8.4816
    -6.7906  -6.7635  -6.5152  -6.4717  -6.0558  -6.0275  -5.4614  -5.4084
    -5.0924  -5.0599  -4.8335  -4.6340  -3.9348  -3.8306  -3.8044  -3.7992
    -3.7606  -3.6472  -3.5685  -3.5573  -3.5145  -3.4408  -3.4288  -3.3868

          k = 0.0000 0.0000-1.8663 ( 34626 PWs)   bands (ev):

   -21.0163 -21.0043 -20.9372 -20.9372 -20.9345 -20.9345 -20.5899 -20.5899
   -20.5796 -20.5796 -20.4422 -20.4297  -8.9400  -8.8721  -8.8721  -8.8628
    -8.8628  -8.7292  -8.6820  -8.6457  -8.6051  -8.6051  -8.5131  -8.5131
    -6.7806  -6.6540  -6.3559  -6.3559  -6.2913  -6.2913  -5.2457  -5.2457
    -5.2136  -5.2136  -4.7867  -4.6089  -3.9459  -3.8331  -3.8331  -3.8266
    -3.8266  -3.6004  -3.5738  -3.4995  -3.4995  -3.4559  -3.4559  -3.3642

          k = 0.2996-0.3460 0.3111 ( 34655 PWs)   bands (ev):

   -21.1308 -21.0142 -20.9536 -20.9149 -20.8679 -20.8155 -20.6736 -20.6009
   -20.5859 -20.5244 -20.4818 -20.4076  -8.9451  -8.9229  -8.9104  -8.8639
    -8.8333  -8.8017  -8.6974  -8.6551  -8.6297  -8.5224  -8.4873  -8.4768
    -6.9561  -6.6592  -6.5660  -6.2903  -6.2068  -5.8580  -5.5465  -5.2740
    -5.1598  -5.0403  -4.9215  -4.6069  -3.8652  -3.8075  -3.7695  -3.7300
    -3.7049  -3.6487  -3.6026  -3.5844  -3.5022  -3.4695  -3.4288  -3.3648

     highest occupied level (ev):    -3.3415

!    total energy              =    -417.94885943 Ry
     estimated scf accuracy    <       0.00000001 Ry

     The total energy is the sum of the following terms:
     one-electron contribution =    -312.31430680 Ry
     hartree contribution      =     188.74672687 Ry
     xc contribution           =    -104.57817501 Ry
     ewald contribution        =    -189.80310449 Ry

     convergence has been achieved in  17 iterations

     Forces acting on atoms (cartesian axes, Ry/au):

     atom    1 type  2   force =    -0.01823958    0.06636022    0.03784824
     atom    2 type  2   force =     0.01823958   -0.06636022   -0.03784824
     atom    3 type  2   force =    -0.04834985   -0.04897606    0.03784824
     atom    4 type  2   force =     0.04834985    0.04897606   -0.03784824
     atom    5 type  2   force =     0.06658943   -0.01738417    0.03784824
     atom    6 type  2   force =    -0.06658943    0.01738417   -0.03784824
     atom    7 type  2   force =    -0.05146734    0.03959695   -0.03151952
     atom    8 type  2   force =     0.05146734   -0.03959695    0.03151952
     atom    9 type  2   force =    -0.00855829   -0.06437050   -0.03151952
     atom   10 type  2   force =     0.00855829    0.06437050    0.03151952
     atom   11 type  2   force =     0.06002563    0.02477355   -0.03151952
     atom   12 type  2   force =    -0.06002563   -0.02477355    0.03151952
     atom   13 type  1   force =     0.03023623   -0.05451637    0.02992501
     atom   14 type  1   force =    -0.03023623    0.05451637   -0.02992501
     atom   15 type  1   force =     0.03209445    0.05344353    0.02992501
     atom   16 type  1   force =    -0.03209445   -0.05344353   -0.02992501
     atom   17 type  1   force =    -0.06233068    0.00107284    0.02992501
     atom   18 type  1   force =     0.06233068   -0.00107284   -0.02992501
     atom   19 type  1   force =    -0.01333646   -0.01222798   -0.06769495
     atom   20 type  1   force =     0.01333646    0.01222798    0.06769495
     atom   21 type  1   force =     0.01725797   -0.00543572   -0.06769495
     atom   22 type  1   force =    -0.01725797    0.00543572    0.06769495
     atom   23 type  1   force =    -0.00392151    0.01766370   -0.06769495
     atom   24 type  1   force =     0.00392151   -0.01766370    0.06769495
     atom   25 type  1   force =    -0.01867888   -0.06747321   -0.00178944
     atom   26 type  1   force =     0.01867888    0.06747321    0.00178944
     atom   27 type  1   force =     0.06777295    0.01756022   -0.00178944
     atom   28 type  1   force =    -0.06777295   -0.01756022    0.00178944
     atom   29 type  1   force =    -0.04909407    0.04991299   -0.00178944
     atom   30 type  1   force =     0.04909407   -0.04991299    0.00178944
     atom   31 type  1   force =    -0.04395671    0.04273605    0.03685200
     atom   32 type  1   force =     0.04395671   -0.04273605   -0.03685200
     atom   33 type  1   force =    -0.01503215   -0.05943565    0.03685200
     atom   34 type  1   force =     0.01503215    0.05943565   -0.03685200
     atom   35 type  1   force =     0.05898886    0.01669960    0.03685200
     atom   36 type  1   force =    -0.05898886   -0.01669960   -0.03685200

     Total force =     0.431919     Total SCF correction =     0.000069


     Computing stress (Cartesian axis) and pressure

          total   stress  (Ry/bohr**3)                   (kbar)     P=      -93.00
  -0.00063583  -0.00000000   0.00000000          -93.53       -0.00        0.00
   0.00000000  -0.00063583  -0.00000000            0.00      -93.53       -0.00
   0.00000000  -0.00000000  -0.00062488            0.00       -0.00      -91.92


     Writing all to output data dir ./iceII/iceII.save/ :
     XML data file, charge density, pseudopotentials, collected wavefunctions

     init_run     :      2.96s CPU      3.06s WALL (       1 calls)
     electrons    :     19.06s CPU     19.96s WALL (       1 calls)
     forces       :      0.16s CPU      0.16s WALL (       1 calls)
     stress       :      1.25s CPU      1.29s WALL (       1 calls)

     Called by init_run:
     wfcinit      :      0.37s CPU      0.38s WALL (       1 calls)
     potinit      :      1.70s CPU      1.76s WALL (       1 calls)
     hinit0       :      0.68s CPU      0.69s WALL (       1 calls)

     Called by electrons:
     c_bands      :     13.75s CPU     13.91s WALL (      17 calls)
     sum_band     :      2.02s CPU      2.04s WALL (      17 calls)
     v_of_rho     :      4.72s CPU      5.46s WALL (      18 calls)
     newd         :      0.11s CPU      0.11s WALL (      18 calls)
     mix_rho      :      0.08s CPU      0.08s WALL (      17 calls)
     vdW_kernel   :      1.50s CPU      1.52s WALL (       1 calls)

     Called by c_bands:
     init_us_2    :      0.25s CPU      0.27s WALL (     148 calls)
     cegterg      :     13.29s CPU     13.39s WALL (      68 calls)

     Called by *egterg:
     cdiaghg      :      0.90s CPU      0.90s WALL (     236 calls)
     h_psi        :     10.27s CPU     10.36s WALL (     240 calls)
     s_psi        :      0.48s CPU      0.48s WALL (     240 calls)
     g_psi        :      0.03s CPU      0.03s WALL (     168 calls)

     Called by h_psi:
     h_psi:calbec :      0.76s CPU      0.76s WALL (     240 calls)
     vloc_psi     :      8.95s CPU      9.03s WALL (     240 calls)
     add_vuspsi   :      0.48s CPU      0.48s WALL (     240 calls)

     General routines
     calbec       :      1.02s CPU      1.03s WALL (     328 calls)
     fft          :      2.33s CPU      2.78s WALL (    1150 calls)
     ffts         :      0.02s CPU      0.02s WALL (      17 calls)
     fftw         :      9.34s CPU      9.42s WALL (   23644 calls)

     Parallel routines

     PWSCF        :     23.77s CPU     25.14s WALL


   This run was terminated on:  16: 2:41  26Mar2026            

=------------------------------------------------------------------------------=
   JOB DONE.
=------------------------------------------------------------------------------=
