
     Program PWSCF v.7.3.1 starts on  1Apr2026 at 16: 2:58 

     This program is part of the open-source Quantum ESPRESSO suite
     for quantum simulation of materials; please cite
         "P. Giannozzi et al., J. Phys.:Condens. Matter 21 395502 (2009);
         "P. Giannozzi et al., J. Phys.:Condens. Matter 29 465901 (2017);
         "P. Giannozzi et al., J. Chem. Phys. 152 154105 (2020);
          URL http://www.quantum-espresso.org", 
     in publications or presentations arising from this work. More details at
     http://www.quantum-espresso.org/quote

     Parallel version (MPI), running on   128 processors

     MPI processes distributed on     1 nodes
     242558 MiB available memory on the printing compute node when the environment starts

     Waiting for input...
     Reading input from standard input

     Current dimensions of program PWSCF are:
     Max number of different atomic species (ntypx) = 10
     Max number of k-points (npk) =  40000
     Max angular momentum in pseudopotentials (lmaxx) =  4

     IMPORTANT: XC functional enforced from input :
     Exchange-correlation= VDW-DF2
                           (   1   4  13   0   2   0   0)
     Any further DFT definition will be discarded
     Please, verify this is what you really want


     K-points division:     npool     =       4
     R & G space division:  proc/nbgrp/npool/nimage =      32
     Subspace diagonalization in iterative solution of the eigenvalue problem:
     a serial algorithm will be used


     Parallelization info
     --------------------
     sticks:   dense  smooth     PW     G-vecs:    dense   smooth      PW
     Min         198     198     57                 8741     8741    1372
     Max         199     199     58                 8743     8743    1376
     Sum        6353    6353   1849               279751   279751   43969

     Using Slab Decomposition



     bravais-lattice index     =            5
     lattice parameter (alat)  =      15.5401  a.u.
     unit-cell volume          =    2424.6701 (a.u.)^3
     number of atoms/cell      =           36
     number of atomic types    =            2
     number of electrons       =        96.00
     number of Kohn-Sham states=           48
     kinetic-energy cutoff     =      90.0000  Ry
     charge density cutoff     =     360.0000  Ry
     scf convergence threshold =      1.0E-07
     mixing beta               =       0.7000
     number of iterations used =            8  plain     mixing
     energy convergence thresh.=      1.0E-04
     force convergence thresh. =      1.0E-03
     Exchange-correlation= VDW-DF2
                           (   1   4  13   0   2   0   0)
     nstep                     =           50


     celldm(1)=  15.540086  celldm(2)=   0.000000  celldm(3)=   0.000000
     celldm(4)=  -0.392337  celldm(5)=   0.000000  celldm(6)=   0.000000

     crystal axes: (cart. coord. in units of alat)
               a(1) = (   0.834367  -0.481722   0.267909 )  
               a(2) = (   0.000000   0.963444   0.267909 )  
               a(3) = (  -0.834367  -0.481722   0.267909 )  

     reciprocal axes: (cart. coord. in units 2 pi/alat)
               b(1) = (  0.599257 -0.345981  1.244203 )  
               b(2) = ( -0.000000  0.691962  1.244203 )  
               b(3) = ( -0.599257 -0.345981  1.244203 )  


     PseudoPot. # 1 for H  read from file:
     ./H.pbe-van_ak.UPF
     MD5 check sum: 077eb6d537518a38cb46c6de387227b7
     Pseudo is Ultrasoft, Zval =  1.0
     Generated by new atomic code, or converted to UPF format
     Using radial grid of  615 points,  1 beta functions with: 
                l(1) =   0
     Q(r) pseudized with  8 coefficients,  rinner =    0.800

     PseudoPot. # 2 for O  read from file:
     ./O.pbe-van_ak.UPF
     MD5 check sum: 78c19812648e8988a0fe644b0f25305e
     Pseudo is Ultrasoft, Zval =  6.0
     Generated by new atomic code, or converted to UPF format
     Using radial grid of  737 points,  4 beta functions with: 
                l(1) =   0
                l(2) =   0
                l(3) =   1
                l(4) =   1
     Q(r) pseudized with  8 coefficients,  rinner =    0.800   0.800   0.800


     atomic species   valence    mass     pseudopotential
     H                 1.00     1.00800     H ( 1.00)
     O                 6.00    16.00000     O ( 1.00)

      6 Sym. Ops., with inversion, found



   Cartesian axes

     site n.     atom                  positions (alat units)
         1        O      tau(   1) = (  -0.4847673  -0.5197781   0.3083633  )
         2        O      tau(   2) = (   0.4847673   0.5197782   0.4953638  )
         3        O      tau(   3) = (   0.6925247  -0.1599317   0.3083633  )
         4        O      tau(   4) = (  -0.6925248   0.1599317   0.4953638  )
         5        O      tau(   5) = (  -0.2077574   0.6797099   0.3083633  )
         6        O      tau(   6) = (   0.2077574  -0.6797099   0.4953638  )
         7        O      tau(   7) = (   0.1218176   0.3323883   0.4179381  )
         8        O      tau(   8) = (  -0.1218176  -0.3323883   0.3857890  )
         9        O      tau(   9) = (  -0.3487655  -0.0606970   0.4179381  )
        10        O      tau(  10) = (   0.3487655   0.0606970   0.3857890  )
        11        O      tau(  11) = (   0.2269479  -0.2716913   0.4179381  )
        12        O      tau(  12) = (  -0.2269479   0.2716912   0.3857890  )
        13        H      tau(  13) = (  -0.5381668  -0.4032014   0.2796970  )
        14        H      tau(  14) = (   0.5381668   0.4032014   0.5240301  )
        15        H      tau(  15) = (   0.6182661  -0.2644654   0.2796970  )
        16        H      tau(  16) = (  -0.6182661   0.2644654   0.5240301  )
        17        H      tau(  17) = (  -0.0800993   0.6676668   0.2796970  )
        18        H      tau(  18) = (   0.0800993  -0.6676668   0.5240301  )
        19        H      tau(  19) = (  -0.4872704  -0.4817221   0.4326731  )
        20        H      tau(  20) = (   0.4872704   0.4817221   0.3710540  )
        21        H      tau(  21) = (   0.6608188  -0.1811275   0.4326731  )
        22        H      tau(  22) = (  -0.6608188   0.1811275   0.3710540  )
        23        H      tau(  23) = (  -0.1735484   0.6628496   0.4326731  )
        24        H      tau(  24) = (   0.1735484  -0.6628496   0.3710540  )
        25        H      tau(  25) = (   0.2703349  -0.1502973   0.4058822  )
        26        H      tau(  26) = (  -0.2703350   0.1502973   0.3978449  )
        27        H      tau(  27) = (  -0.0050062   0.3092656   0.4058822  )
        28        H      tau(  28) = (   0.0050062  -0.3092656   0.3978449  )
        29        H      tau(  29) = (  -0.2653287  -0.1589683   0.4058822  )
        30        H      tau(  30) = (   0.2653287   0.1589683   0.3978449  )
        31        H      tau(  31) = (   0.3178939  -0.3347969   0.3493534  )
        32        H      tau(  32) = (  -0.3178939   0.3347969   0.4543737  )
        33        H      tau(  33) = (   0.1309957   0.4427026   0.3493534  )
        34        H      tau(  34) = (  -0.1309956  -0.4427026   0.4543737  )
        35        H      tau(  35) = (  -0.4488895  -0.1079057   0.3493534  )
        36        H      tau(  36) = (   0.4488895   0.1079057   0.4543737  )

     number of k points=    14
                       cart. coord. in units 2pi/alat
        k(    1) = (   0.0000000   0.0000000   0.0000000), wk =   0.0312500
        k(    2) = (  -0.1498141  -0.0864952   0.3110508), wk =   0.1875000
        k(    3) = (   0.2996283   0.1729905  -0.6221017), wk =   0.0937500
        k(    4) = (  -0.1498141   0.0864952   0.6221017), wk =   0.1875000
        k(    5) = (   0.2996283   0.3459809  -0.3110508), wk =   0.1875000
        k(    6) = (   0.1498141   0.2594857   0.0000000), wk =   0.1875000
        k(    7) = (   0.2996283  -0.1729905  -1.2442034), wk =   0.0937500
        k(    8) = (   0.0000000   0.0000000   0.9331525), wk =   0.0625000
        k(    9) = (   0.4494424   0.2594857   0.0000000), wk =   0.1875000
        k(   10) = (   0.2996283   0.1729905   0.3110508), wk =   0.1875000
        k(   11) = (   0.4494424  -0.2594857  -0.9331525), wk =   0.1875000
        k(   12) = (   0.2996283  -0.3459809  -0.6221017), wk =   0.1875000
        k(   13) = (   0.0000000   0.0000000  -1.8663050), wk =   0.0312500
        k(   14) = (   0.2996283  -0.3459809   0.3110508), wk =   0.1875000

     Dense  grid:   279751 G-vectors     FFT dimensions: (  96,  96,  96)

     Estimated max dynamical RAM per process >      17.98 MB

     Estimated total dynamical RAM >       2.05 GB

     Initial potential from superposition of free atoms

     starting charge      95.9998, renormalised to      96.0000


     %%%%%%%%%%%%%%%%%%%%%%%%%%%%%%%%%%%%%%%%%%%%%%%%%%%%%%%%%%%%%%%%%%%%%%%%
     %                                                                      %
     % You are using vdW-DF, which was implemented by the Thonhauser group. %
     % Please cite the following two papers that made this development      %
     % possible and the two reviews that describe the various versions:     %
     %                                                                      %
     %   T. Thonhauser et al., PRL 115, 136402 (2015).                      %
     %   T. Thonhauser et al., PRB 76, 125112 (2007).                       %
     %   K. Berland et al., Rep. Prog. Phys. 78, 066501 (2015).             %
     %   D.C. Langreth et al., J. Phys.: Condens. Matter 21, 084203 (2009). %
     %                                                                      %
     % If you are calculating stress with vdW-DF, please also cite:         %
     %                                                                      %
     %   R. Sabatini et al., J. Phys.: Condens. Matter 24, 424209 (2012).   %
     %                                                                      %
     %%%%%%%%%%%%%%%%%%%%%%%%%%%%%%%%%%%%%%%%%%%%%%%%%%%%%%%%%%%%%%%%%%%%%%%%

     %%%%%%%%%%%%%%%%%%%%%%%%%%%%%%%%%%%%%%%%%%%%%%%%%%%%%%%%%%%%%%%%%%%%%%%%
     %                                                                      %
     %  vdW-DF NEWS:                                                        %
     %                                                                      %
     %  * vdW-DF3 is now available. DOI: 10.1021/acs.jctc.0c00471           %
     %    use with input_dft = 'vdW-DF3-opt1' or 'vdW-DF3-opt2'             %
     %                                                                      %
     %  * Unscreened and range-separated hybrid vdW-DF-cx functionals       %
     %    DOI: 10.1063/1.4986522 and 10.1088/1361-648X/ac2ad2               %
     %    use with input_dft = 'vdW-DF-cx0'    and 'vdW-DF-ahcx'            %
     %  * Unscreened and range-separated hybrid vdW-DF2-b86r functionals    %
     %    DOI: 10.1063/1.4986522 and DOI: 10.1103/PhysRevX.12.041003        %
     %    use with input_dft = 'vdW-DF2-br0' and 'vdW-DF2-ahbr'             %
     %                                                                      %
     %%%%%%%%%%%%%%%%%%%%%%%%%%%%%%%%%%%%%%%%%%%%%%%%%%%%%%%%%%%%%%%%%%%%%%%%


     Starting wfcs are   72 randomized atomic wfcs

     total cpu time spent up to now is        3.3 secs

     per-process dynamical memory:    21.4 Mb

     Self-consistent Calculation

     iteration #  1     ecut=    90.00 Ry     beta= 0.70
     Davidson diagonalization with overlap
     ethr =  1.00E-02,  avg # of iterations =  2.0

     negative rho (up, down):  5.622E-08 0.000E+00

     total cpu time spent up to now is        4.4 secs

     total energy              =    -415.75698762 Ry
     estimated scf accuracy    <       4.29194284 Ry

     iteration #  2     ecut=    90.00 Ry     beta= 0.70
     Davidson diagonalization with overlap
     ethr =  4.47E-03,  avg # of iterations =  3.0

     total cpu time spent up to now is        5.8 secs

     total energy              =    -417.12230891 Ry
     estimated scf accuracy    <       3.98974315 Ry

     iteration #  3     ecut=    90.00 Ry     beta= 0.70
     Davidson diagonalization with overlap
     ethr =  4.16E-03,  avg # of iterations =  2.0

     total cpu time spent up to now is        6.9 secs

     total energy              =    -417.61258638 Ry
     estimated scf accuracy    <       0.21065552 Ry

     iteration #  4     ecut=    90.00 Ry     beta= 0.70
     Davidson diagonalization with overlap
     ethr =  2.19E-04,  avg # of iterations =  4.0

     negative rho (up, down):  1.749E-07 0.000E+00

     total cpu time spent up to now is        8.4 secs

     total energy              =    -417.77000593 Ry
     estimated scf accuracy    <       0.20114373 Ry

     iteration #  5     ecut=    90.00 Ry     beta= 0.70
     Davidson diagonalization with overlap
     ethr =  2.10E-04,  avg # of iterations =  1.0

     negative rho (up, down):  3.168E-07 0.000E+00

     total cpu time spent up to now is        9.2 secs

     total energy              =    -417.76954100 Ry
     estimated scf accuracy    <       0.03836035 Ry

     iteration #  6     ecut=    90.00 Ry     beta= 0.70
     Davidson diagonalization with overlap
     ethr =  4.00E-05,  avg # of iterations =  2.0

     negative rho (up, down):  3.541E-07 0.000E+00

     total cpu time spent up to now is       10.3 secs

     total energy              =    -417.77594848 Ry
     estimated scf accuracy    <       0.00209517 Ry

     iteration #  7     ecut=    90.00 Ry     beta= 0.70
     Davidson diagonalization with overlap
     ethr =  2.18E-06,  avg # of iterations =  2.0

     negative rho (up, down):  3.671E-07 0.000E+00

     total cpu time spent up to now is       11.4 secs

     total energy              =    -417.77660699 Ry
     estimated scf accuracy    <       0.00011603 Ry

     iteration #  8     ecut=    90.00 Ry     beta= 0.70
     Davidson diagonalization with overlap
     ethr =  1.21E-07,  avg # of iterations =  6.0

     negative rho (up, down):  3.574E-07 0.000E+00

     total cpu time spent up to now is       13.1 secs

     total energy              =    -417.77667459 Ry
     estimated scf accuracy    <       0.00058995 Ry

     iteration #  9     ecut=    90.00 Ry     beta= 0.70
     Davidson diagonalization with overlap
     ethr =  1.21E-07,  avg # of iterations =  2.0

     negative rho (up, down):  3.449E-07 0.000E+00

     total cpu time spent up to now is       14.0 secs

     total energy              =    -417.77656208 Ry
     estimated scf accuracy    <       0.00034453 Ry

     iteration # 10     ecut=    90.00 Ry     beta= 0.70
     Davidson diagonalization with overlap
     ethr =  1.21E-07,  avg # of iterations =  3.0

     negative rho (up, down):  3.435E-07 0.000E+00

     total cpu time spent up to now is       15.2 secs

     total energy              =    -417.77658765 Ry
     estimated scf accuracy    <       0.00004365 Ry

     iteration # 11     ecut=    90.00 Ry     beta= 0.70
     Davidson diagonalization with overlap
     ethr =  4.55E-08,  avg # of iterations =  2.0

     negative rho (up, down):  3.417E-07 0.000E+00

     total cpu time spent up to now is       16.2 secs

     total energy              =    -417.77659104 Ry
     estimated scf accuracy    <       0.00000871 Ry

     iteration # 12     ecut=    90.00 Ry     beta= 0.70
     Davidson diagonalization with overlap
     ethr =  9.07E-09,  avg # of iterations =  3.0

     negative rho (up, down):  3.422E-07 0.000E+00

     total cpu time spent up to now is       17.4 secs

     total energy              =    -417.77659454 Ry
     estimated scf accuracy    <       0.00000025 Ry

     iteration # 13     ecut=    90.00 Ry     beta= 0.70
     Davidson diagonalization with overlap
     ethr =  2.61E-10,  avg # of iterations =  5.4

     negative rho (up, down):  3.442E-07 0.000E+00

     total cpu time spent up to now is       19.0 secs

     total energy              =    -417.77659460 Ry
     estimated scf accuracy    <       0.00000067 Ry

     iteration # 14     ecut=    90.00 Ry     beta= 0.70
     Davidson diagonalization with overlap
     ethr =  2.61E-10,  avg # of iterations =  2.0

     negative rho (up, down):  3.447E-07 0.000E+00

     total cpu time spent up to now is       20.1 secs

     total energy              =    -417.77659458 Ry
     estimated scf accuracy    <       0.00000013 Ry

     iteration # 15     ecut=    90.00 Ry     beta= 0.70
     Davidson diagonalization with overlap
     ethr =  1.33E-10,  avg # of iterations =  3.0

     negative rho (up, down):  3.447E-07 0.000E+00

     total cpu time spent up to now is       21.3 secs

     End of self-consistent calculation

          k = 0.0000 0.0000 0.0000 ( 34975 PWs)   bands (ev):

   -21.2303 -20.9004 -20.9004 -20.7342 -20.7342 -20.7109 -20.7109 -20.7060
   -20.7007 -20.4824 -20.4824 -20.2533  -8.7431  -8.5759  -8.5130  -8.5130
    -8.4723  -8.4723  -8.0573  -7.9317  -7.9317  -7.7361  -7.7361  -7.6294
    -7.5729  -6.8579  -6.8579  -6.3643  -6.3643  -6.2644  -6.2644  -6.0351
    -5.8739  -5.2947  -5.2947  -4.6919  -3.8343  -3.8343  -3.7542  -3.6801
    -3.6446  -3.6446  -3.5239  -3.5215  -3.5215  -3.5087  -3.4670  -3.4670

          k =-0.1498-0.0865 0.3111 ( 34973 PWs)   bands (ev):

   -21.1762 -20.9310 -20.8928 -20.8393 -20.8187 -20.7665 -20.6633 -20.6308
   -20.5919 -20.4861 -20.4558 -20.2971  -8.6982  -8.6283  -8.5610  -8.5273
    -8.4514  -8.3975  -8.0474  -7.8988  -7.8928  -7.7663  -7.6677  -7.6322
    -7.4752  -6.9787  -6.8744  -6.6342  -6.3460  -6.2613  -6.1217  -5.9338
    -5.8795  -5.2893  -5.2320  -4.8172  -3.9229  -3.8653  -3.7715  -3.7188
    -3.6753  -3.6521  -3.6149  -3.5571  -3.5111  -3.4720  -3.4526  -3.4135

          k = 0.2996 0.1730-0.6221 ( 35000 PWs)   bands (ev):

   -21.0413 -21.0320 -20.9124 -20.9101 -20.8200 -20.8168 -20.6191 -20.6182
   -20.4923 -20.4862 -20.4049 -20.4000  -8.6790  -8.6305  -8.5561  -8.5392
    -8.4501  -8.4003  -8.0006  -7.9008  -7.8680  -7.7741  -7.6024  -7.6006
    -7.2872  -7.1649  -6.9210  -6.7689  -6.3602  -6.2873  -6.1259  -5.9880
    -5.5304  -5.3986  -5.1772  -4.9722  -4.0031  -3.8797  -3.7912  -3.7636
    -3.7068  -3.6934  -3.6184  -3.5747  -3.5474  -3.4452  -3.4355  -3.3759

          k =-0.1498 0.0865 0.6221 ( 34966 PWs)   bands (ev):

   -21.0677 -20.9683 -20.9634 -20.8771 -20.8576 -20.8091 -20.6263 -20.5672
   -20.5417 -20.4556 -20.4416 -20.3777  -8.6854  -8.6091  -8.5955  -8.5003
    -8.4672  -8.3915  -8.0050  -7.9268  -7.8866  -7.6957  -7.6406  -7.5966
    -7.2908  -7.1102  -7.0321  -6.6325  -6.4844  -6.3266  -6.0581  -5.8824
    -5.6939  -5.2594  -5.2375  -4.9779  -3.9865  -3.9120  -3.7818  -3.7447
    -3.7169  -3.6737  -3.6412  -3.5688  -3.5439  -3.4529  -3.4374  -3.3715

          k = 0.2996 0.3460-0.3111 ( 34971 PWs)   bands (ev):

   -21.1050 -20.9911 -20.9225 -20.8900 -20.8412 -20.7860 -20.6312 -20.5566
   -20.5427 -20.4872 -20.4371 -20.3587  -8.6890  -8.6715  -8.5411  -8.5204
    -8.4725  -8.3926  -8.0251  -7.9778  -7.8733  -7.6701  -7.6420  -7.5894
    -7.3928  -7.1483  -6.9446  -6.6360  -6.6168  -6.2002  -6.0361  -5.7991
    -5.6018  -5.3960  -5.2131  -4.9582  -3.9207  -3.8618  -3.7946  -3.7343
    -3.6905  -3.6513  -3.5997  -3.5926  -3.5280  -3.4898  -3.4415  -3.3624

          k = 0.1498 0.2595 0.0000 ( 34959 PWs)   bands (ev):

   -21.1909 -20.9511 -20.9120 -20.8186 -20.7970 -20.7366 -20.6777 -20.6245
   -20.5949 -20.4895 -20.4649 -20.2881  -8.7299  -8.6371  -8.5549  -8.5253
    -8.4265  -8.4205  -8.0831  -7.9755  -7.8216  -7.7411  -7.6947  -7.6061
    -7.5745  -6.9720  -6.8615  -6.6205  -6.5206  -6.1479  -6.0369  -5.9151
    -5.7585  -5.3564  -5.2692  -4.7842  -3.8336  -3.8208  -3.7811  -3.7044
    -3.6723  -3.6507  -3.5627  -3.5446  -3.5245  -3.5118  -3.4313  -3.4206

          k = 0.2996-0.1730-1.2442 ( 34958 PWs)   bands (ev):

   -21.0954 -21.0705 -20.9201 -20.8580 -20.7949 -20.7582 -20.6348 -20.6147
   -20.5265 -20.5155 -20.3834 -20.3733  -8.7101  -8.6807  -8.5699  -8.5416
    -8.4012  -8.3983  -8.0730  -8.0224  -7.7977  -7.7647  -7.6160  -7.5831
    -7.3511  -7.3070  -6.9162  -6.7131  -6.4406  -6.2610  -5.9403  -5.6976
    -5.6147  -5.5142  -5.1396  -4.9733  -3.8422  -3.8065  -3.8001  -3.7333
    -3.6705  -3.6340  -3.6094  -3.5554  -3.5448  -3.5112  -3.4052  -3.3909

          k = 0.0000 0.0000 0.9332 ( 34954 PWs)   bands (ev):

   -21.0260 -21.0260 -20.9702 -20.9378 -20.8121 -20.8121 -20.5750 -20.5750
   -20.4762 -20.4673 -20.4359 -20.4359  -8.6718  -8.6718  -8.5594  -8.4715
    -8.4715  -8.4505  -8.0314  -7.9503  -7.9503  -7.5948  -7.5948  -7.5648
    -7.2358  -7.2229  -7.2229  -6.6557  -6.4182  -6.4182  -5.8614  -5.6797
    -5.6797  -5.2710  -5.2710  -5.1113  -3.8747  -3.8747  -3.7758  -3.7327
    -3.6665  -3.6665  -3.6280  -3.5704  -3.5704  -3.4766  -3.4766  -3.3437

          k = 0.4494 0.2595 0.0000 ( 34942 PWs)   bands (ev):

   -21.1180 -20.9958 -20.9938 -20.8595 -20.7565 -20.7510 -20.6497 -20.6420
   -20.5272 -20.4622 -20.4389 -20.3509  -8.7075  -8.6693  -8.6167  -8.4879
    -8.4383  -8.3815  -8.0882  -7.9829  -7.8734  -7.6788  -7.6404  -7.5978
    -7.4316  -7.1192  -7.0513  -6.6669  -6.4687  -6.2517  -5.8559  -5.8233
    -5.6511  -5.3617  -5.2338  -4.9494  -3.8298  -3.8236  -3.7917  -3.7361
    -3.6865  -3.6415  -3.5844  -3.5659  -3.5282  -3.4933  -3.4450  -3.3767

          k = 0.2996 0.1730 0.3111 ( 34990 PWs)   bands (ev):

   -21.1396 -20.9622 -20.9011 -20.8831 -20.8197 -20.7782 -20.6414 -20.6151
   -20.5683 -20.4759 -20.4397 -20.3250  -8.7077  -8.6560  -8.5848  -8.4851
    -8.4756  -8.3581  -8.0542  -7.9549  -7.8014  -7.7429  -7.7059  -7.6277
    -7.4145  -6.9871  -6.8445  -6.7575  -6.5465  -6.2761  -6.0229  -5.8528
    -5.6942  -5.3590  -5.2174  -4.8599  -3.9366  -3.8684  -3.8106  -3.7607
    -3.6867  -3.6542  -3.5940  -3.5677  -3.5031  -3.4678  -3.4212  -3.4036

          k = 0.4494-0.2595-0.9332 ( 34933 PWs)   bands (ev):

   -21.0462 -21.0430 -20.9425 -20.9116 -20.8121 -20.7543 -20.6702 -20.6065
   -20.5048 -20.4625 -20.4270 -20.3685  -8.7314  -8.6478  -8.6122  -8.4886
    -8.4494  -8.3401  -8.0870  -7.9126  -7.8168  -7.7688  -7.6552  -7.6343
    -7.2087  -7.1693  -6.9038  -6.7645  -6.6045  -6.3506  -5.9875  -5.7431
    -5.4616  -5.4494  -5.2618  -4.9154  -3.9413  -3.8820  -3.8530  -3.7589
    -3.7313  -3.6672  -3.5551  -3.5359  -3.5146  -3.4791  -3.4222  -3.3755

          k = 0.2996-0.3460-0.6221 ( 34968 PWs)   bands (ev):

   -21.0172 -21.0079 -20.9348 -20.9336 -20.8334 -20.8312 -20.6075 -20.6066
   -20.4939 -20.4903 -20.3988 -20.3980  -8.7438  -8.5772  -8.5506  -8.5337
    -8.5044  -8.3448  -8.0262  -7.9205  -7.8039  -7.7613  -7.6399  -7.6349
    -7.1786  -7.0634  -6.9323  -6.8137  -6.5436  -6.5080  -5.9214  -5.8553
    -5.4684  -5.4252  -5.2879  -4.9025  -4.0307  -3.8936  -3.8524  -3.7921
    -3.7510  -3.6448  -3.5895  -3.5569  -3.5424  -3.4401  -3.4262  -3.3615

          k = 0.0000 0.0000-1.8663 ( 34902 PWs)   bands (ev):

   -20.9937 -20.9861 -20.9134 -20.9134 -20.8970 -20.8970 -20.5482 -20.5482
   -20.5390 -20.5390 -20.3903 -20.3875  -8.7830  -8.5482  -8.5482  -8.5268
    -8.5268  -8.3174  -8.0653  -7.9144  -7.7268  -7.7268  -7.6943  -7.6943
    -7.0419  -6.8564  -6.8446  -6.8446  -6.8004  -6.8004  -5.7384  -5.7384
    -5.4875  -5.4875  -5.3283  -4.8566  -4.0575  -3.8932  -3.8932  -3.8181
    -3.8181  -3.6037  -3.5815  -3.5109  -3.5109  -3.4504  -3.4504  -3.3412

          k = 0.2996-0.3460 0.3111 ( 34971 PWs)   bands (ev):

   -21.1047 -20.9932 -20.9157 -20.8960 -20.8396 -20.7866 -20.6305 -20.5600
   -20.5412 -20.4868 -20.4355 -20.3595  -8.7038  -8.6413  -8.5703  -8.5233
    -8.4436  -8.4010  -8.0619  -7.9525  -7.8526  -7.7008  -7.6134  -7.6066
    -7.3892  -7.0901  -7.0213  -6.6941  -6.4748  -6.2535  -6.1059  -5.7298
    -5.5890  -5.3758  -5.2709  -4.9423  -3.9266  -3.8395  -3.8095  -3.7290
    -3.6942  -3.6572  -3.5977  -3.5933  -3.5436  -3.4655  -3.4420  -3.3691

     highest occupied level (ev):    -3.3412

!    total energy              =    -417.77659462 Ry
     estimated scf accuracy    <          2.1E-09 Ry

     The total energy is the sum of the following terms:
     one-electron contribution =    -310.78985824 Ry
     hartree contribution      =     187.88915915 Ry
     xc contribution           =    -104.19983862 Ry
     ewald contribution        =    -190.67605691 Ry

     convergence has been achieved in  15 iterations

     Forces acting on atoms (cartesian axes, Ry/au):

     atom    1 type  2   force =    -0.05821241    0.13689136    0.08058056
     atom    2 type  2   force =     0.05821241   -0.13689136   -0.08058056
     atom    3 type  2   force =    -0.08944519   -0.11885911    0.08058056
     atom    4 type  2   force =     0.08944519    0.11885911   -0.08058056
     atom    5 type  2   force =     0.14765761   -0.01803226    0.08058056
     atom    6 type  2   force =    -0.14765761    0.01803226   -0.08058056
     atom    7 type  2   force =    -0.08941685    0.06542525   -0.06001328
     atom    8 type  2   force =     0.08941685   -0.06542525    0.06001328
     atom    9 type  2   force =    -0.01195151   -0.11014989   -0.06001328
     atom   10 type  2   force =     0.01195151    0.11014989    0.06001328
     atom   11 type  2   force =     0.10136836    0.04472464   -0.06001328
     atom   12 type  2   force =    -0.10136836   -0.04472464    0.06001328
     atom   13 type  1   force =     0.03083976   -0.08362652   -0.02842337
     atom   14 type  1   force =    -0.03083976    0.08362652    0.02842337
     atom   15 type  1   force =     0.05700281    0.06852127   -0.02842337
     atom   16 type  1   force =    -0.05700281   -0.06852127    0.02842337
     atom   17 type  1   force =    -0.08784257    0.01510525   -0.02842337
     atom   18 type  1   force =     0.08784257   -0.01510525    0.02842337
     atom   19 type  1   force =     0.02671028   -0.05879437   -0.06066649
     atom   20 type  1   force =    -0.02671028    0.05879437    0.06066649
     atom   21 type  1   force =     0.03756227    0.05252897   -0.06066649
     atom   22 type  1   force =    -0.03756227   -0.05252897    0.06066649
     atom   23 type  1   force =    -0.06427256    0.00626540   -0.06066649
     atom   24 type  1   force =     0.06427256   -0.00626540    0.06066649
     atom   25 type  1   force =    -0.03398603   -0.07252774    0.01621484
     atom   26 type  1   force =     0.03398603    0.07252774   -0.01621484
     atom   27 type  1   force =     0.07980388    0.00683110    0.01621484
     atom   28 type  1   force =    -0.07980388   -0.00683110   -0.01621484
     atom   29 type  1   force =    -0.04581785    0.06569664    0.01621484
     atom   30 type  1   force =     0.04581785   -0.06569664   -0.01621484
     atom   31 type  1   force =    -0.07355080    0.02956204    0.05108606
     atom   32 type  1   force =     0.07355080   -0.02956204   -0.05108606
     atom   33 type  1   force =     0.01117392   -0.07847788    0.05108606
     atom   34 type  1   force =    -0.01117392    0.07847788   -0.05108606
     atom   35 type  1   force =     0.06237688    0.04891584    0.05108606
     atom   36 type  1   force =    -0.06237688   -0.04891584   -0.05108606

     Total force =     0.678262     Total SCF correction =     0.000032


     Computing stress (Cartesian axis) and pressure

          total   stress  (Ry/bohr**3)                   (kbar)     P=     -106.90
  -0.00080378  -0.00000000  -0.00000000         -118.24       -0.00       -0.00
   0.00000000  -0.00080378  -0.00000000            0.00     -118.24       -0.00
  -0.00000000  -0.00000000  -0.00057249           -0.00       -0.00      -84.22


     BFGS Geometry Optimization
     Energy error            =      0.0E+00 Ry
     Gradient error          =      1.5E-01 Ry/Bohr

     number of scf cycles    =   1
     number of bfgs steps    =   0

     energy             new  =    -417.7765946247 Ry

     new trust radius        =       0.1691778871 bohr
     new conv_thr            =       0.0000001000 Ry


ATOMIC_POSITIONS (crystal)
O                0.2741591096        0.0365470484        0.8596486519
O                0.7258408904        0.9634529626        0.1403513181
O                0.8596486519        0.2741591096        0.0365470484
O                0.1403513181        0.7258408904        0.9634529626
O                0.0365470484        0.8596486519        0.2741591096
O                0.9634529626        0.1403513181        0.7258408904
O                0.4682903697        0.7481083150        0.3291865543
O                0.5317096303        0.2518916850        0.6708134157
O                0.3291865543        0.4682903697        0.7481083150
O                0.6708134157        0.5317096303        0.2518916850
O                0.7481083150        0.3291865543        0.4682903697
O                0.2518916850        0.6708134157        0.5317096303
H                0.1657753989        0.0630006223        0.8083969094
H                0.8342245871        0.9369993697        0.1916030906
H                0.8083969094        0.1657753989        0.0630006223
H                0.1916030906        0.8342245871        0.9369993697
H                0.0630006223        0.8083969094        0.1657753989
H                0.9369993697        0.1916030906        0.8342245871
H                0.4104817646        0.1975248200        0.9924217527
H                0.5895182354        0.8024751950        0.0075782263
H                0.9924217527        0.4104817646        0.1975248200
H                0.0075782263        0.5895182354        0.8024751950
H                0.1975248200        0.9924217527        0.4104817646
H                0.8024751950        0.0075782263        0.5895182354
H                0.7206023813        0.3990687377        0.3992235480
H                0.2793976187        0.6009312323        0.6007764820
H                0.3992235480        0.7206023813        0.3990687377
H                0.6007764820        0.2793976187        0.6009312323
H                0.3990687377        0.3992235480        0.7206023813
H                0.6009312323        0.6007764820        0.2793976187
H                0.7415957305        0.2084064802        0.3662682773
H                0.2584042695        0.7915935048        0.6337317227
H                0.3662682773        0.7415957305        0.2084064802
H                0.6337317227        0.2584042695        0.7915935048
H                0.2084064802        0.3662682773        0.7415957305
H                0.7915935048        0.6337317227        0.2584042695



     Writing config-only to output data dir ./iceII/iceII.save/ :
     XML data file
     NEW-OLD atomic charge density approx. for the potential

     negative rho (up, down):  4.662E-07 0.000E+00

     total cpu time spent up to now is       23.2 secs

     per-process dynamical memory:    21.3 Mb

     Self-consistent Calculation

     iteration #  1     ecut=    90.00 Ry     beta= 0.70
     Davidson diagonalization with overlap
     ethr =  1.00E-06,  avg # of iterations = 10.6

     negative rho (up, down):  3.126E-07 0.000E+00

     total cpu time spent up to now is       26.2 secs

     total energy              =    -417.94464089 Ry
     estimated scf accuracy    <       0.17432143 Ry

     iteration #  2     ecut=    90.00 Ry     beta= 0.70
     Davidson diagonalization with overlap
     ethr =  1.82E-04,  avg # of iterations =  3.0

     negative rho (up, down):  2.095E-07 0.000E+00

     total cpu time spent up to now is       27.5 secs

     total energy              =    -417.99220489 Ry
     estimated scf accuracy    <       0.10149175 Ry

     iteration #  3     ecut=    90.00 Ry     beta= 0.70
     Davidson diagonalization with overlap
     ethr =  1.06E-04,  avg # of iterations =  2.0

     negative rho (up, down):  2.944E-07 0.000E+00

     total cpu time spent up to now is       28.6 secs

     total energy              =    -418.00926326 Ry
     estimated scf accuracy    <       0.00247875 Ry

     iteration #  4     ecut=    90.00 Ry     beta= 0.70
     Davidson diagonalization with overlap
     ethr =  2.58E-06,  avg # of iterations =  4.3

     negative rho (up, down):  4.059E-07 0.000E+00

     total cpu time spent up to now is       30.1 secs

     total energy              =    -418.01121899 Ry
     estimated scf accuracy    <       0.00397052 Ry

     iteration #  5     ecut=    90.00 Ry     beta= 0.70
     Davidson diagonalization with overlap
     ethr =  2.58E-06,  avg # of iterations =  2.3

     negative rho (up, down):  4.546E-07 0.000E+00

     total cpu time spent up to now is       31.3 secs

     total energy              =    -418.01182435 Ry
     estimated scf accuracy    <       0.00007435 Ry

     iteration #  6     ecut=    90.00 Ry     beta= 0.70
     Davidson diagonalization with overlap
     ethr =  7.74E-08,  avg # of iterations =  5.0

     negative rho (up, down):  4.518E-07 0.000E+00

     total cpu time spent up to now is       32.9 secs

     total energy              =    -418.01189517 Ry
     estimated scf accuracy    <       0.00019032 Ry

     iteration #  7     ecut=    90.00 Ry     beta= 0.70
     Davidson diagonalization with overlap
     ethr =  7.74E-08,  avg # of iterations =  3.0

     negative rho (up, down):  4.399E-07 0.000E+00

     total cpu time spent up to now is       34.0 secs

     total energy              =    -418.01189732 Ry
     estimated scf accuracy    <       0.00002749 Ry

     iteration #  8     ecut=    90.00 Ry     beta= 0.70
     Davidson diagonalization with overlap
     ethr =  2.86E-08,  avg # of iterations =  3.0

     negative rho (up, down):  4.402E-07 0.000E+00

     total cpu time spent up to now is       35.2 secs

     End of self-consistent calculation

          k = 0.0000 0.0000 0.0000 ( 34975 PWs)   bands (ev):

   -22.0223 -21.7656 -21.7656 -21.5985 -21.5985 -21.5746 -21.5597 -21.5583
   -21.5583 -21.3613 -21.3613 -21.1899  -9.6620  -9.5264  -9.4884  -9.4884
    -9.4513  -9.4513  -9.0413  -9.0413  -8.9620  -8.9620  -8.9571  -8.8620
    -7.5328  -6.7464  -6.7464  -6.2010  -6.2010  -6.1978  -6.1978  -5.9831
    -5.9312  -5.3542  -5.3542  -4.8182  -4.0209  -4.0209  -4.0207  -3.8500
    -3.8500  -3.8215  -3.7152  -3.6888  -3.6888  -3.6749  -3.6112  -3.6112

          k =-0.1498-0.0865 0.3111 ( 34973 PWs)   bands (ev):

   -21.9775 -21.7839 -21.7667 -21.6715 -21.6505 -21.6331 -21.5262 -21.5006
   -21.4744 -21.3670 -21.3438 -21.2213  -9.6346  -9.5384  -9.5082  -9.5048
    -9.4476  -9.4131  -9.0458  -9.0267  -8.9754  -8.9295  -8.9239  -8.8906
    -7.4033  -6.8551  -6.7787  -6.4871  -6.2893  -6.1417  -6.0543  -5.8827
    -5.8291  -5.3553  -5.2918  -4.9165  -4.0962  -4.0440  -4.0116  -3.8796
    -3.8648  -3.8497  -3.7908  -3.7246  -3.6697  -3.6360  -3.6094  -3.5727

          k = 0.2996 0.1730-0.6221 ( 35000 PWs)   bands (ev):

   -21.8870 -21.8354 -21.7866 -21.7132 -21.6857 -21.6596 -21.5049 -21.4694
   -21.4101 -21.3637 -21.3284 -21.2755  -9.5885  -9.5668  -9.5310  -9.4949
    -9.4475  -9.4009  -9.0360  -9.0139  -8.9612  -8.9517  -8.8992  -8.8904
    -7.1582  -7.0320  -6.8278  -6.6582  -6.3097  -6.2187  -5.9974  -5.8504
    -5.5516  -5.4145  -5.2408  -5.0534  -4.1614  -4.0550  -3.9898  -3.9437
    -3.8964  -3.8816  -3.7818  -3.7378  -3.7302  -3.6036  -3.5938  -3.5382

          k =-0.1498 0.0865 0.6221 ( 34966 PWs)   bands (ev):

   -21.8947 -21.8084 -21.8008 -21.7155 -21.6900 -21.6648 -21.4939 -21.4615
   -21.4239 -21.3546 -21.3397 -21.2716  -9.5897  -9.5585  -9.5465  -9.4772
    -9.4573  -9.4000  -9.0337  -9.0167  -8.9767  -8.9257  -8.9068  -8.8928
    -7.1837  -6.9440  -6.9241  -6.5577  -6.3914  -6.2629  -5.9360  -5.7954
    -5.6506  -5.3221  -5.2924  -5.0543  -4.1465  -4.0835  -3.9782  -3.9458
    -3.9046  -3.8379  -3.8180  -3.7455  -3.7100  -3.6058  -3.6009  -3.5343

          k = 0.2996 0.3460-0.3111 ( 34971 PWs)   bands (ev):

   -21.9204 -21.8398 -21.7780 -21.7054 -21.6707 -21.6445 -21.4938 -21.4797
   -21.4303 -21.3624 -21.3315 -21.2598  -9.6072  -9.5778  -9.5200  -9.4865
    -9.4498  -9.3942  -9.0758  -9.0543  -9.0010  -8.9143  -8.8889  -8.8797
    -7.2018  -6.9807  -6.7842  -6.5934  -6.5196  -6.1717  -5.8885  -5.7989
    -5.6159  -5.4152  -5.2673  -5.0280  -4.0993  -4.0463  -3.9996  -3.9460
    -3.8609  -3.8232  -3.7850  -3.7589  -3.6928  -3.6419  -3.6055  -3.5220

          k = 0.1498 0.2595 0.0000 ( 34959 PWs)   bands (ev):

   -21.9900 -21.8064 -21.7743 -21.6595 -21.6270 -21.5743 -21.5632 -21.5047
   -21.4928 -21.3655 -21.3417 -21.2141  -9.6459  -9.5508  -9.5072  -9.5036
    -9.4291  -9.4171  -9.0901  -9.0628  -8.9668  -8.9535  -8.9165  -8.8634
    -7.4093  -6.8238  -6.7352  -6.5154  -6.4099  -6.1119  -5.9863  -5.8439
    -5.7934  -5.3941  -5.3250  -4.8877  -4.0305  -4.0155  -4.0131  -3.9048
    -3.8507  -3.8240  -3.7316  -3.7127  -3.7055  -3.6669  -3.5858  -3.5758

          k = 0.2996-0.1730-1.2442 ( 34958 PWs)   bands (ev):

   -21.9077 -21.9014 -21.7822 -21.6856 -21.6387 -21.5771 -21.5515 -21.4867
   -21.4536 -21.3717 -21.2935 -21.2636  -9.6126  -9.5928  -9.5140  -9.5092
    -9.4138  -9.3966  -9.1226  -9.0818  -8.9739  -8.9485  -8.8798  -8.8739
    -7.1201  -7.0911  -6.7431  -6.6727  -6.3656  -6.2285  -5.9038  -5.7377
    -5.6148  -5.5039  -5.1989  -5.0328  -4.0385  -4.0099  -4.0078  -3.9475
    -3.8555  -3.7978  -3.7721  -3.7421  -3.7004  -3.6638  -3.5626  -3.5545

          k = 0.0000 0.0000 0.9332 ( 34954 PWs)   bands (ev):

   -21.8530 -21.8530 -21.8492 -21.7108 -21.6633 -21.6633 -21.4578 -21.4578
   -21.4438 -21.3306 -21.3306 -21.3028  -9.5852  -9.5852  -9.5520  -9.4445
    -9.4445  -9.4276  -9.0857  -9.0406  -9.0406  -8.8839  -8.8839  -8.8723
    -7.0170  -7.0095  -7.0095  -6.5917  -6.3870  -6.3870  -5.7302  -5.6863
    -5.6863  -5.3050  -5.3050  -5.1664  -4.0614  -4.0614  -3.9895  -3.9467
    -3.8411  -3.8411  -3.8100  -3.7366  -3.7366  -3.6259  -3.6259  -3.5018

          k = 0.4494 0.2595 0.0000 ( 34942 PWs)   bands (ev):

   -21.9310 -21.8429 -21.8313 -21.6630 -21.6351 -21.6020 -21.5241 -21.5015
   -21.4619 -21.3451 -21.3202 -21.2553  -9.6176  -9.5751  -9.5500  -9.4736
    -9.4365  -9.3865  -9.1305  -9.0586  -9.0104  -8.9129  -8.8956  -8.8720
    -7.1989  -6.9296  -6.8631  -6.6267  -6.3937  -6.2019  -5.8595  -5.8225
    -5.6447  -5.3758  -5.2803  -5.0165  -4.0318  -4.0171  -4.0033  -3.9509
    -3.8640  -3.8061  -3.7681  -3.7329  -3.6931  -3.6474  -3.5972  -3.5401

          k = 0.2996 0.1730 0.3111 ( 34990 PWs)   bands (ev):

   -21.9485 -21.8146 -21.7651 -21.7047 -21.6569 -21.6274 -21.5249 -21.5005
   -21.4293 -21.3809 -21.3255 -21.2381  -9.6214  -9.5553  -9.5251  -9.4947
    -9.4562  -9.3794  -9.0871  -9.0137  -8.9716  -8.9544  -8.9035  -8.8906
    -7.2931  -6.8806  -6.7536  -6.6220  -6.4209  -6.1622  -5.9919  -5.8377
    -5.6675  -5.4034  -5.2721  -4.9464  -4.1131  -4.0507  -4.0154  -3.9251
    -3.8848  -3.8304  -3.7805  -3.7285  -3.6611  -3.6400  -3.5845  -3.5686

          k = 0.4494-0.2595-0.9332 ( 34933 PWs)   bands (ev):

   -21.8848 -21.8657 -21.7949 -21.7142 -21.6611 -21.6234 -21.5283 -21.4932
   -21.4005 -21.3674 -21.3237 -21.2590  -9.5941  -9.5813  -9.5432  -9.4877
    -9.4532  -9.3573  -9.1119  -9.0219  -8.9696  -8.9602  -8.8962  -8.8897
    -7.0949  -6.9747  -6.7618  -6.7360  -6.4798  -6.2047  -5.9840  -5.7706
    -5.4756  -5.4540  -5.2981  -4.9861  -4.1219  -4.0612  -4.0319  -3.9367
    -3.8969  -3.8662  -3.7390  -3.7049  -3.6789  -3.6397  -3.5865  -3.5494

          k = 0.2996-0.3460-0.6221 ( 34968 PWs)   bands (ev):

   -21.8752 -21.8143 -21.7932 -21.7437 -21.6847 -21.6707 -21.4983 -21.4783
   -21.3828 -21.3656 -21.3464 -21.2660  -9.5972  -9.5473  -9.5300  -9.4964
    -9.4814  -9.3616  -9.0508  -9.0179  -8.9534  -8.9471  -8.9095  -8.9047
    -7.0896  -6.9478  -6.8165  -6.7423  -6.3983  -6.3535  -5.8781  -5.8102
    -5.4783  -5.4338  -5.3328  -4.9886  -4.1854  -4.0658  -4.0341  -3.9570
    -3.9335  -3.8031  -3.7882  -3.7339  -3.7132  -3.6023  -3.5953  -3.5314

          k = 0.0000 0.0000-1.8663 ( 34902 PWs)   bands (ev):

   -21.8657 -21.7866 -21.7866 -21.7523 -21.7079 -21.7079 -21.4743 -21.4743
   -21.3739 -21.3739 -21.3577 -21.2578  -9.6015  -9.5292  -9.5292  -9.5006
    -9.5006  -9.3366  -9.0634  -9.0231  -8.9388  -8.9388  -8.9251  -8.9251
    -7.0406  -6.8756  -6.6954  -6.6954  -6.5853  -6.5853  -5.7417  -5.7417
    -5.4811  -5.4811  -5.3585  -4.9448  -4.2094  -4.0619  -4.0619  -3.9745
    -3.9745  -3.8131  -3.7494  -3.6811  -3.6811  -3.6248  -3.6248  -3.5176

          k = 0.2996-0.3460 0.3111 ( 34971 PWs)   bands (ev):

   -21.9214 -21.8324 -21.7883 -21.7075 -21.6601 -21.6460 -21.5083 -21.4694
   -21.4245 -21.3744 -21.3224 -21.2617  -9.6119  -9.5634  -9.5278  -9.4997
    -9.4313  -9.4012  -9.0823  -9.0498  -8.9981  -8.9113  -8.8951  -8.8776
    -7.2090  -6.9125  -6.8757  -6.6183  -6.4062  -6.2192  -5.9845  -5.7056
    -5.5957  -5.4197  -5.3009  -5.0180  -4.1010  -4.0422  -4.0057  -3.9350
    -3.8602  -3.8276  -3.7774  -3.7750  -3.7027  -3.6183  -3.6085  -3.5278

     highest occupied level (ev):    -3.5018

!    total energy              =    -418.01190587 Ry
     estimated scf accuracy    <       0.00000005 Ry

     The total energy is the sum of the following terms:
     one-electron contribution =    -326.51480394 Ry
     hartree contribution      =     195.03153248 Ry
     xc contribution           =    -105.84768057 Ry
     ewald contribution        =    -180.68095383 Ry

     convergence has been achieved in   8 iterations

     Forces acting on atoms (cartesian axes, Ry/au):

     atom    1 type  2   force =    -0.00064363   -0.00909170   -0.00882148
     atom    2 type  2   force =     0.00064363    0.00909170    0.00882148
     atom    3 type  2   force =     0.00819546    0.00398845   -0.00882148
     atom    4 type  2   force =    -0.00819546   -0.00398845    0.00882148
     atom    5 type  2   force =    -0.00755183    0.00510325   -0.00882148
     atom    6 type  2   force =     0.00755183   -0.00510325    0.00882148
     atom    7 type  2   force =     0.00973338   -0.01071535    0.00571326
     atom    8 type  2   force =    -0.00973338    0.01071535   -0.00571326
     atom    9 type  2   force =     0.00441307    0.01378703    0.00571326
     atom   10 type  2   force =    -0.00441307   -0.01378703   -0.00571326
     atom   11 type  2   force =    -0.01414645   -0.00307168    0.00571326
     atom   12 type  2   force =     0.01414645    0.00307168   -0.00571326
     atom   13 type  1   force =    -0.01463040    0.01932136   -0.03678461
     atom   14 type  1   force =     0.01463040   -0.01932136    0.03678461
     atom   15 type  1   force =    -0.00941759   -0.02233098   -0.03678461
     atom   16 type  1   force =     0.00941759    0.02233098    0.03678461
     atom   17 type  1   force =     0.02404799    0.00300962   -0.03678461
     atom   18 type  1   force =    -0.02404799   -0.00300962    0.03678461
     atom   19 type  1   force =     0.01760551   -0.01316566    0.04087580
     atom   20 type  1   force =    -0.01760551    0.01316566   -0.04087580
     atom   21 type  1   force =     0.00259904    0.02182965    0.04087580
     atom   22 type  1   force =    -0.00259904   -0.02182965   -0.04087580
     atom   23 type  1   force =    -0.02020455   -0.00866399    0.04087580
     atom   24 type  1   force =     0.02020455    0.00866399   -0.04087580
     atom   25 type  1   force =     0.00847639    0.01133265    0.00022790
     atom   26 type  1   force =    -0.00847639   -0.01133265   -0.00022790
     atom   27 type  1   force =    -0.01405255    0.00167445    0.00022790
     atom   28 type  1   force =     0.01405255   -0.00167445   -0.00022790
     atom   29 type  1   force =     0.00557617   -0.01300709    0.00022790
     atom   30 type  1   force =    -0.00557617    0.01300709   -0.00022790
     atom   31 type  1   force =     0.00347950   -0.00679314   -0.00398031
     atom   32 type  1   force =    -0.00347950    0.00679314    0.00398031
     atom   33 type  1   force =     0.00414328    0.00640991   -0.00398031
     atom   34 type  1   force =    -0.00414328   -0.00640991    0.00398031
     atom   35 type  1   force =    -0.00762279    0.00038323   -0.00398031
     atom   36 type  1   force =     0.00762279   -0.00038323    0.00398031

     Total force =     0.169212     Total SCF correction =     0.000172


     Computing stress (Cartesian axis) and pressure

          total   stress  (Ry/bohr**3)                   (kbar)     P=        4.29
  -0.00002837   0.00000000  -0.00000000           -4.17        0.00       -0.00
  -0.00000000  -0.00002837  -0.00000000           -0.00       -4.17       -0.00
   0.00000000  -0.00000000   0.00014427            0.00       -0.00       21.22

     Energy error            =      2.4E-01 Ry
     Gradient error          =      4.1E-02 Ry/Bohr

     number of scf cycles    =   2
     number of bfgs steps    =   1

     energy             old  =    -417.7765946247 Ry
     energy             new  =    -418.0119058676 Ry

     CASE: energy            _new < energy            _old

     new trust radius        =       0.0411236814 bohr
     new conv_thr            =       0.0000000409 Ry


ATOMIC_POSITIONS (crystal)
O                0.2737289003        0.0360733496        0.8594546001
O                0.7262710997        0.9639266614        0.1405453699
O                0.8594546001        0.2737289003        0.0360733496
O                0.1405453699        0.7262710997        0.9639266614
O                0.0360733496        0.8594546001        0.2737289003
O                0.9639266614        0.1405453699        0.7262710997
O                0.4688487764        0.7480099114        0.3293576335
O                0.5311512236        0.2519900886        0.6706423365
O                0.3293576335        0.4688487764        0.7480099114
O                0.6706423365        0.5311512236        0.2519900886
O                0.7480099114        0.3293576335        0.4688487764
O                0.2519900886        0.6706423365        0.5311512236
H                0.1622350446        0.0608541660        0.8057787905
H                0.8377649414        0.9391458260        0.1942212095
H                0.8057787905        0.1622350446        0.0608541660
H                0.1942212095        0.8377649414        0.9391458260
H                0.0608541660        0.8057787905        0.1622350446
H                0.9391458260        0.1942212095        0.8377649414
H                0.4142247913        0.1996433754        0.9948454581
H                0.5857752087        0.8003566396        0.0051545209
H                0.9948454581        0.4142247913        0.1996433754
H                0.0051545209        0.5857752087        0.8003566396
H                0.1996433754        0.9948454581        0.4142247913
H                0.8003566396        0.0051545209        0.5857752087
H                0.7207547801        0.3994607902        0.3988945553
H                0.2792452199        0.6005391798        0.6011054747
H                0.3988945553        0.7207547801        0.3994607902
H                0.6011054747        0.2792452199        0.6005391798
H                0.3994607902        0.3988945553        0.7207547801
H                0.6005391798        0.6011054747        0.2792452199
H                0.7415909209        0.2080732113        0.3662615462
H                0.2584090791        0.7919267737        0.6337384538
H                0.3662615462        0.7415909209        0.2080732113
H                0.6337384538        0.2584090791        0.7919267737
H                0.2080732113        0.3662615462        0.7415909209
H                0.7919267737        0.6337384538        0.2584090791



     Writing config-only to output data dir ./iceII/iceII.save/ :
     XML data file
     NEW-OLD atomic charge density approx. for the potential

     negative rho (up, down):  4.615E-07 0.000E+00

     total cpu time spent up to now is       37.0 secs

     per-process dynamical memory:    21.3 Mb

     Self-consistent Calculation

     iteration #  1     ecut=    90.00 Ry     beta= 0.70
     Davidson diagonalization with overlap
     ethr =  1.00E-06,  avg # of iterations =  4.5

     negative rho (up, down):  4.008E-07 0.000E+00

     total cpu time spent up to now is       38.6 secs

     total energy              =    -418.02712765 Ry
     estimated scf accuracy    <       0.00262210 Ry

     iteration #  2     ecut=    90.00 Ry     beta= 0.70
     Davidson diagonalization with overlap
     ethr =  2.73E-06,  avg # of iterations =  3.0

     negative rho (up, down):  4.319E-07 0.000E+00

     total cpu time spent up to now is       39.9 secs

     total energy              =    -418.02780850 Ry
     estimated scf accuracy    <       0.00130060 Ry

     iteration #  3     ecut=    90.00 Ry     beta= 0.70
     Davidson diagonalization with overlap
     ethr =  1.35E-06,  avg # of iterations =  2.0

     negative rho (up, down):  4.575E-07 0.000E+00

     total cpu time spent up to now is       41.0 secs

     total energy              =    -418.02803096 Ry
     estimated scf accuracy    <       0.00003495 Ry

     iteration #  4     ecut=    90.00 Ry     beta= 0.70
     Davidson diagonalization with overlap
     ethr =  3.64E-08,  avg # of iterations =  4.4

     negative rho (up, down):  4.513E-07 0.000E+00

     total cpu time spent up to now is       42.5 secs

     total energy              =    -418.02805903 Ry
     estimated scf accuracy    <       0.00005100 Ry

     iteration #  5     ecut=    90.00 Ry     beta= 0.70
     Davidson diagonalization with overlap
     ethr =  3.64E-08,  avg # of iterations =  2.0

     negative rho (up, down):  4.445E-07 0.000E+00

     total cpu time spent up to now is       43.5 secs

     total energy              =    -418.02805832 Ry
     estimated scf accuracy    <       0.00000946 Ry

     iteration #  6     ecut=    90.00 Ry     beta= 0.70
     Davidson diagonalization with overlap
     ethr =  9.85E-09,  avg # of iterations =  3.1

     negative rho (up, down):  4.462E-07 0.000E+00

     total cpu time spent up to now is       44.8 secs

     total energy              =    -418.02806212 Ry
     estimated scf accuracy    <       0.00000184 Ry

     iteration #  7     ecut=    90.00 Ry     beta= 0.70
     Davidson diagonalization with overlap
     ethr =  1.92E-09,  avg # of iterations =  2.0

     negative rho (up, down):  4.474E-07 0.000E+00

     total cpu time spent up to now is       45.8 secs

     total energy              =    -418.02806218 Ry
     estimated scf accuracy    <       0.00000035 Ry

     iteration #  8     ecut=    90.00 Ry     beta= 0.70
     Davidson diagonalization with overlap
     ethr =  3.62E-10,  avg # of iterations =  2.1

     negative rho (up, down):  4.482E-07 0.000E+00

     total cpu time spent up to now is       46.8 secs

     End of self-consistent calculation

          k = 0.0000 0.0000 0.0000 ( 34975 PWs)   bands (ev):

   -21.8840 -21.5982 -21.5982 -21.4500 -21.4500 -21.4392 -21.4392 -21.4295
   -21.4156 -21.2328 -21.2328 -21.0552  -9.5986  -9.4654  -9.4251  -9.4251
    -9.3886  -9.3886  -8.9659  -8.9659  -8.8796  -8.8726  -8.8726  -8.7693
    -7.5069  -6.6577  -6.6577  -6.2073  -6.2073  -6.1224  -6.1224  -5.8956
    -5.8844  -5.3153  -5.3153  -4.7730  -4.0096  -4.0096  -3.9731  -3.8090
    -3.8090  -3.7768  -3.7003  -3.6582  -3.6339  -3.6339  -3.5957  -3.5957

          k =-0.1498-0.0865 0.3111 ( 34973 PWs)   bands (ev):

   -21.8366 -21.6216 -21.5915 -21.5430 -21.5259 -21.4819 -21.3908 -21.3623
   -21.3315 -21.2385 -21.2147 -21.0892  -9.5714  -9.4759  -9.4471  -9.4421
    -9.3853  -9.3503  -8.9672  -8.9496  -8.8870  -8.8461  -8.8349  -8.8018
    -7.3677  -6.7864  -6.6970  -6.4493  -6.2959  -6.0797  -5.9788  -5.8328
    -5.7492  -5.3145  -5.2542  -4.8823  -4.0808  -4.0319  -3.9689  -3.8414
    -3.8334  -3.8087  -3.7733  -3.6811  -3.6453  -3.5917  -3.5865  -3.5454

          k = 0.2996 0.1730-0.6221 ( 35000 PWs)   bands (ev):

   -21.7265 -21.7022 -21.6115 -21.5932 -21.5368 -21.5202 -21.3599 -21.3379
   -21.2637 -21.2317 -21.1860 -21.1610  -9.5257  -9.5041  -9.4687  -9.4340
    -9.3867  -9.3374  -8.9530  -8.9298  -8.8779  -8.8688  -8.8101  -8.8014
    -7.0897  -6.9933  -6.7536  -6.6407  -6.2797  -6.2073  -5.8913  -5.7632
    -5.4687  -5.3786  -5.2082  -5.0443  -4.1451  -4.0431  -3.9670  -3.8911
    -3.8625  -3.8504  -3.7548  -3.7255  -3.6868  -3.5755  -3.5499  -3.5086

          k =-0.1498 0.0865 0.6221 ( 34966 PWs)   bands (ev):

   -21.7431 -21.6547 -21.6480 -21.5758 -21.5579 -21.5187 -21.3575 -21.3102
   -21.2877 -21.2203 -21.2067 -21.1502  -9.5269  -9.4960  -9.4841  -9.4178
    -9.3946  -9.3370  -8.9508  -8.9326  -8.8956  -8.8395  -8.8189  -8.8038
    -7.1220  -6.8919  -6.8727  -6.5186  -6.3686  -6.2346  -5.8516  -5.6924
    -5.5833  -5.2830  -5.2566  -5.0452  -4.1323  -4.0661  -3.9573  -3.8901
    -3.8750  -3.8097  -3.7929  -3.7083  -3.6878  -3.5790  -3.5557  -3.5034

          k = 0.2996 0.3460-0.3111 ( 34971 PWs)   bands (ev):

   -21.7752 -21.6753 -21.6250 -21.5805 -21.5363 -21.4945 -21.3660 -21.3161
   -21.2660 -21.2600 -21.1963 -21.1362  -9.5441  -9.5152  -9.4579  -9.4233
    -9.3888  -9.3318  -9.0014  -8.9762  -8.9157  -8.8269  -8.7999  -8.7887
    -7.1587  -6.9138  -6.7170  -6.5522  -6.5107  -6.1218  -5.7801  -5.7262
    -5.5736  -5.3708  -5.2337  -5.0093  -4.0820  -4.0267  -3.9736  -3.9025
    -3.8218  -3.7901  -3.7509  -3.7302  -3.6783  -3.6170  -3.5582  -3.4909

          k = 0.1498 0.2595 0.0000 ( 34959 PWs)   bands (ev):

   -21.8496 -21.6446 -21.6105 -21.5203 -21.4992 -21.4491 -21.4097 -21.3647
   -21.3372 -21.2406 -21.2171 -21.0819  -9.5824  -9.4887  -9.4444  -9.4405
    -9.3665  -9.3549  -9.0183  -8.9865  -8.8833  -8.8650  -8.8297  -8.7711
    -7.3789  -6.7378  -6.6589  -6.4854  -6.3897  -6.0493  -5.9155  -5.7758
    -5.7468  -5.3578  -5.2922  -4.8474  -4.0084  -3.9998  -3.9829  -3.8630
    -3.8075  -3.7793  -3.7077  -3.6961  -3.6669  -3.6362  -3.5557  -3.5465

          k = 0.2996-0.1730-1.2442 ( 34958 PWs)   bands (ev):

   -21.7653 -21.7484 -21.6206 -21.5508 -21.5003 -21.4625 -21.3786 -21.3513
   -21.2847 -21.2588 -21.1609 -21.1421  -9.5493  -9.5297  -9.4507  -9.4470
    -9.3513  -9.3351  -9.0532  -9.0052  -8.8908  -8.8603  -8.7904  -8.7820
    -7.0644  -7.0542  -6.6739  -6.6361  -6.3319  -6.1532  -5.8152  -5.6862
    -5.5276  -5.5036  -5.1537  -5.0113  -4.0110  -3.9908  -3.9863  -3.9063
    -3.8097  -3.7569  -3.7428  -3.7183  -3.6740  -3.6426  -3.5325  -3.5160

          k = 0.0000 0.0000 0.9332 ( 34954 PWs)   bands (ev):

   -21.7052 -21.7052 -21.6747 -21.6121 -21.5143 -21.5143 -21.3197 -21.3197
   -21.2569 -21.2027 -21.2027 -21.1998  -9.5225  -9.5225  -9.4893  -9.3810
    -9.3810  -9.3687  -9.0132  -8.9592  -8.9592  -8.7952  -8.7952  -8.7789
    -6.9673  -6.9673  -6.9180  -6.6136  -6.3321  -6.3321  -5.6116  -5.6116
    -5.5986  -5.2797  -5.2797  -5.1736  -4.0420  -4.0420  -3.9613  -3.9187
    -3.7987  -3.7987  -3.7727  -3.7161  -3.7161  -3.5906  -3.5906  -3.4709

          k = 0.4494 0.2595 0.0000 ( 34942 PWs)   bands (ev):

   -21.7864 -21.6831 -21.6810 -21.5505 -21.4721 -21.4583 -21.3857 -21.3722
   -21.2879 -21.2215 -21.1964 -21.1292  -9.5541  -9.5122  -9.4870  -9.4108
    -9.3738  -9.3252  -9.0611  -8.9809  -8.9286  -8.8220  -8.8080  -8.7807
    -7.1580  -6.8572  -6.8126  -6.6150  -6.3259  -6.1213  -5.8069  -5.7763
    -5.5540  -5.3468  -5.2486  -4.9891  -4.0002  -3.9988  -3.9859  -3.9079
    -3.8228  -3.7727  -3.7311  -3.7076  -3.6618  -3.6250  -3.5722  -3.5008

          k = 0.2996 0.1730 0.3111 ( 34990 PWs)   bands (ev):

   -21.8050 -21.6511 -21.5970 -21.5834 -21.5184 -21.4915 -21.3710 -21.3587
   -21.3025 -21.2411 -21.1985 -21.1094  -9.5582  -9.4924  -9.4630  -9.4323
    -9.3947  -9.3166  -9.0128  -8.9344  -8.8830  -8.8695  -8.8157  -8.8015
    -7.2536  -6.8080  -6.7106  -6.5434  -6.4160  -6.1107  -5.9037  -5.7687
    -5.6402  -5.3428  -5.2367  -4.9181  -4.0991  -4.0262  -3.9855  -3.8872
    -3.8410  -3.7967  -3.7522  -3.7025  -3.6473  -3.6120  -3.5514  -3.5226

          k = 0.4494-0.2595-0.9332 ( 34933 PWs)   bands (ev):

   -21.7259 -21.7205 -21.6372 -21.5973 -21.5151 -21.4731 -21.3925 -21.3455
   -21.2543 -21.2339 -21.1954 -21.1366  -9.5312  -9.5180  -9.4802  -9.4258
    -9.3918  -9.2947  -9.0398  -8.9416  -8.8837  -8.8735  -8.8077  -8.8005
    -7.0368  -6.9321  -6.7350  -6.6697  -6.4285  -6.1222  -5.9360  -5.7184
    -5.4367  -5.3763  -5.2615  -4.9667  -4.1081  -4.0317  -4.0053  -3.8939
    -3.8577  -3.8295  -3.7146  -3.6808  -3.6657  -3.6198  -3.5541  -3.4939

          k = 0.2996-0.3460-0.6221 ( 34968 PWs)   bands (ev):

   -21.7066 -21.6798 -21.6280 -21.6220 -21.5405 -21.5323 -21.3480 -21.3366
   -21.2525 -21.2424 -21.1932 -21.1486  -9.5342  -9.4845  -9.4671  -9.4354
    -9.4203  -9.2990  -8.9703  -8.9348  -8.8687  -8.8627  -8.8211  -8.8166
    -7.0119  -6.9225  -6.7511  -6.7074  -6.3522  -6.3221  -5.7893  -5.7321
    -5.4426  -5.4025  -5.2604  -4.9801  -4.1709  -4.0438  -4.0084  -3.9145
    -3.8893  -3.7875  -3.7504  -3.7087  -3.6960  -3.5779  -3.5622  -3.4806

          k = 0.0000 0.0000-1.8663 ( 34902 PWs)   bands (ev):

   -21.6852 -21.6551 -21.6243 -21.6243 -21.5766 -21.5766 -21.3061 -21.3061
   -21.2743 -21.2743 -21.1906 -21.1370  -9.5384  -9.4661  -9.4661  -9.4394
    -9.4394  -9.2745  -8.9847  -8.9413  -8.8514  -8.8514  -8.8391  -8.8391
    -6.9546  -6.8828  -6.5985  -6.5985  -6.5713  -6.5713  -5.6480  -5.6480
    -5.4880  -5.4880  -5.2437  -4.9364  -4.1933  -4.0367  -4.0367  -3.9334
    -3.9334  -3.7578  -3.7514  -3.6690  -3.6690  -3.5912  -3.5912  -3.4584

          k = 0.2996-0.3460 0.3111 ( 34971 PWs)   bands (ev):

   -21.7746 -21.6808 -21.6097 -21.5918 -21.5351 -21.4959 -21.3618 -21.3136
   -21.2905 -21.2353 -21.2024 -21.1360  -9.5489  -9.5007  -9.4651  -9.4373
    -9.3712  -9.3377  -9.0080  -8.9715  -8.9129  -8.8239  -8.8064  -8.7865
    -7.1635  -6.8658  -6.7969  -6.5688  -6.4131  -6.1619  -5.8842  -5.6277
    -5.5200  -5.3993  -5.2699  -4.9967  -4.0857  -4.0124  -3.9876  -3.8918
    -3.8221  -3.7937  -3.7524  -3.7305  -3.6943  -3.5968  -3.5587  -3.4961

     highest occupied level (ev):    -3.4584

!    total energy              =    -418.02806221 Ry
     estimated scf accuracy    <       0.00000003 Ry

     The total energy is the sum of the following terms:
     one-electron contribution =    -324.11965441 Ry
     hartree contribution      =     193.94947645 Ry
     xc contribution           =    -105.63040894 Ry
     ewald contribution        =    -182.22747530 Ry

     convergence has been achieved in   8 iterations

     Forces acting on atoms (cartesian axes, Ry/au):

     atom    1 type  2   force =    -0.00629208    0.01099430    0.01208216
     atom    2 type  2   force =     0.00629208   -0.01099430   -0.01208216
     atom    3 type  2   force =    -0.00637530   -0.01094625    0.01208216
     atom    4 type  2   force =     0.00637530    0.01094625   -0.01208216
     atom    5 type  2   force =     0.01266738   -0.00004805    0.01208216
     atom    6 type  2   force =    -0.01266738    0.00004805   -0.01208216
     atom    7 type  2   force =     0.00095874   -0.00553099    0.00050145
     atom    8 type  2   force =    -0.00095874    0.00553099   -0.00050145
     atom    9 type  2   force =     0.00431061    0.00359579    0.00050145
     atom   10 type  2   force =    -0.00431061   -0.00359579   -0.00050145
     atom   11 type  2   force =    -0.00526935    0.00193520    0.00050145
     atom   12 type  2   force =     0.00526935   -0.00193520   -0.00050145
     atom   13 type  1   force =    -0.00498785   -0.00062141   -0.02165423
     atom   14 type  1   force =     0.00498785    0.00062141    0.02165423
     atom   15 type  1   force =     0.00303208   -0.00400890   -0.02165423
     atom   16 type  1   force =    -0.00303208    0.00400890    0.02165423
     atom   17 type  1   force =     0.00195577    0.00463031   -0.02165423
     atom   18 type  1   force =    -0.00195577   -0.00463031    0.02165423
     atom   19 type  1   force =     0.01341106   -0.01340127    0.00502991
     atom   20 type  1   force =    -0.01341106    0.01340127   -0.00502991
     atom   21 type  1   force =     0.00490031    0.01831496    0.00502991
     atom   22 type  1   force =    -0.00490031   -0.01831496   -0.00502991
     atom   23 type  1   force =    -0.01831137   -0.00491369    0.00502991
     atom   24 type  1   force =     0.01831137    0.00491369   -0.00502991
     atom   25 type  1   force =     0.00457608    0.00196933    0.00162159
     atom   26 type  1   force =    -0.00457608   -0.00196933   -0.00162159
     atom   27 type  1   force =    -0.00399353    0.00297834    0.00162159
     atom   28 type  1   force =     0.00399353   -0.00297834   -0.00162159
     atom   29 type  1   force =    -0.00058255   -0.00494767    0.00162159
     atom   30 type  1   force =     0.00058255    0.00494767   -0.00162159
     atom   31 type  1   force =    -0.00189489   -0.00316934    0.00024584
     atom   32 type  1   force =     0.00189489    0.00316934   -0.00024584
     atom   33 type  1   force =     0.00369217   -0.00005635    0.00024584
     atom   34 type  1   force =    -0.00369217    0.00005635   -0.00024584
     atom   35 type  1   force =    -0.00179729    0.00322569    0.00024584
     atom   36 type  1   force =     0.00179729   -0.00322569   -0.00024584

     Total force =     0.086889     Total SCF correction =     0.000149


     Computing stress (Cartesian axis) and pressure

          total   stress  (Ry/bohr**3)                   (kbar)     P=      -13.76
  -0.00011810  -0.00000000  -0.00000000          -17.37       -0.00       -0.00
   0.00000000  -0.00011810  -0.00000000            0.00      -17.37       -0.00
  -0.00000000  -0.00000000  -0.00004434           -0.00       -0.00       -6.52

     Energy error            =      1.6E-02 Ry
     Gradient error          =      2.2E-02 Ry/Bohr

     number of scf cycles    =   3
     number of bfgs steps    =   2

     energy             old  =    -418.0119058676 Ry
     energy             new  =    -418.0280622069 Ry

     CASE: energy            _new < energy            _old

     new trust radius        =       0.0577815914 bohr
     new conv_thr            =       0.0000000217 Ry


ATOMIC_POSITIONS (crystal)
O                0.2742545631        0.0384732376        0.8610299496
O                0.7257454369        0.9615267734        0.1389700204
O                0.8610299496        0.2742545631        0.0384732376
O                0.1389700204        0.7257454369        0.9615267734
O                0.0384732376        0.8610299496        0.2742545631
O                0.9615267734        0.1389700204        0.7257454369
O                0.4691826626        0.7475656959        0.3295667184
O                0.5308173374        0.2524343041        0.6704332516
O                0.3295667184        0.4691826626        0.7475656959
O                0.6704332516        0.5308173374        0.2524343041
O                0.7475656959        0.3295667184        0.4691826626
O                0.2524343041        0.6704332516        0.5308173374
H                0.1571153166        0.0565968829        0.8017439178
H                0.8428846694        0.9434031091        0.1982560822
H                0.8017439178        0.1571153166        0.0565968829
H                0.1982560822        0.8428846694        0.9434031091
H                0.0565968829        0.8017439178        0.1571153166
H                0.9434031091        0.1982560822        0.8428846694
H                0.4183265642        0.2003857549        0.9964595134
H                0.5816734358        0.7996142601        0.0035404656
H                0.9964595134        0.4183265642        0.2003857549
H                0.0035404656        0.5816734358        0.7996142601
H                0.2003857549        0.9964595134        0.4183265642
H                0.7996142601        0.0035404656        0.5816734358
H                0.7213103697        0.3999760531        0.3986915846
H                0.2786896303        0.6000239169        0.6013084454
H                0.3986915846        0.7213103697        0.3999760531
H                0.6013084454        0.2786896303        0.6000239169
H                0.3999760531        0.3986915846        0.7213103697
H                0.6000239169        0.6013084454        0.2786896303
H                0.7416344101        0.2078581660        0.3667187212
H                0.2583655899        0.7921418190        0.6332812788
H                0.3667187212        0.7416344101        0.2078581660
H                0.6332812788        0.2583655899        0.7921418190
H                0.2078581660        0.3667187212        0.7416344101
H                0.7921418190        0.6332812788        0.2583655899



     Writing config-only to output data dir ./iceII/iceII.save/ :
     XML data file
     NEW-OLD atomic charge density approx. for the potential

     negative rho (up, down):  4.809E-07 0.000E+00

     total cpu time spent up to now is       48.7 secs

     per-process dynamical memory:    21.3 Mb

     Self-consistent Calculation

     iteration #  1     ecut=    90.00 Ry     beta= 0.70
     Davidson diagonalization with overlap
     ethr =  1.00E-06,  avg # of iterations =  7.0

     negative rho (up, down):  7.146E-07 0.000E+00

     total cpu time spent up to now is       50.5 secs

     total energy              =    -418.03837695 Ry
     estimated scf accuracy    <       0.00124378 Ry

     iteration #  2     ecut=    90.00 Ry     beta= 0.70
     Davidson diagonalization with overlap
     ethr =  1.30E-06,  avg # of iterations =  2.4

     negative rho (up, down):  7.982E-07 0.000E+00

     total cpu time spent up to now is       51.6 secs

     total energy              =    -418.03859970 Ry
     estimated scf accuracy    <       0.00019396 Ry

     iteration #  3     ecut=    90.00 Ry     beta= 0.70
     Davidson diagonalization with overlap
     ethr =  2.02E-07,  avg # of iterations =  2.6

     negative rho (up, down):  8.471E-07 0.000E+00

     total cpu time spent up to now is       52.8 secs

     total energy              =    -418.03864490 Ry
     estimated scf accuracy    <       0.00001951 Ry

     iteration #  4     ecut=    90.00 Ry     beta= 0.70
     Davidson diagonalization with overlap
     ethr =  2.03E-08,  avg # of iterations =  2.2

     negative rho (up, down):  8.620E-07 0.000E+00

     total cpu time spent up to now is       53.8 secs

     total energy              =    -418.03864709 Ry
     estimated scf accuracy    <       0.00000119 Ry

     iteration #  5     ecut=    90.00 Ry     beta= 0.70
     Davidson diagonalization with overlap
     ethr =  1.23E-09,  avg # of iterations =  3.1

     negative rho (up, down):  8.636E-07 0.000E+00

     total cpu time spent up to now is       55.0 secs

     total energy              =    -418.03864748 Ry
     estimated scf accuracy    <       0.00000013 Ry

     iteration #  6     ecut=    90.00 Ry     beta= 0.70
     Davidson diagonalization with overlap
     ethr =  1.39E-10,  avg # of iterations =  3.0

     negative rho (up, down):  8.638E-07 0.000E+00

     total cpu time spent up to now is       56.1 secs

     End of self-consistent calculation

          k = 0.0000 0.0000 0.0000 ( 34975 PWs)   bands (ev):

   -21.8264 -21.5501 -21.5501 -21.3856 -21.3856 -21.3591 -21.3591 -21.3518
   -21.3510 -21.1407 -21.1407 -20.9716  -9.5526  -9.4314  -9.3958  -9.3958
    -9.3858  -9.3858  -9.0768  -9.0768  -9.0432  -9.0370  -9.0370  -8.9418
    -7.4112  -6.5327  -6.5327  -6.1688  -6.1688  -6.0013  -6.0013  -5.8144
    -5.7611  -5.2371  -5.2371  -4.7020  -3.9979  -3.9979  -3.9593  -3.7972
    -3.7972  -3.7546  -3.6916  -3.6359  -3.6087  -3.6087  -3.5817  -3.5817

          k =-0.1498-0.0865 0.3111 ( 34973 PWs)   bands (ev):

   -21.7805 -21.5718 -21.5518 -21.4673 -21.4386 -21.4134 -21.3224 -21.2916
   -21.2652 -21.1456 -21.1236 -21.0029  -9.5268  -9.4498  -9.4195  -9.4094
    -9.3731  -9.3321  -9.1021  -9.0809  -9.0520  -9.0001  -8.9869  -8.9663
    -7.2723  -6.6812  -6.5756  -6.3705  -6.2546  -6.0010  -5.8258  -5.7657
    -5.6092  -5.2386  -5.1803  -4.8202  -4.0637  -4.0179  -3.9550  -3.8294
    -3.8220  -3.7855  -3.7633  -3.6593  -3.6310  -3.5799  -3.5598  -3.5298

          k = 0.2996 0.1730-0.6221 ( 35000 PWs)   bands (ev):

   -21.6879 -21.6330 -21.5698 -21.5105 -21.4683 -21.4389 -21.3013 -21.2611
   -21.2022 -21.1403 -21.1074 -21.0573  -9.4838  -9.4705  -9.4336  -9.4131
    -9.3669  -9.3129  -9.0999  -9.0867  -9.0349  -9.0204  -8.9623  -8.9515
    -6.9606  -6.9290  -6.6161  -6.5991  -6.1935  -6.1702  -5.7098  -5.6569
    -5.3391  -5.2985  -5.1395  -5.0183  -4.1236  -4.0285  -3.9530  -3.8702
    -3.8447  -3.8396  -3.7394  -3.7219  -3.6638  -3.5654  -3.5226  -3.4942

          k =-0.1498 0.0865 0.6221 ( 34966 PWs)   bands (ev):

   -21.6961 -21.6025 -21.5899 -21.5070 -21.4756 -21.4458 -21.2896 -21.2509
   -21.2142 -21.1350 -21.1193 -21.0520  -9.4853  -9.4602  -9.4527  -9.3990
    -9.3699  -9.3129  -9.0980  -9.0891  -9.0533  -8.9880  -8.9712  -8.9567
    -7.0171  -6.7991  -6.7748  -6.4374  -6.3054  -6.1645  -5.7187  -5.5314
    -5.4760  -5.2223  -5.1673  -5.0189  -4.1111  -4.0489  -3.9454  -3.8663
    -3.8621  -3.7985  -3.7807  -3.6942  -3.6724  -3.5644  -3.5334  -3.4867

          k = 0.2996 0.3460-0.3111 ( 34971 PWs)   bands (ev):

   -21.7210 -21.6238 -21.5821 -21.4990 -21.4518 -21.4271 -21.3002 -21.2548
   -21.2068 -21.1593 -21.1053 -21.0434  -9.5019  -9.4782  -9.4211  -9.3969
    -9.3720  -9.3108  -9.1466  -9.1288  -9.0775  -8.9776  -8.9563  -8.9424
    -7.0613  -6.7867  -6.6396  -6.4774  -6.4301  -6.0347  -5.6550  -5.5622
    -5.5246  -5.2764  -5.1668  -4.9604  -4.0646  -4.0130  -3.9602  -3.8883
    -3.8045  -3.7704  -3.7400  -3.7142  -3.6688  -3.6027  -3.5312  -3.4734

          k = 0.1498 0.2595 0.0000 ( 34959 PWs)   bands (ev):

   -21.7924 -21.5951 -21.5616 -21.4491 -21.4232 -21.3670 -21.3494 -21.2915
   -21.2738 -21.1485 -21.1233 -20.9966  -9.5370  -9.4549  -9.4195  -9.4063
    -9.3521  -9.3454  -9.1550  -9.1211  -9.0489  -9.0140  -8.9804  -8.9383
    -7.2822  -6.5938  -6.5689  -6.4013  -6.3325  -5.9452  -5.8079  -5.6741
    -5.6559  -5.2777  -5.2214  -4.7773  -3.9974  -3.9877  -3.9698  -3.8500
    -3.7929  -3.7554  -3.7022  -3.6766  -3.6489  -3.6181  -3.5353  -3.5256

          k = 0.2996-0.1730-1.2442 ( 34958 PWs)   bands (ev):

   -21.7067 -21.6968 -21.5717 -21.4782 -21.4299 -21.3766 -21.3269 -21.2746
   -21.2239 -21.1614 -21.0781 -21.0466  -9.5067  -9.4877  -9.4257  -9.4088
    -9.3292  -9.3172  -9.2043  -9.1572  -9.0580  -9.0041  -8.9497  -8.9368
    -6.9601  -6.9509  -6.5669  -6.5642  -6.2508  -6.0398  -5.6828  -5.6088
    -5.4631  -5.3976  -5.0781  -4.9518  -3.9991  -3.9777  -3.9749  -3.8938
    -3.7910  -3.7310  -3.7255  -3.7144  -3.6598  -3.6267  -3.5112  -3.4934

          k = 0.0000 0.0000 0.9332 ( 34954 PWs)   bands (ev):

   -21.6481 -21.6481 -21.6450 -21.5064 -21.4491 -21.4491 -21.2459 -21.2459
   -21.2211 -21.1147 -21.1147 -21.0864  -9.4835  -9.4835  -9.4470  -9.3573
    -9.3573  -9.3554  -9.1674  -9.1147  -9.1147  -8.9461  -8.9461  -8.9331
    -6.8706  -6.8706  -6.7476  -6.6186  -6.2438  -6.2438  -5.4930  -5.4930
    -5.3927  -5.2258  -5.2258  -5.1675  -4.0262  -4.0262  -3.9486  -3.9092
    -3.7767  -3.7767  -3.7548  -3.7097  -3.7097  -3.5676  -3.5676  -3.4538

          k = 0.4494 0.2595 0.0000 ( 34942 PWs)   bands (ev):

   -21.7301 -21.6341 -21.6254 -21.4649 -21.4189 -21.3883 -21.3119 -21.2879
   -21.2345 -21.1328 -21.1041 -21.0385  -9.5103  -9.4732  -9.4504  -9.3828
    -9.3543  -9.3047  -9.2122  -9.1314  -9.0904  -8.9775  -8.9570  -8.9408
    -7.0574  -6.7288  -6.7141  -6.5709  -6.2206  -6.0038  -5.7199  -5.6918
    -5.4225  -5.2768  -5.1830  -4.9255  -3.9889  -3.9858  -3.9734  -3.8951
    -3.8051  -3.7550  -3.7150  -3.6954  -3.6448  -3.6087  -3.5538  -3.4769

          k = 0.2996 0.1730 0.3111 ( 34990 PWs)   bands (ev):

   -21.7496 -21.6021 -21.5571 -21.5035 -21.4385 -21.4116 -21.3150 -21.2904
   -21.2185 -21.1629 -21.1060 -21.0193  -9.5141  -9.4611  -9.4324  -9.3951
    -9.3787  -9.2979  -9.1540  -9.0765  -9.0424  -9.0327  -8.9682  -8.9608
    -7.1577  -6.6984  -6.6368  -6.4051  -6.3657  -6.0271  -5.7494  -5.6738
    -5.5842  -5.2352  -5.1669  -4.8598  -4.0810  -4.0110  -3.9714  -3.8708
    -3.8263  -3.7807  -3.7396  -3.6857  -3.6381  -3.5964  -3.5372  -3.4945

          k = 0.4494-0.2595-0.9332 ( 34933 PWs)   bands (ev):

   -21.6774 -21.6641 -21.5888 -21.5153 -21.4434 -21.4018 -21.3222 -21.2755
   -21.1800 -21.1589 -21.1104 -21.0367  -9.4895  -9.4787  -9.4464  -9.3928
    -9.3654  -9.2699  -9.1876  -9.1013  -9.0505  -9.0266  -8.9651  -8.9541
    -6.9369  -6.8383  -6.6639  -6.5726  -6.3136  -5.9999  -5.8412  -5.6433
    -5.3736  -5.2414  -5.1887  -4.9149  -4.0891  -4.0149  -3.9892  -3.8778
    -3.8402  -3.8168  -3.7026  -3.6696  -3.6552  -3.6071  -3.5375  -3.4648

          k = 0.2996-0.3460-0.6221 ( 34968 PWs)   bands (ev):

   -21.6708 -21.6128 -21.5831 -21.5448 -21.4649 -21.4492 -21.2896 -21.2676
   -21.1730 -21.1503 -21.1300 -21.0415  -9.4931  -9.4473  -9.4303  -9.4107
    -9.3948  -9.2726  -9.1138  -9.0987  -9.0282  -9.0171  -8.9760  -8.9702
    -6.8910  -6.8645  -6.6497  -6.6240  -6.2581  -6.2295  -5.6553  -5.6192
    -5.3703  -5.3483  -5.1160  -4.9622  -4.1449  -4.0275  -3.9923  -3.8963
    -3.8709  -3.7818  -3.7350  -3.6980  -3.6823  -3.5664  -3.5468  -3.4541

          k = 0.0000 0.0000-1.8663 ( 34902 PWs)   bands (ev):

   -21.6520 -21.5887 -21.5887 -21.5571 -21.4856 -21.4856 -21.2547 -21.2547
   -21.1687 -21.1687 -21.1442 -21.0290  -9.4960  -9.4284  -9.4284  -9.4094
    -9.4094  -9.2428  -9.1270  -9.1108  -9.0137  -9.0137  -8.9946  -8.9946
    -6.8806  -6.7955  -6.5404  -6.5404  -6.4200  -6.4200  -5.4900  -5.4900
    -5.4852  -5.4852  -5.0770  -4.9203  -4.1616  -4.0197  -4.0197  -3.9159
    -3.9159  -3.7524  -3.7364  -3.6612  -3.6612  -3.5765  -3.5765  -3.4290

          k = 0.2996-0.3460 0.3111 ( 34971 PWs)   bands (ev):

   -21.7198 -21.6334 -21.5683 -21.5009 -21.4579 -21.4277 -21.2848 -21.2658
   -21.2156 -21.1452 -21.1126 -21.0427  -9.5053  -9.4675  -9.4286  -9.4074
    -9.3544  -9.3174  -9.1566  -9.1215  -9.0741  -8.9736  -8.9611  -8.9425
    -7.0606  -6.7912  -6.6567  -6.4576  -6.4015  -6.0699  -5.7249  -5.5060
    -5.4478  -5.3070  -5.2060  -4.9462  -4.0685  -3.9977  -3.9741  -3.8794
    -3.8043  -3.7743  -3.7410  -3.7109  -3.6874  -3.5843  -3.5311  -3.4782

     highest occupied level (ev):    -3.4290

!    total energy              =    -418.03864751 Ry
     estimated scf accuracy    <       0.00000001 Ry

     The total energy is the sum of the following terms:
     one-electron contribution =    -322.93150297 Ry
     hartree contribution      =     193.40764258 Ry
     xc contribution           =    -105.55774456 Ry
     ewald contribution        =    -182.95704256 Ry

     convergence has been achieved in   6 iterations

     Forces acting on atoms (cartesian axes, Ry/au):

     atom    1 type  2   force =    -0.00488835    0.00606369    0.00101210
     atom    2 type  2   force =     0.00488835   -0.00606369   -0.00101210
     atom    3 type  2   force =    -0.00280713   -0.00726528    0.00101210
     atom    4 type  2   force =     0.00280713    0.00726528   -0.00101210
     atom    5 type  2   force =     0.00769549    0.00120159    0.00101210
     atom    6 type  2   force =    -0.00769549   -0.00120159   -0.00101210
     atom    7 type  2   force =    -0.00252250    0.00097375   -0.00473316
     atom    8 type  2   force =     0.00252250   -0.00097375    0.00473316
     atom    9 type  2   force =     0.00041796   -0.00267142   -0.00473316
     atom   10 type  2   force =    -0.00041796    0.00267142    0.00473316
     atom   11 type  2   force =     0.00210454    0.00169768   -0.00473316
     atom   12 type  2   force =    -0.00210454   -0.00169768    0.00473316
     atom   13 type  1   force =    -0.00045600   -0.00762198   -0.00302778
     atom   14 type  1   force =     0.00045600    0.00762198    0.00302778
     atom   15 type  1   force =     0.00682883    0.00341609   -0.00302778
     atom   16 type  1   force =    -0.00682883   -0.00341609    0.00302778
     atom   17 type  1   force =    -0.00637283    0.00420590   -0.00302778
     atom   18 type  1   force =     0.00637283   -0.00420590    0.00302778
     atom   19 type  1   force =     0.00688673   -0.00098261   -0.00209447
     atom   20 type  1   force =    -0.00688673    0.00098261    0.00209447
     atom   21 type  1   force =    -0.00259240    0.00645539   -0.00209447
     atom   22 type  1   force =     0.00259240   -0.00645539    0.00209447
     atom   23 type  1   force =    -0.00429433   -0.00547278   -0.00209447
     atom   24 type  1   force =     0.00429433    0.00547278    0.00209447
     atom   25 type  1   force =     0.00191606   -0.00281772    0.00262418
     atom   26 type  1   force =    -0.00191606    0.00281772   -0.00262418
     atom   27 type  1   force =     0.00148218    0.00306822    0.00262418
     atom   28 type  1   force =    -0.00148218   -0.00306822   -0.00262418
     atom   29 type  1   force =    -0.00339824   -0.00025050    0.00262418
     atom   30 type  1   force =     0.00339824    0.00025050   -0.00262418
     atom   31 type  1   force =    -0.00629470    0.00076140    0.00375730
     atom   32 type  1   force =     0.00629470   -0.00076140   -0.00375730
     atom   33 type  1   force =     0.00248796   -0.00583207    0.00375730
     atom   34 type  1   force =    -0.00248796    0.00583207   -0.00375730
     atom   35 type  1   force =     0.00380674    0.00507068    0.00375730
     atom   36 type  1   force =    -0.00380674   -0.00507068   -0.00375730

     Total force =     0.041314     Total SCF correction =     0.000128


     Computing stress (Cartesian axis) and pressure

          total   stress  (Ry/bohr**3)                   (kbar)     P=      -21.15
  -0.00016378  -0.00000000  -0.00000000          -24.09       -0.00       -0.00
   0.00000000  -0.00016378  -0.00000000            0.00      -24.09       -0.00
   0.00000000  -0.00000000  -0.00010379            0.00       -0.00      -15.27

     Energy error            =      1.1E-02 Ry
     Gradient error          =      7.7E-03 Ry/Bohr

     number of scf cycles    =   4
     number of bfgs steps    =   3

     energy             old  =    -418.0280622069 Ry
     energy             new  =    -418.0386475078 Ry

     CASE: energy            _new < energy            _old

     new trust radius        =       0.0195075453 bohr
     new conv_thr            =       0.0000000077 Ry


ATOMIC_POSITIONS (crystal)
O                0.2739095718        0.0390803343        0.8613285304
O                0.7260904282        0.9609196767        0.1386714396
O                0.8613285304        0.2739095718        0.0390803343
O                0.1386714396        0.7260904282        0.9609196767
O                0.0390803343        0.8613285304        0.2739095718
O                0.9609196767        0.1386714396        0.7260904282
O                0.4686980498        0.7470752389        0.3292423642
O                0.5313019502        0.2529247611        0.6707576058
O                0.3292423642        0.4686980498        0.7470752389
O                0.6707576058        0.5313019502        0.2529247611
O                0.7470752389        0.3292423642        0.4686980498
O                0.2529247611        0.6707576058        0.5313019502
H                0.1556595230        0.0549230019        0.8006496993
H                0.8443404630        0.9450769901        0.1993503007
H                0.8006496993        0.1556595230        0.0549230019
H                0.1993503007        0.8443404630        0.9450769901
H                0.0549230019        0.8006496993        0.1556595230
H                0.9450769901        0.1993503007        0.8443404630
H                0.4197581023        0.2006706993        0.9966650937
[...]
H                0.1852714985        0.9770460719        0.4131218517
H                0.8147285165        0.0229539071        0.5868781483
H                0.7311688266        0.4040614520        0.4104964547
H                0.2688311734        0.5959385180        0.5895035753
H                0.4104964547        0.7311688266        0.4040614520
H                0.5895035753        0.2688311734        0.5959385180
H                0.4040614520        0.4104964547        0.7311688266
H                0.5959385180        0.5895035753        0.2688311734
H                0.7467398909        0.2103857856        0.3787745806
H                0.2532601091        0.7896141994        0.6212254194
H                0.3787745806        0.7467398909        0.2103857856
H                0.6212254194        0.2532601091        0.7896141994
H                0.2103857856        0.3787745806        0.7467398909
H                0.7896141994        0.6212254194        0.2532601091



     Writing config-only to output data dir ./iceII/iceII.save/ :
     XML data file
     NEW-OLD atomic charge density approx. for the potential

     negative rho (up, down):  4.296E-07 0.000E+00

     total cpu time spent up to now is      290.3 secs

     per-process dynamical memory:    47.7 Mb

     Self-consistent Calculation

     iteration #  1     ecut=    90.00 Ry     beta= 0.70
     Davidson diagonalization with overlap
     ethr =  1.00E-06,  avg # of iterations =  3.0

     Threshold (ethr) on eigenvalues was too large:
     Diagonalizing with lowered threshold

     Davidson diagonalization with overlap
     ethr =  1.50E-08,  avg # of iterations =  4.0

     negative rho (up, down):  4.211E-07 0.000E+00

     total cpu time spent up to now is      292.5 secs

     total energy              =    -418.04814689 Ry
     estimated scf accuracy    <       0.00001958 Ry

     iteration #  2     ecut=    90.00 Ry     beta= 0.70
     Davidson diagonalization with overlap
     ethr =  2.04E-08,  avg # of iterations =  2.0

     negative rho (up, down):  4.182E-07 0.000E+00

     total cpu time spent up to now is      293.5 secs

     total energy              =    -418.04814940 Ry
     estimated scf accuracy    <       0.00000193 Ry

     iteration #  3     ecut=    90.00 Ry     beta= 0.70
     Davidson diagonalization with overlap
     ethr =  2.01E-09,  avg # of iterations =  3.0

     negative rho (up, down):  4.178E-07 0.000E+00

     total cpu time spent up to now is      294.6 secs

     total energy              =    -418.04814985 Ry
     estimated scf accuracy    <       0.00000053 Ry

     iteration #  4     ecut=    90.00 Ry     beta= 0.70
     Davidson diagonalization with overlap
     ethr =  5.54E-10,  avg # of iterations =  2.0

     negative rho (up, down):  4.178E-07 0.000E+00

     total cpu time spent up to now is      295.7 secs

     total energy              =    -418.04814994 Ry
     estimated scf accuracy    <       0.00000002 Ry

     iteration #  5     ecut=    90.00 Ry     beta= 0.70
     Davidson diagonalization with overlap
     ethr =  1.71E-11,  avg # of iterations =  5.0

     negative rho (up, down):  4.177E-07 0.000E+00

     total cpu time spent up to now is      297.1 secs

     total energy              =    -418.04814994 Ry
     estimated scf accuracy    <       0.00000002 Ry

     iteration #  6     ecut=    90.00 Ry     beta= 0.70
     Davidson diagonalization with overlap
     ethr =  1.71E-11,  avg # of iterations =  2.2

     negative rho (up, down):  4.177E-07 0.000E+00

     total cpu time spent up to now is      298.2 secs

     End of self-consistent calculation

          k = 0.0000 0.0000 0.0000 ( 34975 PWs)   bands (ev):

   -21.8267 -21.5324 -21.5324 -21.3987 -21.3987 -21.3789 -21.3688 -21.3676
   -21.3676 -21.1830 -21.1830 -20.9843  -9.4574  -9.3833  -9.3810  -9.3810
    -9.3352  -9.3352  -9.1208  -9.1208  -9.1056  -9.0994  -9.0983  -9.0983
    -7.3389  -6.5589  -6.5589  -6.1065  -6.1065  -5.9415  -5.9415  -5.8649
    -5.7463  -5.2252  -5.2252  -4.6349  -3.9656  -3.9656  -3.9347  -3.8226
    -3.8226  -3.7860  -3.6857  -3.6811  -3.6811  -3.6462  -3.5950  -3.5950

          k =-0.1498-0.0865 0.3111 ( 34973 PWs)   bands (ev):

   -21.7795 -21.5582 -21.5262 -21.4878 -21.4621 -21.4212 -21.3415 -21.3094
   -21.2733 -21.1858 -21.1597 -21.0206  -9.4366  -9.4005  -9.3801  -9.3667
    -9.3321  -9.3071  -9.1531  -9.1384  -9.1277  -9.0923  -9.0658  -9.0537
    -7.2188  -6.6856  -6.5877  -6.3395  -6.1657  -5.9837  -5.8079  -5.7476
    -5.5876  -5.2237  -5.1703  -4.7531  -4.0243  -3.9740  -3.9378  -3.8592
    -3.8576  -3.8220  -3.7524  -3.6859  -3.6529  -3.6321  -3.5971  -3.5792

          k = 0.2996 0.1730-0.6221 ( 35000 PWs)   bands (ev):

   -21.6609 -21.6552 -21.5414 -21.5390 -21.4665 -21.4593 -21.3101 -21.2982
   -21.2019 -21.1766 -21.1182 -21.1008  -9.4132  -9.4049  -9.3740  -9.3669
    -9.3312  -9.2781  -9.1700  -9.1652  -9.1304  -9.0928  -9.0376  -9.0264
    -6.9575  -6.9025  -6.5827  -6.5800  -6.1406  -6.1051  -5.7114  -5.6713
    -5.3111  -5.2584  -5.1188  -4.9629  -4.0810  -3.9832  -3.9190  -3.9178
    -3.8713  -3.8646  -3.7769  -3.6972  -3.6931  -3.6072  -3.5798  -3.5624

          k =-0.1498 0.0865 0.6221 ( 34966 PWs)   bands (ev):

   -21.6863 -21.5951 -21.5880 -21.5132 -21.4962 -21.4542 -21.3107 -21.2611
   -21.2326 -21.1588 -21.1469 -21.0854  -9.4158  -9.3943  -9.3874  -9.3663
    -9.3242  -9.2789  -9.1667  -9.1619  -9.1529  -9.0637  -9.0471  -9.0318
    -7.0061  -6.7771  -6.7508  -6.4134  -6.2562  -6.1088  -5.7218  -5.5257
    -5.4427  -5.1989  -5.1416  -4.9616  -4.0701  -4.0036  -3.9131  -3.9094
    -3.8776  -3.8470  -3.7987  -3.6940  -3.6785  -3.6149  -3.5904  -3.5531

          k = 0.2996 0.3460-0.3111 ( 34971 PWs)   bands (ev):

   -21.7158 -21.6120 -21.5614 -21.5231 -21.4835 -21.4375 -21.3154 -21.2528
   -21.2190 -21.1933 -21.1373 -21.0741  -9.4192  -9.4163  -9.3724  -9.3577
    -9.3213  -9.2950  -9.2015  -9.1787  -9.1534  -9.0678  -9.0549  -9.0282
    -7.0101  -6.7713  -6.6388  -6.4493  -6.3863  -6.0046  -5.6704  -5.5605
    -5.4666  -5.2232  -5.1483  -4.9228  -4.0297  -3.9742  -3.9328  -3.8970
    -3.8477  -3.8169  -3.7553  -3.7329  -3.6625  -3.6503  -3.5794  -3.5293

          k = 0.1498 0.2595 0.0000 ( 34959 PWs)   bands (ev):

   -21.7915 -21.5766 -21.5419 -21.4719 -21.4497 -21.4007 -21.3462 -21.3023
   -21.2721 -21.1879 -21.1669 -21.0143  -9.4447  -9.3973  -9.3845  -9.3671
    -9.3292  -9.3214  -9.1768  -9.1608  -9.1292  -9.0843  -9.0788  -9.0555
    -7.2141  -6.6047  -6.5464  -6.3531  -6.3421  -5.9162  -5.7765  -5.6574
    -5.6239  -5.2471  -5.2142  -4.7248  -3.9674  -3.9529  -3.9438  -3.8551
    -3.8174  -3.8044  -3.7277  -3.7109  -3.6816  -3.6434  -3.5675  -3.5554

          k = 0.2996-0.1730-1.2442 ( 34958 PWs)   bands (ev):

   -21.7082 -21.6814 -21.5474 -21.5076 -21.4465 -21.4208 -21.3045 -21.2996
   -21.2118 -21.2098 -21.0965 -21.0875  -9.4227  -9.4128  -9.3832  -9.3619
    -9.3182  -9.3102  -9.2168  -9.1904  -9.1407  -9.0744  -9.0707  -9.0405
    -6.9066  -6.8768  -6.6217  -6.4823  -6.2984  -6.0272  -5.6289  -5.5966
    -5.4612  -5.3163  -5.0402  -4.9430  -3.9689  -3.9474  -3.9448  -3.8843
    -3.8071  -3.7979  -3.7765  -3.7306  -3.6958  -3.6351  -3.5458  -3.5302

          k = 0.0000 0.0000 0.9332 ( 34954 PWs)   bands (ev):

   -21.6448 -21.6448 -21.5945 -21.5763 -21.4573 -21.4573 -21.2656 -21.2656
   -21.1876 -21.1507 -21.1402 -21.1402  -9.4143  -9.4143  -9.3843  -9.3213
    -9.3213  -9.3196  -9.2370  -9.1751  -9.1751  -9.0404  -9.0404  -9.0202
    -6.8191  -6.8191  -6.7860  -6.5324  -6.2449  -6.2449  -5.4827  -5.4827
    -5.3465  -5.1913  -5.1913  -5.1290  -3.9885  -3.9885  -3.9180  -3.8938
    -3.8328  -3.8328  -3.8097  -3.6981  -3.6981  -3.6158  -3.6158  -3.5109

          k = 0.4494 0.2595 0.0000 ( 34942 PWs)   bands (ev):

   -21.7266 -21.6184 -21.6128 -21.5091 -21.4170 -21.4065 -21.3292 -21.3125
   -21.2136 -21.1644 -21.1434 -21.0683  -9.4250  -9.4030  -9.3957  -9.3496
    -9.3320  -9.3025  -9.2230  -9.1775  -9.1547  -9.0718  -9.0581  -9.0494
    -6.9929  -6.6756  -6.6493  -6.6049  -6.2618  -6.0092  -5.7048  -5.6199
    -5.3582  -5.2495  -5.1722  -4.9009  -3.9640  -3.9504  -3.9425  -3.8723
    -3.8477  -3.8028  -3.7532  -3.7232  -3.6986  -3.6178  -3.5698  -3.5219

          k = 0.2996 0.1730 0.3111 ( 34990 PWs)   bands (ev):

   -21.7467 -21.5843 -21.5371 -21.5207 -21.4720 -21.4298 -21.3232 -21.2904
   -21.2539 -21.1784 -21.1437 -21.0448  -9.4292  -9.4055  -9.3821  -9.3489
    -9.3335  -9.2884  -9.1790  -9.1517  -9.1185  -9.1074  -9.0824  -9.0427
    -7.1052  -6.6783  -6.6488  -6.3903  -6.3129  -5.9899  -5.7537  -5.6113
    -5.5798  -5.1924  -5.1569  -4.8169  -4.0489  -3.9692  -3.9423  -3.9013
    -3.8649  -3.7986  -3.7569  -3.7125  -3.6476  -3.6408  -3.5680  -3.5596

          k = 0.4494-0.2595-0.9332 ( 34933 PWs)   bands (ev):

   -21.6628 -21.6587 -21.5714 -21.5475 -21.4655 -21.4094 -21.3462 -21.2814
   -21.2014 -21.1657 -21.1332 -21.0816  -9.4221  -9.4022  -9.3874  -9.3419
    -9.3211  -9.2715  -9.1951  -9.1749  -9.1417  -9.1037  -9.0732  -9.0493
    -6.8811  -6.7900  -6.7005  -6.5052  -6.3325  -5.9889  -5.8183  -5.5731
    -5.3709  -5.1759  -5.1519  -4.9168  -4.0600  -3.9794  -3.9572  -3.9108
    -3.8820  -3.8024  -3.7385  -3.7183  -3.6595  -3.6342  -3.5697  -3.5300

          k = 0.2996-0.3460-0.6221 ( 34968 PWs)   bands (ev):

   -21.6375 -21.6323 -21.5651 -21.5630 -21.4773 -21.4739 -21.2956 -21.2897
   -21.1917 -21.1837 -21.1257 -21.0927  -9.4245  -9.3786  -9.3677  -9.3591
    -9.3477  -9.2470  -9.1732  -9.1716  -9.1322  -9.1007  -9.0568  -9.0490
    -6.8765  -6.8567  -6.6250  -6.5949  -6.2003  -6.1761  -5.6619  -5.6225
    -5.3243  -5.2992  -5.0698  -4.9508  -4.1082  -3.9869  -3.9571  -3.9423
    -3.9097  -3.8089  -3.7285  -3.7197  -3.6877  -3.6064  -3.5962  -3.5330

          k = 0.0000 0.0000-1.8663 ( 34902 PWs)   bands (ev):

   -21.6099 -21.6088 -21.5530 -21.5530 -21.5337 -21.5337 -21.2403 -21.2403
   -21.2248 -21.2248 -21.1235 -21.0821  -9.4269  -9.3609  -9.3609  -9.3536
    -9.3536  -9.2254  -9.1790  -9.1643  -9.1231  -9.1231  -9.0771  -9.0771
    -6.8763  -6.7864  -6.4821  -6.4821  -6.4088  -6.4088  -5.4566  -5.4566
    -5.4514  -5.4514  -5.0208  -4.9316  -4.1248  -3.9810  -3.9810  -3.9654
    -3.9654  -3.7652  -3.7345  -3.6570  -3.6570  -3.6388  -3.6388  -3.5076

          k = 0.2996-0.3460 0.3111 ( 34971 PWs)   bands (ev):

   -21.7156 -21.6136 -21.5559 -21.5290 -21.4817 -21.4375 -21.3129 -21.2480
   -21.2389 -21.1739 -21.1443 -21.0739  -9.4267  -9.4031  -9.3797  -9.3515
    -9.3276  -9.2939  -9.2034  -9.1776  -9.1530  -9.0661  -9.0503  -9.0333
    -7.0114  -6.7625  -6.6664  -6.4257  -6.3617  -6.0443  -5.7261  -5.4918
    -5.4048  -5.2781  -5.1714  -4.9081  -4.0339  -3.9636  -3.9421  -3.8875
    -3.8474  -3.8117  -3.7691  -3.7388  -3.6750  -3.6244  -3.5820  -3.5325

     highest occupied level (ev):    -3.5076

!    total energy              =    -418.04814995 Ry
     estimated scf accuracy    <          1.2E-09 Ry

     The total energy is the sum of the following terms:
     one-electron contribution =    -324.48114600 Ry
     hartree contribution      =     194.19409082 Ry
     xc contribution           =    -105.59287262 Ry
     ewald contribution        =    -182.16822216 Ry

     convergence has been achieved in   6 iterations

     Forces acting on atoms (cartesian axes, Ry/au):

     atom    1 type  2   force =    -0.00035369   -0.00001736    0.00066335
     atom    2 type  2   force =     0.00035369    0.00001736   -0.00066335
     atom    3 type  2   force =     0.00019187   -0.00029762    0.00066335
     atom    4 type  2   force =    -0.00019187    0.00029762   -0.00066335
     atom    5 type  2   force =     0.00016181    0.00031498    0.00066335
     atom    6 type  2   force =    -0.00016181   -0.00031498   -0.00066335
     atom    7 type  2   force =    -0.00027462   -0.00007539    0.00095245
     atom    8 type  2   force =     0.00027462    0.00007539   -0.00095245
     atom    9 type  2   force =     0.00020260   -0.00020014    0.00095245
     atom   10 type  2   force =    -0.00020260    0.00020014   -0.00095245
     atom   11 type  2   force =     0.00007202    0.00027552    0.00095245
     atom   12 type  2   force =    -0.00007202   -0.00027552   -0.00095245
     atom   13 type  1   force =     0.00011857   -0.00000387    0.00068990
     atom   14 type  1   force =    -0.00011857    0.00000387   -0.00068990
     atom   15 type  1   force =    -0.00005593    0.00010462    0.00068990
     atom   16 type  1   force =     0.00005593   -0.00010462   -0.00068990
     atom   17 type  1   force =    -0.00006263   -0.00010075    0.00068990
     atom   18 type  1   force =     0.00006263    0.00010075   -0.00068990
     atom   19 type  1   force =     0.00047599   -0.00055911   -0.00011005
     atom   20 type  1   force =    -0.00047599    0.00055911    0.00011005
     atom   21 type  1   force =     0.00024621    0.00069178   -0.00011005
     atom   22 type  1   force =    -0.00024621   -0.00069178    0.00011005
     atom   23 type  1   force =    -0.00072220   -0.00013267   -0.00011005
     atom   24 type  1   force =     0.00072220    0.00013267    0.00011005
     atom   25 type  1   force =    -0.00004264    0.00016541   -0.00012431
     atom   26 type  1   force =     0.00004264   -0.00016541    0.00012431
     atom   27 type  1   force =    -0.00012193   -0.00011963   -0.00012431
     atom   28 type  1   force =     0.00012193    0.00011963    0.00012431
     atom   29 type  1   force =     0.00016457   -0.00004578   -0.00012431
     atom   30 type  1   force =    -0.00016457    0.00004578    0.00012431
     atom   31 type  1   force =    -0.00064534   -0.00012828    0.00014204
     atom   32 type  1   force =     0.00064534    0.00012828   -0.00014204
     atom   33 type  1   force =     0.00043377   -0.00049474    0.00014204
     atom   34 type  1   force =    -0.00043377    0.00049474   -0.00014204
     atom   35 type  1   force =     0.00021157    0.00062302    0.00014204
     atom   36 type  1   force =    -0.00021157   -0.00062302   -0.00014204

     Total force =     0.004308     Total SCF correction =     0.000050


     Computing stress (Cartesian axis) and pressure

          total   stress  (Ry/bohr**3)                   (kbar)     P=      -18.39
  -0.00012775   0.00000000   0.00000000          -18.79        0.00        0.00
  -0.00000000  -0.00012775  -0.00000000           -0.00      -18.79       -0.00
   0.00000000  -0.00000000  -0.00011946            0.00       -0.00      -17.57

     Energy error            =      3.6E-05 Ry
     Gradient error          =      9.5E-04 Ry/Bohr

     bfgs converged in  28 scf cycles and  27 bfgs steps
     (criteria: energy <  1.0E-04 Ry, force <  1.0E-03 Ry/Bohr)

     End of BFGS Geometry Optimization

     Final energy             =    -418.0481499468 Ry

     File ./iceII/iceII.bfgs deleted, as requested
Begin final coordinates

ATOMIC_POSITIONS (crystal)
O                0.2677260307        0.0223746817        0.8528818518
O                0.7322739693        0.9776253293        0.1471181182
O                0.8528818518        0.2677260307        0.0223746817
O                0.1471181182        0.7322739693        0.9776253293
O                0.0223746817        0.8528818518        0.2677260307
O                0.9776253293        0.1471181182        0.7322739693
O                0.4794311626        0.7510418475        0.3311068876
O                0.5205688374        0.2489581525        0.6688930824
O                0.3311068876        0.4794311626        0.7510418475
O                0.6688930824        0.5205688374        0.2489581525
O                0.7510418475        0.3311068876        0.4794311626
O                0.2489581525        0.6688930824        0.5205688374
H                0.1469348137        0.0353159099        0.7926939476
H                0.8530651723        0.9646840821        0.2073060524
H                0.7926939476        0.1469348137        0.0353159099
H                0.2073060524        0.8530651723        0.9646840821
H                0.0353159099        0.7926939476        0.1469348137
H                0.9646840821        0.2073060524        0.8530651723
H                0.4131218517        0.1852714985        0.9770460719
H                0.5868781483        0.8147285165        0.0229539071
H                0.9770460719        0.4131218517        0.1852714985
H                0.0229539071        0.5868781483        0.8147285165
H                0.1852714985        0.9770460719        0.4131218517
H                0.8147285165        0.0229539071        0.5868781483
H                0.7311688266        0.4040614520        0.4104964547
H                0.2688311734        0.5959385180        0.5895035753
H                0.4104964547        0.7311688266        0.4040614520
H                0.5895035753        0.2688311734        0.5959385180
H                0.4040614520        0.4104964547        0.7311688266
H                0.5959385180        0.5895035753        0.2688311734
H                0.7467398909        0.2103857856        0.3787745806
H                0.2532601091        0.7896141994        0.6212254194
H                0.3787745806        0.7467398909        0.2103857856
H                0.6212254194        0.2532601091        0.7896141994
H                0.2103857856        0.3787745806        0.7467398909
H                0.7896141994        0.6212254194        0.2532601091
End final coordinates



     Writing all to output data dir ./iceII/iceII.save/ :
     XML data file, charge density, pseudopotentials, collected wavefunctions

     init_run     :      2.97s CPU      3.07s WALL (       1 calls)
     electrons    :    240.77s CPU    248.21s WALL (      28 calls)
     update_pot   :      5.30s CPU      5.78s WALL (      27 calls)
     forces       :      4.43s CPU      4.47s WALL (      28 calls)
     stress       :     35.21s CPU     35.75s WALL (      28 calls)

     Called by init_run:
     wfcinit      :      0.38s CPU      0.39s WALL (       1 calls)
     potinit      :      1.72s CPU      1.78s WALL (       1 calls)
     hinit0       :      0.66s CPU      0.67s WALL (       1 calls)

     Called by electrons:
     c_bands      :    176.13s CPU    177.61s WALL (     207 calls)
     sum_band     :     24.57s CPU     24.72s WALL (     207 calls)
     v_of_rho     :     44.19s CPU     48.83s WALL (     227 calls)
     newd         :      1.26s CPU      1.28s WALL (     227 calls)
     mix_rho      :      0.75s CPU      0.75s WALL (     207 calls)
     vdW_kernel   :      1.51s CPU      1.52s WALL (       1 calls)

     Called by c_bands:
     init_us_2    :      3.46s CPU      3.56s WALL (    1884 calls)
     cegterg      :    169.51s CPU    170.52s WALL (     828 calls)

     Called by *egterg:
     cdiaghg      :     12.10s CPU     12.13s WALL (    3130 calls)
     h_psi        :    126.17s CPU    127.03s WALL (    3274 calls)
     s_psi        :      5.93s CPU      5.98s WALL (    3274 calls)
     g_psi        :      0.39s CPU      0.39s WALL (    2442 calls)

     Called by h_psi:
     h_psi:calbec :      9.71s CPU      9.75s WALL (    3274 calls)
     vloc_psi     :    109.59s CPU    110.38s WALL (    3274 calls)
     add_vuspsi   :      5.85s CPU      5.86s WALL (    3274 calls)

     General routines
     calbec       :     14.02s CPU     14.09s WALL (    4662 calls)
     fft          :     23.39s CPU     27.05s WALL (   15338 calls)
     ffts         :      0.31s CPU      0.31s WALL (     207 calls)
     fftw         :    114.15s CPU    114.93s WALL (  290342 calls)

     Parallel routines

     PWSCF        :   4m50.77s CPU   5m 0.46s WALL


   This run was terminated on:  16: 7:59   1Apr2026            

=------------------------------------------------------------------------------=
   JOB DONE.
=------------------------------------------------------------------------------=
