
     Program PWSCF v.7.3.1 starts on 26Mar2026 at 16: 3:42 

     This program is part of the open-source Quantum ESPRESSO suite
     for quantum simulation of materials; please cite
         "P. Giannozzi et al., J. Phys.:Condens. Matter 21 395502 (2009);
         "P. Giannozzi et al., J. Phys.:Condens. Matter 29 465901 (2017);
         "P. Giannozzi et al., J. Chem. Phys. 152 154105 (2020);
          URL http://www.quantum-espresso.org", 
     in publications or presentations arising from this work. More details at
     http://www.quantum-espresso.org/quote

     Parallel version (MPI), running on   128 processors

     MPI processes distributed on     1 nodes
     242788 MiB available memory on the printing compute node when the environment starts

     Waiting for input...
     Reading input from standard input

     Current dimensions of program PWSCF are:
     Max number of different atomic species (ntypx) = 10
     Max number of k-points (npk) =  40000
     Max angular momentum in pseudopotentials (lmaxx) =  4

     IMPORTANT: XC functional enforced from input :
     Exchange-correlation= VDW-DF2
                           (   1   4  13   0   2   0   0)
     Any further DFT definition will be discarded
     Please, verify this is what you really want


     K-points division:     npool     =       4
     R & G space division:  proc/nbgrp/npool/nimage =      32
     Subspace diagonalization in iterative solution of the eigenvalue problem:
     a serial algorithm will be used


     Parallelization info
     --------------------
     sticks:   dense  smooth     PW     G-vecs:    dense   smooth      PW
     Min         200     200     58                 8811     8811    1385
     Max         201     201     59                 8812     8812    1386
     Sum        6405    6405   1865               281971   281971   44347

     Using Slab Decomposition



     bravais-lattice index     =            5
     lattice parameter (alat)  =      15.5842  a.u.
     unit-cell volume          =    2445.3740 (a.u.)^3
     number of atoms/cell      =           36
     number of atomic types    =            2
     number of electrons       =        96.00
     number of Kohn-Sham states=           48
     kinetic-energy cutoff     =      90.0000  Ry
     charge density cutoff     =     360.0000  Ry
     scf convergence threshold =      1.0E-07
     mixing beta               =       0.7000
     number of iterations used =            8  plain     mixing
     Exchange-correlation= VDW-DF2
                           (   1   4  13   0   2   0   0)

     celldm(1)=  15.584192  celldm(2)=   0.000000  celldm(3)=   0.000000
     celldm(4)=  -0.392337  celldm(5)=   0.000000  celldm(6)=   0.000000

     crystal axes: (cart. coord. in units of alat)
               a(1) = (   0.834367  -0.481722   0.267909 )  
               a(2) = (   0.000000   0.963444   0.267909 )  
               a(3) = (  -0.834367  -0.481722   0.267909 )  

     reciprocal axes: (cart. coord. in units 2 pi/alat)
               b(1) = (  0.599257 -0.345981  1.244203 )  
               b(2) = ( -0.000000  0.691962  1.244203 )  
               b(3) = ( -0.599257 -0.345981  1.244203 )  


     PseudoPot. # 1 for H  read from file:
     ./H.pbe-van_ak.UPF
     MD5 check sum: 077eb6d537518a38cb46c6de387227b7
     Pseudo is Ultrasoft, Zval =  1.0
     Generated by new atomic code, or converted to UPF format
     Using radial grid of  615 points,  1 beta functions with: 
                l(1) =   0
     Q(r) pseudized with  8 coefficients,  rinner =    0.800

     PseudoPot. # 2 for O  read from file:
     ./O.pbe-van_ak.UPF
     MD5 check sum: 78c19812648e8988a0fe644b0f25305e
     Pseudo is Ultrasoft, Zval =  6.0
     Generated by new atomic code, or converted to UPF format
     Using radial grid of  737 points,  4 beta functions with: 
                l(1) =   0
                l(2) =   0
                l(3) =   1
                l(4) =   1
     Q(r) pseudized with  8 coefficients,  rinner =    0.800   0.800   0.800


     atomic species   valence    mass     pseudopotential
     H                 1.00     1.00800     H ( 1.00)
     O                 6.00    16.00000     O ( 1.00)

      6 Sym. Ops., with inversion, found



   Cartesian axes

     site n.     atom                  positions (alat units)
         1        O      tau(   1) = (  -0.4881587  -0.5153728   0.3102004  )
         2        O      tau(   2) = (   0.4881587   0.5153729   0.4935268  )
         3        O      tau(   3) = (   0.6904053  -0.1650714   0.3102004  )
         4        O      tau(   4) = (  -0.6904053   0.1650714   0.4935268  )
         5        O      tau(   5) = (  -0.2022466   0.6804442   0.3102004  )
         6        O      tau(   6) = (   0.2022466  -0.6804442   0.4935268  )
         7        O      tau(   7) = (   0.1208629   0.3351200   0.4137471  )
         8        O      tau(   8) = (  -0.1208629  -0.3351200   0.3899800  )
         9        O      tau(   9) = (  -0.3506539  -0.0628897   0.4137471  )
        10        O      tau(  10) = (   0.3506539   0.0628897   0.3899800  )
        11        O      tau(  11) = (   0.2297910  -0.2722304   0.4137471  )
        12        O      tau(  12) = (  -0.2297910   0.2722304   0.3899800  )
        13        H      tau(  13) = (  -0.5430428  -0.4102686   0.2622098  )
        14        H      tau(  14) = (   0.5430428   0.4102686   0.5415173  )
        15        H      tau(  15) = (   0.6268245  -0.2651546   0.2622098  )
        16        H      tau(  16) = (  -0.6268245   0.2651546   0.5415173  )
        17        H      tau(  17) = (  -0.0837816   0.6754232   0.2622098  )
        18        H      tau(  18) = (   0.0837817  -0.6754232   0.5415173  )
        19        H      tau(  19) = (  -0.4681736  -0.4859583   0.4327384  )
        20        H      tau(  20) = (   0.4681736   0.4859583   0.3709887  )
        21        H      tau(  21) = (   0.6549390  -0.1624711   0.4327384  )
        22        H      tau(  22) = (  -0.6549390   0.1624711   0.3709887  )
        23        H      tau(  23) = (  -0.1867654   0.6484294   0.4327384  )
        24        H      tau(  24) = (   0.1867654  -0.6484294   0.3709887  )
        25        H      tau(  25) = (   0.2718867  -0.1516220   0.4118766  )
        26        H      tau(  26) = (  -0.2718867   0.1516219   0.3918506  )
        27        H      tau(  27) = (  -0.0046349   0.3112717   0.4118766  )
        28        H      tau(  28) = (   0.0046349  -0.3112717   0.3918506  )
        29        H      tau(  29) = (  -0.2672518  -0.1596498   0.4118766  )
        30        H      tau(  30) = (   0.2672518   0.1596498   0.3918506  )
        31        H      tau(  31) = (   0.3136186  -0.3416266   0.3473301  )
        32        H      tau(  32) = (  -0.3136186   0.3416266   0.4563970  )
        33        H      tau(  33) = (   0.1390481   0.4424150   0.3473301  )
        34        H      tau(  34) = (  -0.1390480  -0.4424150   0.4563970  )
        35        H      tau(  35) = (  -0.4526667  -0.1007884   0.3473301  )
        36        H      tau(  36) = (   0.4526666   0.1007884   0.4563970  )

     number of k points=    14
                       cart. coord. in units 2pi/alat
        k(    1) = (   0.0000000   0.0000000   0.0000000), wk =   0.0312500
        k(    2) = (  -0.1498141  -0.0864952   0.3110508), wk =   0.1875000
        k(    3) = (   0.2996283   0.1729905  -0.6221017), wk =   0.0937500
        k(    4) = (  -0.1498141   0.0864952   0.6221017), wk =   0.1875000
        k(    5) = (   0.2996283   0.3459809  -0.3110508), wk =   0.1875000
        k(    6) = (   0.1498141   0.2594857   0.0000000), wk =   0.1875000
        k(    7) = (   0.2996283  -0.1729905  -1.2442034), wk =   0.0937500
        k(    8) = (   0.0000000   0.0000000   0.9331525), wk =   0.0625000
        k(    9) = (   0.4494424   0.2594857   0.0000000), wk =   0.1875000
        k(   10) = (   0.2996283   0.1729905   0.3110508), wk =   0.1875000
        k(   11) = (   0.4494424  -0.2594857  -0.9331525), wk =   0.1875000
        k(   12) = (   0.2996283  -0.3459809  -0.6221017), wk =   0.1875000
        k(   13) = (   0.0000000   0.0000000  -1.8663050), wk =   0.0312500
        k(   14) = (   0.2996283  -0.3459809   0.3110508), wk =   0.1875000

     Dense  grid:   281971 G-vectors     FFT dimensions: (  96,  96,  96)

     Estimated max dynamical RAM per process >      18.10 MB

     Estimated total dynamical RAM >       2.06 GB

     Initial potential from superposition of free atoms

     starting charge      95.9998, renormalised to      96.0000


     %%%%%%%%%%%%%%%%%%%%%%%%%%%%%%%%%%%%%%%%%%%%%%%%%%%%%%%%%%%%%%%%%%%%%%%%
     %                                                                      %
     % You are using vdW-DF, which was implemented by the Thonhauser group. %
     % Please cite the following two papers that made this development      %
     % possible and the two reviews that describe the various versions:     %
     %                                                                      %
     %   T. Thonhauser et al., PRL 115, 136402 (2015).                      %
     %   T. Thonhauser et al., PRB 76, 125112 (2007).                       %
     %   K. Berland et al., Rep. Prog. Phys. 78, 066501 (2015).             %
     %   D.C. Langreth et al., J. Phys.: Condens. Matter 21, 084203 (2009). %
     %                                                                      %
     % If you are calculating stress with vdW-DF, please also cite:         %
     %                                                                      %
     %   R. Sabatini et al., J. Phys.: Condens. Matter 24, 424209 (2012).   %
     %                                                                      %
     %%%%%%%%%%%%%%%%%%%%%%%%%%%%%%%%%%%%%%%%%%%%%%%%%%%%%%%%%%%%%%%%%%%%%%%%

     %%%%%%%%%%%%%%%%%%%%%%%%%%%%%%%%%%%%%%%%%%%%%%%%%%%%%%%%%%%%%%%%%%%%%%%%
     %                                                                      %
     %  vdW-DF NEWS:                                                        %
     %                                                                      %
     %  * vdW-DF3 is now available. DOI: 10.1021/acs.jctc.0c00471           %
     %    use with input_dft = 'vdW-DF3-opt1' or 'vdW-DF3-opt2'             %
     %                                                                      %
     %  * Unscreened and range-separated hybrid vdW-DF-cx functionals       %
     %    DOI: 10.1063/1.4986522 and 10.1088/1361-648X/ac2ad2               %
     %    use with input_dft = 'vdW-DF-cx0'    and 'vdW-DF-ahcx'            %
     %  * Unscreened and range-separated hybrid vdW-DF2-b86r functionals    %
     %    DOI: 10.1063/1.4986522 and DOI: 10.1103/PhysRevX.12.041003        %
     %    use with input_dft = 'vdW-DF2-br0' and 'vdW-DF2-ahbr'             %
     %                                                                      %
     %%%%%%%%%%%%%%%%%%%%%%%%%%%%%%%%%%%%%%%%%%%%%%%%%%%%%%%%%%%%%%%%%%%%%%%%


     Starting wfcs are   72 randomized atomic wfcs

     total cpu time spent up to now is        3.3 secs

     per-process dynamical memory:    21.6 Mb

     Self-consistent Calculation

     iteration #  1     ecut=    90.00 Ry     beta= 0.70
     Davidson diagonalization with overlap
     ethr =  1.00E-02,  avg # of iterations =  2.0

     negative rho (up, down):  3.074E-07 0.000E+00

     total cpu time spent up to now is        4.5 secs

     total energy              =    -415.82325480 Ry
     estimated scf accuracy    <       4.49563536 Ry

     iteration #  2     ecut=    90.00 Ry     beta= 0.70
     Davidson diagonalization with overlap
     ethr =  4.68E-03,  avg # of iterations =  3.0

     negative rho (up, down):  6.742E-08 0.000E+00

     total cpu time spent up to now is        5.8 secs

     total energy              =    -417.24903923 Ry
     estimated scf accuracy    <       4.05689108 Ry

     iteration #  3     ecut=    90.00 Ry     beta= 0.70
     Davidson diagonalization with overlap
     ethr =  4.23E-03,  avg # of iterations =  2.0

     negative rho (up, down):  5.747E-08 0.000E+00

     total cpu time spent up to now is        6.9 secs

     total energy              =    -417.76015458 Ry
     estimated scf accuracy    <       0.20119100 Ry

     iteration #  4     ecut=    90.00 Ry     beta= 0.70
     Davidson diagonalization with overlap
     ethr =  2.10E-04,  avg # of iterations =  4.0

     negative rho (up, down):  4.081E-07 0.000E+00

     total cpu time spent up to now is        8.4 secs

     total energy              =    -417.91315517 Ry
     estimated scf accuracy    <       0.21733050 Ry

     iteration #  5     ecut=    90.00 Ry     beta= 0.70
     Davidson diagonalization with overlap
     ethr =  2.10E-04,  avg # of iterations =  1.3

     negative rho (up, down):  1.008E-06 0.000E+00

     total cpu time spent up to now is        9.3 secs

     total energy              =    -417.91430885 Ry
     estimated scf accuracy    <       0.03674323 Ry

     iteration #  6     ecut=    90.00 Ry     beta= 0.70
     Davidson diagonalization with overlap
     ethr =  3.83E-05,  avg # of iterations =  2.0

     negative rho (up, down):  1.134E-06 0.000E+00

     total cpu time spent up to now is       10.4 secs

     total energy              =    -417.92196955 Ry
     estimated scf accuracy    <       0.00131975 Ry

     iteration #  7     ecut=    90.00 Ry     beta= 0.70
     Davidson diagonalization with overlap
     ethr =  1.37E-06,  avg # of iterations =  2.7

     negative rho (up, down):  1.140E-06 0.000E+00

     total cpu time spent up to now is       11.6 secs

     total energy              =    -417.92273368 Ry
     estimated scf accuracy    <       0.00032209 Ry

     iteration #  8     ecut=    90.00 Ry     beta= 0.70
     Davidson diagonalization with overlap
     ethr =  3.36E-07,  avg # of iterations =  2.0

     negative rho (up, down):  1.028E-06 0.000E+00

     total cpu time spent up to now is       12.7 secs

     total energy              =    -417.92267447 Ry
     estimated scf accuracy    <       0.00058619 Ry

     iteration #  9     ecut=    90.00 Ry     beta= 0.70
     Davidson diagonalization with overlap
     ethr =  3.36E-07,  avg # of iterations =  1.0

     negative rho (up, down):  9.490E-07 0.000E+00

     total cpu time spent up to now is       13.5 secs

     total energy              =    -417.92251435 Ry
     estimated scf accuracy    <       0.00035225 Ry

     iteration # 10     ecut=    90.00 Ry     beta= 0.70
     Davidson diagonalization with overlap
     ethr =  3.36E-07,  avg # of iterations =  2.0

     negative rho (up, down):  9.562E-07 0.000E+00

     total cpu time spent up to now is       14.6 secs

     total energy              =    -417.92257927 Ry
     estimated scf accuracy    <       0.00000889 Ry

     iteration # 11     ecut=    90.00 Ry     beta= 0.70
     Davidson diagonalization with overlap
     ethr =  9.26E-09,  avg # of iterations =  4.0

     negative rho (up, down):  9.746E-07 0.000E+00

     total cpu time spent up to now is       16.2 secs

     total energy              =    -417.92258648 Ry
     estimated scf accuracy    <       0.00000692 Ry

     iteration # 12     ecut=    90.00 Ry     beta= 0.70
     Davidson diagonalization with overlap
     ethr =  7.21E-09,  avg # of iterations =  2.0

     negative rho (up, down):  9.979E-07 0.000E+00

     total cpu time spent up to now is       17.2 secs

     total energy              =    -417.92258678 Ry
     estimated scf accuracy    <       0.00000129 Ry

     iteration # 13     ecut=    90.00 Ry     beta= 0.70
     Davidson diagonalization with overlap
     ethr =  1.35E-09,  avg # of iterations =  2.8

     negative rho (up, down):  9.935E-07 0.000E+00

     total cpu time spent up to now is       18.3 secs

     total energy              =    -417.92258697 Ry
     estimated scf accuracy    <       0.00000037 Ry

     iteration # 14     ecut=    90.00 Ry     beta= 0.70
     Davidson diagonalization with overlap
     ethr =  3.88E-10,  avg # of iterations =  2.0

     negative rho (up, down):  9.925E-07 0.000E+00

     total cpu time spent up to now is       19.2 secs

     End of self-consistent calculation

          k = 0.0000 0.0000 0.0000 ( 35275 PWs)   bands (ev):

   -21.2563 -20.9355 -20.9355 -20.7902 -20.7902 -20.7632 -20.7575 -20.7568
   -20.7568 -20.5538 -20.5538 -20.3374  -8.9947  -8.9256  -8.9256  -8.9165
    -8.8537  -8.8537  -8.6176  -8.6176  -8.6079  -8.5713  -8.5713  -8.5643
    -7.3579  -6.4787  -6.4787  -5.9874  -5.9874  -5.8435  -5.8435  -5.7146
    -5.5964  -5.0277  -5.0277  -4.3836  -3.8512  -3.8512  -3.8295  -3.7252
    -3.7252  -3.6971  -3.6099  -3.6099  -3.5796  -3.5329  -3.4866  -3.4866

          k =-0.1498-0.0865 0.3111 ( 35246 PWs)   bands (ev):

   -21.2050 -20.9650 -20.9296 -20.8857 -20.8588 -20.8123 -20.7262 -20.6939
   -20.6522 -20.5566 -20.5282 -20.3774  -8.9675  -8.9408  -8.9249  -8.8990
    -8.8497  -8.8241  -8.6585  -8.6391  -8.6314  -8.5654  -8.5231  -8.5139
    -7.2226  -6.6216  -6.5095  -6.2490  -6.0572  -5.8539  -5.7059  -5.5989
    -5.4509  -5.0218  -4.9710  -4.5207  -3.9110  -3.8585  -3.8395  -3.7731
    -3.7615  -3.7241  -3.6431  -3.6049  -3.5548  -3.5449  -3.4985  -3.4783

          k = 0.2996 0.1730-0.6221 ( 35294 PWs)   bands (ev):

   -21.0737 -21.0720 -20.9491 -20.9426 -20.8577 -20.8576 -20.6876 -20.6867
   -20.5645 -20.5543 -20.4744 -20.4744  -8.9480  -8.9357  -8.9062  -8.9003
    -8.8513  -8.8057  -8.6758  -8.6577  -8.6448  -8.5541  -8.4908  -8.4821
    -6.9369  -6.8614  -6.5091  -6.4991  -6.0385  -5.9893  -5.6013  -5.5265
    -5.1481  -5.0754  -4.9365  -4.7325  -3.9689  -3.8735  -3.8288  -3.8178
    -3.7733  -3.7564  -3.6800  -3.6089  -3.5895  -3.5263  -3.4856  -3.4691

          k =-0.1498 0.0865 0.6221 ( 35318 PWs)   bands (ev):

   -21.1033 -21.0054 -20.9977 -20.9147 -20.8949 -20.8488 -20.6937 -20.6381
   -20.6078 -20.5263 -20.5143 -20.4498  -8.9488  -8.9319  -8.9107  -8.9042
    -8.8466  -8.8000  -8.6740  -8.6654  -8.6521  -8.5327  -8.5039  -8.4825
    -6.9804  -6.7343  -6.6970  -6.3160  -6.1538  -5.9957  -5.5978  -5.3957
    -5.2943  -5.0023  -4.9506  -4.7404  -3.9557  -3.8967  -3.8257  -3.8031
    -3.7748  -3.7522  -3.6897  -3.6086  -3.5790  -3.5248  -3.5049  -3.4586

          k = 0.2996 0.3460-0.3111 ( 35274 PWs)   bands (ev):

   -21.1358 -21.0245 -20.9623 -20.9289 -20.8836 -20.8317 -20.6955 -20.6210
   -20.6079 -20.5538 -20.5091 -20.4365  -8.9529  -8.9498  -8.9168  -8.8891
    -8.8422  -8.8183  -8.7061  -8.6773  -8.6525  -8.5474  -8.5166  -8.4926
    -6.9901  -6.7197  -6.5637  -6.3535  -6.3038  -5.8643  -5.5272  -5.4402
    -5.2951  -5.0491  -4.9498  -4.7023  -3.9146  -3.8735  -3.8338  -3.7960
    -3.7569  -3.7111  -3.6580  -3.6378  -3.5608  -3.5585  -3.4960  -3.4296

          k = 0.1498 0.2595 0.0000 ( 35223 PWs)   bands (ev):

   -21.2181 -20.9837 -20.9460 -20.8699 -20.8469 -20.7922 -20.7299 -20.6811
   -20.6512 -20.5589 -20.5385 -20.3705  -8.9820  -8.9388  -8.9289  -8.8988
    -8.8478  -8.8422  -8.6761  -8.6565  -8.6205  -8.5771  -8.5584  -8.5199
    -7.2141  -6.5296  -6.4534  -6.2769  -6.2478  -5.7708  -5.6265  -5.5160
    -5.4882  -5.0605  -5.0169  -4.4858  -3.8546  -3.8442  -3.8396  -3.7608
    -3.7282  -3.7100  -3.6379  -3.6233  -3.5698  -3.5472  -3.4691  -3.4539

          k = 0.2996-0.1730-1.2442 ( 35214 PWs)   bands (ev):

   -21.1280 -21.0979 -20.9519 -20.9093 -20.8418 -20.8153 -20.6829 -20.6778
   -20.5872 -20.5818 -20.4593 -20.4533  -8.9636  -8.9491  -8.9248  -8.8914
    -8.8368  -8.8349  -8.7251  -8.6888  -8.6376  -8.5590  -8.5505  -8.5114
    -6.8676  -6.8380  -6.5303  -6.4138  -6.1910  -5.8848  -5.4629  -5.4524
    -5.2847  -5.1633  -4.8529  -4.7171  -3.8642  -3.8445  -3.8327  -3.7866
    -3.7315  -3.7088  -3.6648  -3.6165  -3.6071  -3.5373  -3.4437  -3.4393

          k = 0.0000 0.0000 0.9332 ( 35218 PWs)   bands (ev):

   -21.0596 -21.0596 -20.9990 -20.9859 -20.8546 -20.8546 -20.6404 -20.6404
   -20.5456 -20.5340 -20.5085 -20.5085  -8.9485  -8.9485  -8.9244  -8.8574
    -8.8574  -8.8389  -8.7339  -8.6744  -8.6744  -8.5049  -8.5049  -8.4874
    -6.7838  -6.7838  -6.7408  -6.4386  -6.1232  -6.1231  -5.3214  -5.3214
    -5.2476  -5.0030  -5.0030  -4.8979  -3.8805  -3.8805  -3.8093  -3.7940
    -3.7327  -3.7327  -3.7031  -3.6070  -3.6070  -3.5292  -3.5292  -3.4112

          k = 0.4494 0.2595 0.0000 ( 35246 PWs)   bands (ev):

   -21.1478 -21.0301 -21.0229 -20.9107 -20.8106 -20.7987 -20.7102 -20.6940
   -20.5824 -20.5345 -20.5146 -20.4304  -8.9630  -8.9425  -8.9349  -8.8823
    -8.8600  -8.8119  -8.7350  -8.6793  -8.6502  -8.5548  -8.5443  -8.5143
    -6.9657  -6.6176  -6.5867  -6.5102  -6.1568  -5.8753  -5.5385  -5.4638
    -5.2111  -5.0764  -4.9776  -4.6791  -3.8548  -3.8483  -3.8367  -3.7797
    -3.7501  -3.7134  -3.6502  -3.6292  -3.5964  -3.5186  -3.4725  -3.4272

          k = 0.2996 0.1730 0.3111 ( 35259 PWs)   bands (ev):

   -21.1693 -20.9932 -20.9414 -20.9213 -20.8716 -20.8217 -20.7065 -20.6687
   -20.6357 -20.5430 -20.5138 -20.4044  -8.9598  -8.9461  -8.9181  -8.8828
    -8.8544  -8.8011  -8.6894  -8.6479  -8.6262  -8.5948  -8.5442  -8.5036
    -7.0906  -6.6001  -6.5703  -6.3143  -6.2274  -5.8582  -5.6183  -5.4801
    -5.4154  -5.0089  -4.9616  -4.5865  -3.9309  -3.8696  -3.8476  -3.8060
    -3.7788  -3.6934  -3.6696  -3.6101  -3.5406  -3.5399  -3.4857  -3.4621

          k = 0.4494-0.2595-0.9332 ( 35225 PWs)   bands (ev):

   -21.0782 -21.0736 -20.9780 -20.9529 -20.8630 -20.7992 -20.7331 -20.6613
   -20.5752 -20.5283 -20.4995 -20.4481  -8.9535  -8.9357  -8.9266  -8.8695
    -8.8405  -8.7872  -8.7098  -8.6744  -8.6433  -8.5997  -8.5423  -8.5153
    -6.8304  -6.7407  -6.6140  -6.4297  -6.2430  -5.8790  -5.6683  -5.4134
    -5.2022  -5.0076  -4.9751  -4.6832  -3.9399  -3.8868  -3.8647  -3.8187
    -3.7964  -3.7065  -3.6343  -3.6182  -3.5569  -3.5259  -3.4689  -3.4520

          k = 0.2996-0.3460-0.6221 ( 35256 PWs)   bands (ev):

   -21.0496 -21.0458 -20.9733 -20.9679 -20.8732 -20.8729 -20.6745 -20.6731
   -20.5615 -20.5569 -20.4763 -20.4692  -8.9535  -8.9095  -8.9009  -8.8855
    -8.8733  -8.7652  -8.7011  -8.6580  -8.6393  -8.5819  -8.5141  -8.5048
    -6.8293  -6.8029  -6.5587  -6.5163  -6.1076  -6.0802  -5.5231  -5.4717
    -5.1591  -5.1270  -4.9045  -4.7070  -3.9894  -3.8871  -3.8619  -3.8567
    -3.8200  -3.7083  -3.6321  -3.6212  -3.5795  -3.5076  -3.4960  -3.4558

          k = 0.0000 0.0000-1.8663 ( 35172 PWs)   bands (ev):

   -21.0258 -21.0152 -20.9490 -20.9490 -20.9458 -20.9458 -20.6132 -20.6132
   -20.6038 -20.6038 -20.4710 -20.4585  -8.9542  -8.8884  -8.8884  -8.8783
    -8.8783  -8.7473  -8.7009  -8.6630  -8.6256  -8.6256  -8.5349  -8.5349
    -6.8198  -6.6957  -6.4020  -6.4020  -6.3396  -6.3396  -5.3119  -5.3119
    -5.2784  -5.2784  -4.8586  -4.6816  -4.0011  -3.8894  -3.8894  -3.8833
    -3.8833  -3.6624  -3.6371  -3.5649  -3.5649  -3.5225  -3.5225  -3.4340

          k = 0.2996-0.3460 0.3111 ( 35274 PWs)   bands (ev):

   -21.1358 -21.0236 -20.9650 -20.9277 -20.8827 -20.8315 -20.6944 -20.6238
   -20.6098 -20.5499 -20.5091 -20.4372  -8.9591  -8.9371  -8.9249  -8.8799
    -8.8495  -8.8187  -8.7144  -8.6736  -8.6485  -8.5451  -8.5103  -8.5006
    -6.9915  -6.7006  -6.6082  -6.3380  -6.2569  -5.9132  -5.6062  -5.3394
    -5.2252  -5.1083  -4.9896  -4.6815  -3.9215  -3.8651  -3.8285  -3.7895
    -3.7651  -3.7106  -3.6654  -3.6479  -3.5675  -3.5358  -3.4963  -3.4339

     highest occupied level (ev):    -3.4112

!    total energy              =    -417.92258692 Ry
     estimated scf accuracy    <       0.00000009 Ry

     The total energy is the sum of the following terms:
     one-electron contribution =    -314.22798824 Ry
     hartree contribution      =     189.47296588 Ry
     xc contribution           =    -104.43881727 Ry
     ewald contribution        =    -188.72874729 Ry

     convergence has been achieved in  14 iterations

     Forces acting on atoms (cartesian axes, Ry/au):

     atom    1 type  2   force =    -0.01984216    0.07202232    0.04117673
     atom    2 type  2   force =     0.01984216   -0.07202232   -0.04117673
     atom    3 type  2   force =    -0.05245207   -0.05319497    0.04117673
     atom    4 type  2   force =     0.05245207    0.05319497   -0.04117673
     atom    5 type  2   force =     0.07229424   -0.01882734    0.04117673
     atom    6 type  2   force =    -0.07229424    0.01882734   -0.04117673
     atom    7 type  2   force =    -0.05623973    0.04333261   -0.03434204
     atom    8 type  2   force =     0.05623973   -0.04333261    0.03434204
     atom    9 type  2   force =    -0.00940728   -0.07037134   -0.03434204
     atom   10 type  2   force =     0.00940728    0.07037134    0.03434204
     atom   11 type  2   force =     0.06564701    0.02703873   -0.03434204
     atom   12 type  2   force =    -0.06564701   -0.02703873    0.03434204
     atom   13 type  1   force =     0.03286986   -0.05931294    0.03264191
     atom   14 type  1   force =    -0.03286986    0.05931294   -0.03264191
     atom   15 type  1   force =     0.03493158    0.05812261    0.03264191
     atom   16 type  1   force =    -0.03493158   -0.05812261   -0.03264191
     atom   17 type  1   force =    -0.06780144    0.00119033    0.03264191
     atom   18 type  1   force =     0.06780144   -0.00119033   -0.03264191
     atom   19 type  1   force =    -0.01452911   -0.01326128   -0.07371390
     atom   20 type  1   force =     0.01452911    0.01326128    0.07371390
     atom   21 type  1   force =     0.01874916   -0.00595194   -0.07371390
     atom   22 type  1   force =    -0.01874916    0.00595194    0.07371390
     atom   23 type  1   force =    -0.00422005    0.01921322   -0.07371390
     atom   24 type  1   force =     0.00422005   -0.01921322    0.07371390
     atom   25 type  1   force =    -0.02032713   -0.07342011   -0.00193615
     atom   26 type  1   force =     0.02032713    0.07342011    0.00193615
     atom   27 type  1   force =     0.07374725    0.01910625   -0.00193615
     atom   28 type  1   force =    -0.07374725   -0.01910625    0.00193615
     atom   29 type  1   force =    -0.05342012    0.05431387   -0.00193615
     atom   30 type  1   force =     0.05342012   -0.05431387    0.00193615
     atom   31 type  1   force =    -0.04785437    0.04653176    0.04006671
     atom   32 type  1   force =     0.04785437   -0.04653176   -0.04006671
     atom   33 type  1   force =    -0.01637050   -0.06470898    0.04006671
     atom   34 type  1   force =     0.01637050    0.06470898   -0.04006671
     atom   35 type  1   force =     0.06422487    0.01817722    0.04006671
     atom   36 type  1   force =    -0.06422487   -0.01817722   -0.04006671

     Total force =     0.470207     Total SCF correction =     0.000150


     Computing stress (Cartesian axis) and pressure

          total   stress  (Ry/bohr**3)                   (kbar)     P=     -100.17
  -0.00068458  -0.00000000   0.00000000         -100.70       -0.00        0.00
   0.00000000  -0.00068458  -0.00000000            0.00     -100.70       -0.00
   0.00000000  -0.00000000  -0.00067363            0.00       -0.00      -99.10


     Writing all to output data dir ./iceII/iceII.save/ :
     XML data file, charge density, pseudopotentials, collected wavefunctions

     init_run     :      2.97s CPU      3.07s WALL (       1 calls)
     electrons    :     15.21s CPU     16.00s WALL (       1 calls)
     forces       :      0.16s CPU      0.17s WALL (       1 calls)
     stress       :      1.27s CPU      1.31s WALL (       1 calls)

     Called by init_run:
     wfcinit      :      0.38s CPU      0.39s WALL (       1 calls)
     potinit      :      1.70s CPU      1.76s WALL (       1 calls)
     hinit0       :      0.68s CPU      0.69s WALL (       1 calls)

     Called by electrons:
     c_bands      :     10.80s CPU     10.95s WALL (      14 calls)
     sum_band     :      1.67s CPU      1.69s WALL (      14 calls)
     v_of_rho     :      4.25s CPU      4.84s WALL (      15 calls)
     newd         :      0.06s CPU      0.08s WALL (      15 calls)
     mix_rho      :      0.07s CPU      0.07s WALL (      14 calls)
     vdW_kernel   :      1.51s CPU      1.51s WALL (       1 calls)

     Called by c_bands:
     init_us_2    :      0.22s CPU      0.24s WALL (     124 calls)
     cegterg      :     10.42s CPU     10.54s WALL (      56 calls)

     Called by *egterg:
     cdiaghg      :      0.71s CPU      0.71s WALL (     188 calls)
     h_psi        :      8.14s CPU      8.23s WALL (     192 calls)
     s_psi        :      0.38s CPU      0.39s WALL (     192 calls)
     g_psi        :      0.02s CPU      0.02s WALL (     132 calls)

     Called by h_psi:
     h_psi:calbec :      0.62s CPU      0.62s WALL (     192 calls)
     vloc_psi     :      7.06s CPU      7.15s WALL (     192 calls)
     add_vuspsi   :      0.38s CPU      0.39s WALL (     192 calls)

     General routines
     calbec       :      0.86s CPU      0.87s WALL (     268 calls)
     fft          :      2.12s CPU      2.44s WALL (     967 calls)
     ffts         :      0.02s CPU      0.02s WALL (      14 calls)
     fftw         :      7.41s CPU      7.48s WALL (   18766 calls)

     Parallel routines

     PWSCF        :     20.02s CPU     21.33s WALL


   This run was terminated on:  16: 4: 3  26Mar2026            

=------------------------------------------------------------------------------=
   JOB DONE.
=------------------------------------------------------------------------------=
