
     Program PWSCF v.7.3.1 starts on 26Mar2026 at 16: 4: 5 

     This program is part of the open-source Quantum ESPRESSO suite
     for quantum simulation of materials; please cite
         "P. Giannozzi et al., J. Phys.:Condens. Matter 21 395502 (2009);
         "P. Giannozzi et al., J. Phys.:Condens. Matter 29 465901 (2017);
         "P. Giannozzi et al., J. Chem. Phys. 152 154105 (2020);
          URL http://www.quantum-espresso.org", 
     in publications or presentations arising from this work. More details at
     http://www.quantum-espresso.org/quote

     Parallel version (MPI), running on   128 processors

     MPI processes distributed on     1 nodes
     242731 MiB available memory on the printing compute node when the environment starts

     Waiting for input...
     Reading input from standard input

     Current dimensions of program PWSCF are:
     Max number of different atomic species (ntypx) = 10
     Max number of k-points (npk) =  40000
     Max angular momentum in pseudopotentials (lmaxx) =  4

     IMPORTANT: XC functional enforced from input :
     Exchange-correlation= VDW-DF2
                           (   1   4  13   0   2   0   0)
     Any further DFT definition will be discarded
     Please, verify this is what you really want


     K-points division:     npool     =       4
     R & G space division:  proc/nbgrp/npool/nimage =      32
     Subspace diagonalization in iterative solution of the eigenvalue problem:
     a serial algorithm will be used


     Parallelization info
     --------------------
     sticks:   dense  smooth     PW     G-vecs:    dense   smooth      PW
     Min         200     200     58                 8861     8861    1391
     Max         201     201     59                 8865     8865    1392
     Sum        6421    6421   1879               283615   283615   44533

     Using Slab Decomposition



     bravais-lattice index     =            5
     lattice parameter (alat)  =      15.6136  a.u.
     unit-cell volume          =    2459.2419 (a.u.)^3
     number of atoms/cell      =           36
     number of atomic types    =            2
     number of electrons       =        96.00
     number of Kohn-Sham states=           48
     kinetic-energy cutoff     =      90.0000  Ry
     charge density cutoff     =     360.0000  Ry
     scf convergence threshold =      1.0E-07
     mixing beta               =       0.7000
     number of iterations used =            8  plain     mixing
     Exchange-correlation= VDW-DF2
                           (   1   4  13   0   2   0   0)

     celldm(1)=  15.613596  celldm(2)=   0.000000  celldm(3)=   0.000000
     celldm(4)=  -0.392337  celldm(5)=   0.000000  celldm(6)=   0.000000

     crystal axes: (cart. coord. in units of alat)
               a(1) = (   0.834367  -0.481722   0.267909 )  
               a(2) = (   0.000000   0.963444   0.267909 )  
               a(3) = (  -0.834367  -0.481722   0.267909 )  

     reciprocal axes: (cart. coord. in units 2 pi/alat)
               b(1) = (  0.599257 -0.345981  1.244203 )  
               b(2) = ( -0.000000  0.691962  1.244203 )  
               b(3) = ( -0.599257 -0.345981  1.244203 )  


     PseudoPot. # 1 for H  read from file:
     ./H.pbe-van_ak.UPF
     MD5 check sum: 077eb6d537518a38cb46c6de387227b7
     Pseudo is Ultrasoft, Zval =  1.0
     Generated by new atomic code, or converted to UPF format
     Using radial grid of  615 points,  1 beta functions with: 
                l(1) =   0
     Q(r) pseudized with  8 coefficients,  rinner =    0.800

     PseudoPot. # 2 for O  read from file:
     ./O.pbe-van_ak.UPF
     MD5 check sum: 78c19812648e8988a0fe644b0f25305e
     Pseudo is Ultrasoft, Zval =  6.0
     Generated by new atomic code, or converted to UPF format
     Using radial grid of  737 points,  4 beta functions with: 
                l(1) =   0
                l(2) =   0
                l(3) =   1
                l(4) =   1
     Q(r) pseudized with  8 coefficients,  rinner =    0.800   0.800   0.800


     atomic species   valence    mass     pseudopotential
     H                 1.00     1.00800     H ( 1.00)
     O                 6.00    16.00000     O ( 1.00)

      6 Sym. Ops., with inversion, found



   Cartesian axes

     site n.     atom                  positions (alat units)
         1        O      tau(   1) = (  -0.4881587  -0.5153728   0.3102004  )
         2        O      tau(   2) = (   0.4881587   0.5153729   0.4935268  )
         3        O      tau(   3) = (   0.6904053  -0.1650714   0.3102004  )
         4        O      tau(   4) = (  -0.6904053   0.1650714   0.4935268  )
         5        O      tau(   5) = (  -0.2022466   0.6804442   0.3102004  )
         6        O      tau(   6) = (   0.2022466  -0.6804442   0.4935268  )
         7        O      tau(   7) = (   0.1208629   0.3351200   0.4137471  )
         8        O      tau(   8) = (  -0.1208629  -0.3351200   0.3899800  )
         9        O      tau(   9) = (  -0.3506539  -0.0628897   0.4137471  )
        10        O      tau(  10) = (   0.3506539   0.0628897   0.3899800  )
        11        O      tau(  11) = (   0.2297910  -0.2722304   0.4137471  )
        12        O      tau(  12) = (  -0.2297910   0.2722304   0.3899800  )
        13        H      tau(  13) = (  -0.5430428  -0.4102686   0.2622098  )
        14        H      tau(  14) = (   0.5430428   0.4102686   0.5415173  )
        15        H      tau(  15) = (   0.6268245  -0.2651546   0.2622098  )
        16        H      tau(  16) = (  -0.6268245   0.2651546   0.5415173  )
        17        H      tau(  17) = (  -0.0837816   0.6754232   0.2622098  )
        18        H      tau(  18) = (   0.0837817  -0.6754232   0.5415173  )
        19        H      tau(  19) = (  -0.4681736  -0.4859583   0.4327384  )
        20        H      tau(  20) = (   0.4681736   0.4859583   0.3709887  )
        21        H      tau(  21) = (   0.6549390  -0.1624711   0.4327384  )
        22        H      tau(  22) = (  -0.6549390   0.1624711   0.3709887  )
        23        H      tau(  23) = (  -0.1867654   0.6484294   0.4327384  )
        24        H      tau(  24) = (   0.1867654  -0.6484294   0.3709887  )
        25        H      tau(  25) = (   0.2718867  -0.1516220   0.4118766  )
        26        H      tau(  26) = (  -0.2718867   0.1516219   0.3918506  )
        27        H      tau(  27) = (  -0.0046349   0.3112717   0.4118766  )
        28        H      tau(  28) = (   0.0046349  -0.3112717   0.3918506  )
        29        H      tau(  29) = (  -0.2672518  -0.1596498   0.4118766  )
        30        H      tau(  30) = (   0.2672518   0.1596498   0.3918506  )
        31        H      tau(  31) = (   0.3136186  -0.3416266   0.3473301  )
        32        H      tau(  32) = (  -0.3136186   0.3416266   0.4563970  )
        33        H      tau(  33) = (   0.1390481   0.4424150   0.3473301  )
        34        H      tau(  34) = (  -0.1390480  -0.4424150   0.4563970  )
        35        H      tau(  35) = (  -0.4526667  -0.1007884   0.3473301  )
        36        H      tau(  36) = (   0.4526666   0.1007884   0.4563970  )

     number of k points=    14
                       cart. coord. in units 2pi/alat
        k(    1) = (   0.0000000   0.0000000   0.0000000), wk =   0.0312500
        k(    2) = (  -0.1498141  -0.0864952   0.3110508), wk =   0.1875000
        k(    3) = (   0.2996283   0.1729905  -0.6221017), wk =   0.0937500
        k(    4) = (  -0.1498141   0.0864952   0.6221017), wk =   0.1875000
        k(    5) = (   0.2996283   0.3459809  -0.3110508), wk =   0.1875000
        k(    6) = (   0.1498141   0.2594857   0.0000000), wk =   0.1875000
        k(    7) = (   0.2996283  -0.1729905  -1.2442034), wk =   0.0937500
        k(    8) = (   0.0000000   0.0000000   0.9331525), wk =   0.0625000
        k(    9) = (   0.4494424   0.2594857   0.0000000), wk =   0.1875000
        k(   10) = (   0.2996283   0.1729905   0.3110508), wk =   0.1875000
        k(   11) = (   0.4494424  -0.2594857  -0.9331525), wk =   0.1875000
        k(   12) = (   0.2996283  -0.3459809  -0.6221017), wk =   0.1875000
        k(   13) = (   0.0000000   0.0000000  -1.8663050), wk =   0.0312500
        k(   14) = (   0.2996283  -0.3459809   0.3110508), wk =   0.1875000

     Dense  grid:   283615 G-vectors     FFT dimensions: (  96,  96,  96)

     Estimated max dynamical RAM per process >      18.19 MB

     Estimated total dynamical RAM >       2.07 GB

     Initial potential from superposition of free atoms

     starting charge      95.9998, renormalised to      96.0000


     %%%%%%%%%%%%%%%%%%%%%%%%%%%%%%%%%%%%%%%%%%%%%%%%%%%%%%%%%%%%%%%%%%%%%%%%
     %                                                                      %
     % You are using vdW-DF, which was implemented by the Thonhauser group. %
     % Please cite the following two papers that made this development      %
     % possible and the two reviews that describe the various versions:     %
     %                                                                      %
     %   T. Thonhauser et al., PRL 115, 136402 (2015).                      %
     %   T. Thonhauser et al., PRB 76, 125112 (2007).                       %
     %   K. Berland et al., Rep. Prog. Phys. 78, 066501 (2015).             %
     %   D.C. Langreth et al., J. Phys.: Condens. Matter 21, 084203 (2009). %
     %                                                                      %
     % If you are calculating stress with vdW-DF, please also cite:         %
     %                                                                      %
     %   R. Sabatini et al., J. Phys.: Condens. Matter 24, 424209 (2012).   %
     %                                                                      %
     %%%%%%%%%%%%%%%%%%%%%%%%%%%%%%%%%%%%%%%%%%%%%%%%%%%%%%%%%%%%%%%%%%%%%%%%

     %%%%%%%%%%%%%%%%%%%%%%%%%%%%%%%%%%%%%%%%%%%%%%%%%%%%%%%%%%%%%%%%%%%%%%%%
     %                                                                      %
     %  vdW-DF NEWS:                                                        %
     %                                                                      %
     %  * vdW-DF3 is now available. DOI: 10.1021/acs.jctc.0c00471           %
     %    use with input_dft = 'vdW-DF3-opt1' or 'vdW-DF3-opt2'             %
     %                                                                      %
     %  * Unscreened and range-separated hybrid vdW-DF-cx functionals       %
     %    DOI: 10.1063/1.4986522 and 10.1088/1361-648X/ac2ad2               %
     %    use with input_dft = 'vdW-DF-cx0'    and 'vdW-DF-ahcx'            %
     %  * Unscreened and range-separated hybrid vdW-DF2-b86r functionals    %
     %    DOI: 10.1063/1.4986522 and DOI: 10.1103/PhysRevX.12.041003        %
     %    use with input_dft = 'vdW-DF2-br0' and 'vdW-DF2-ahbr'             %
     %                                                                      %
     %%%%%%%%%%%%%%%%%%%%%%%%%%%%%%%%%%%%%%%%%%%%%%%%%%%%%%%%%%%%%%%%%%%%%%%%


     Starting wfcs are   72 randomized atomic wfcs

     total cpu time spent up to now is        3.3 secs

     per-process dynamical memory:    21.5 Mb

     Self-consistent Calculation

     iteration #  1     ecut=    90.00 Ry     beta= 0.70
     Davidson diagonalization with overlap
     ethr =  1.00E-02,  avg # of iterations =  2.0

     negative rho (up, down):  2.416E-07 0.000E+00

     total cpu time spent up to now is        4.4 secs

     total energy              =    -415.81481306 Ry
     estimated scf accuracy    <       4.48842281 Ry

     iteration #  2     ecut=    90.00 Ry     beta= 0.70
     Davidson diagonalization with overlap
     ethr =  4.68E-03,  avg # of iterations =  3.0

     total cpu time spent up to now is        5.8 secs

     total energy              =    -417.23676995 Ry
     estimated scf accuracy    <       4.07828920 Ry

     iteration #  3     ecut=    90.00 Ry     beta= 0.70
     Davidson diagonalization with overlap
     ethr =  4.25E-03,  avg # of iterations =  2.0

     total cpu time spent up to now is        6.8 secs

     total energy              =    -417.74933114 Ry
     estimated scf accuracy    <       0.20340951 Ry

     iteration #  4     ecut=    90.00 Ry     beta= 0.70
     Davidson diagonalization with overlap
     ethr =  2.12E-04,  avg # of iterations =  4.0

     negative rho (up, down):  2.443E-07 0.000E+00

     total cpu time spent up to now is        8.3 secs

     total energy              =    -417.90390971 Ry
     estimated scf accuracy    <       0.21809782 Ry

     iteration #  5     ecut=    90.00 Ry     beta= 0.70
     Davidson diagonalization with overlap
     ethr =  2.12E-04,  avg # of iterations =  1.1

     negative rho (up, down):  1.039E-06 0.000E+00

     total cpu time spent up to now is        9.2 secs

     total energy              =    -417.90494726 Ry
     estimated scf accuracy    <       0.03710281 Ry

     iteration #  6     ecut=    90.00 Ry     beta= 0.70
     Davidson diagonalization with overlap
     ethr =  3.86E-05,  avg # of iterations =  2.0

     negative rho (up, down):  1.229E-06 0.000E+00

     total cpu time spent up to now is       10.3 secs

     total energy              =    -417.91269143 Ry
     estimated scf accuracy    <       0.00130228 Ry

     iteration #  7     ecut=    90.00 Ry     beta= 0.70
     Davidson diagonalization with overlap
     ethr =  1.36E-06,  avg # of iterations =  2.4

     negative rho (up, down):  1.236E-06 0.000E+00

     total cpu time spent up to now is       11.5 secs

     total energy              =    -417.91343912 Ry
     estimated scf accuracy    <       0.00031609 Ry

     iteration #  8     ecut=    90.00 Ry     beta= 0.70
     Davidson diagonalization with overlap
     ethr =  3.29E-07,  avg # of iterations =  2.1

     negative rho (up, down):  1.067E-06 0.000E+00

     total cpu time spent up to now is       12.6 secs

     total energy              =    -417.91337952 Ry
     estimated scf accuracy    <       0.00060608 Ry

     iteration #  9     ecut=    90.00 Ry     beta= 0.70
     Davidson diagonalization with overlap
     ethr =  3.29E-07,  avg # of iterations =  1.0

     negative rho (up, down):  9.510E-07 0.000E+00

     total cpu time spent up to now is       13.4 secs

     total energy              =    -417.91322101 Ry
     estimated scf accuracy    <       0.00036130 Ry

     iteration # 10     ecut=    90.00 Ry     beta= 0.70
     Davidson diagonalization with overlap
     ethr =  3.29E-07,  avg # of iterations =  2.0

     negative rho (up, down):  9.663E-07 0.000E+00

     total cpu time spent up to now is       14.6 secs

     total energy              =    -417.91327982 Ry
     estimated scf accuracy    <       0.00001266 Ry

     iteration # 11     ecut=    90.00 Ry     beta= 0.70
     Davidson diagonalization with overlap
     ethr =  1.32E-08,  avg # of iterations =  4.0

     negative rho (up, down):  9.896E-07 0.000E+00

     total cpu time spent up to now is       16.1 secs

     total energy              =    -417.91329001 Ry
     estimated scf accuracy    <       0.00000907 Ry

     iteration # 12     ecut=    90.00 Ry     beta= 0.70
     Davidson diagonalization with overlap
     ethr =  9.45E-09,  avg # of iterations =  2.0

     negative rho (up, down):  1.023E-06 0.000E+00

     total cpu time spent up to now is       17.1 secs

     total energy              =    -417.91328961 Ry
     estimated scf accuracy    <       0.00000202 Ry

     iteration # 13     ecut=    90.00 Ry     beta= 0.70
     Davidson diagonalization with overlap
     ethr =  2.11E-09,  avg # of iterations =  2.6

     negative rho (up, down):  1.021E-06 0.000E+00

     total cpu time spent up to now is       18.3 secs

     total energy              =    -417.91329033 Ry
     estimated scf accuracy    <       0.00000050 Ry

     iteration # 14     ecut=    90.00 Ry     beta= 0.70
     Davidson diagonalization with overlap
     ethr =  5.25E-10,  avg # of iterations =  1.0

     negative rho (up, down):  1.019E-06 0.000E+00

     total cpu time spent up to now is       19.1 secs

     total energy              =    -417.91329022 Ry
     estimated scf accuracy    <       0.00000034 Ry

     iteration # 15     ecut=    90.00 Ry     beta= 0.70
     Davidson diagonalization with overlap
     ethr =  3.50E-10,  avg # of iterations =  2.0

     negative rho (up, down):  1.017E-06 0.000E+00

     total cpu time spent up to now is       20.1 secs

     End of self-consistent calculation

          k = 0.0000 0.0000 0.0000 ( 35413 PWs)   bands (ev):

   -21.2567 -20.9398 -20.9398 -20.7960 -20.7960 -20.7695 -20.7636 -20.7628
   -20.7628 -20.5623 -20.5623 -20.3483  -8.9991  -8.9300  -8.9300  -8.9214
    -8.8593  -8.8593  -8.6243  -8.6243  -8.6146  -8.5785  -8.5785  -8.5711
    -7.3671  -6.4932  -6.4932  -6.0052  -6.0052  -5.8620  -5.8620  -5.7342
    -5.6159  -5.0504  -5.0504  -4.4089  -3.8703  -3.8703  -3.8489  -3.7456
    -3.7456  -3.7177  -3.6309  -3.6309  -3.6010  -3.5550  -3.5090  -3.5090

          k =-0.1498-0.0865 0.3111 ( 35501 PWs)   bands (ev):

   -21.2060 -20.9690 -20.9340 -20.8904 -20.8637 -20.8179 -20.7327 -20.7007
   -20.6596 -20.5650 -20.5369 -20.3879  -8.9721  -8.9453  -8.9295  -8.9039
    -8.8554  -8.8298  -8.6648  -8.6456  -8.6380  -8.5726  -8.5308  -8.5213
    -7.2328  -6.6354  -6.5240  -6.2652  -6.0748  -5.8725  -5.7251  -5.6189
    -5.4713  -5.0446  -4.9940  -4.5456  -3.9295  -3.8775  -3.8588  -3.7929
    -3.7815  -3.7446  -3.6640  -3.6262  -3.5765  -3.5667  -3.5207  -3.5007

          k = 0.2996 0.1730-0.6221 ( 35490 PWs)   bands (ev):

   -21.0761 -21.0747 -20.9531 -20.9469 -20.8627 -20.8627 -20.6945 -20.6936
   -20.5729 -20.5627 -20.4838 -20.4837  -8.9526  -8.9404  -8.9114  -8.9051
    -8.8569  -8.8116  -8.6820  -8.6638  -8.6514  -8.5613  -8.4987  -8.4901
    -6.9486  -6.8741  -6.5238  -6.5137  -6.0560  -6.0072  -5.6210  -5.5466
    -5.1704  -5.0974  -4.9594  -4.7567  -3.9868  -3.8922  -3.8481  -3.8372
    -3.7931  -3.7767  -3.7006  -3.6301  -3.6107  -3.5482  -3.5079  -3.4914

          k =-0.1498 0.0865 0.6221 ( 35495 PWs)   bands (ev):

   -21.1054 -21.0087 -21.0012 -20.9192 -20.8995 -20.8540 -20.7005 -20.6456
   -20.6156 -20.5351 -20.5232 -20.4594  -8.9534  -8.9366  -8.9157  -8.9091
    -8.8524  -8.8061  -8.6801  -8.6716  -8.6583  -8.5402  -8.5116  -8.4904
    -6.9921  -6.7474  -6.7105  -6.3317  -6.1708  -6.0134  -5.6176  -5.4164
    -5.3155  -5.0249  -4.9738  -4.7642  -3.9738  -3.9153  -3.8451  -3.8226
    -3.7949  -3.7722  -3.7102  -3.6298  -3.6004  -3.5466  -3.5270  -3.4810

          k = 0.2996 0.3460-0.3111 ( 35460 PWs)   bands (ev):

   -21.1376 -21.0276 -20.9663 -20.9331 -20.8885 -20.8370 -20.7024 -20.6288
   -20.6157 -20.5623 -20.5181 -20.4463  -8.9575  -8.9545  -8.9216  -8.8943
    -8.8478  -8.8239  -8.7118  -8.6833  -8.6587  -8.5548  -8.5242  -8.5005
    -7.0018  -6.7329  -6.5782  -6.3690  -6.3198  -5.8830  -5.5475  -5.4606
    -5.3164  -5.0714  -4.9731  -4.7266  -3.9332  -3.8923  -3.8530  -3.8157
    -3.7769  -3.7316  -3.6787  -3.6588  -3.5824  -3.5801  -3.5183  -3.4524

          k = 0.1498 0.2595 0.0000 ( 35429 PWs)   bands (ev):

   -21.2190 -20.9873 -20.9501 -20.8749 -20.8521 -20.7980 -20.7364 -20.6881
   -20.6585 -20.5673 -20.5472 -20.3810  -8.9865  -8.9434  -8.9335  -8.9038
    -8.8532  -8.8477  -8.6821  -8.6628  -8.6269  -8.5840  -8.5657  -8.5274
    -7.2244  -6.5438  -6.4685  -6.2928  -6.2640  -5.7898  -5.6465  -5.5363
    -5.5084  -5.0831  -5.0395  -4.5110  -3.8737  -3.8635  -3.8589  -3.7807
    -3.7484  -3.7305  -3.6588  -3.6443  -3.5915  -3.5690  -3.4916  -3.4765

          k = 0.2996-0.1730-1.2442 ( 35430 PWs)   bands (ev):

   -21.1298 -21.1002 -20.9559 -20.9140 -20.8470 -20.8210 -20.6899 -20.6850
   -20.5953 -20.5899 -20.4688 -20.4629  -8.9682  -8.9539  -8.9296  -8.8965
    -8.8421  -8.8401  -8.7304  -8.6948  -8.6438  -8.5663  -8.5577  -8.5191
    -6.8803  -6.8507  -6.5449  -6.4291  -6.2073  -5.9032  -5.4836  -5.4733
    -5.3060  -5.1852  -4.8763  -4.7416  -3.8832  -3.8637  -3.8523  -3.8061
    -3.7516  -3.7292  -3.6856  -3.6379  -3.6282  -3.5591  -3.4664  -3.4620

          k = 0.0000 0.0000 0.9332 ( 35467 PWs)   bands (ev):

   -21.0622 -21.0622 -21.0024 -20.9896 -20.8598 -20.8598 -20.6479 -20.6479
   -20.5541 -20.5428 -20.5174 -20.5174  -8.9531  -8.9531  -8.9292  -8.8628
    -8.8628  -8.8443  -8.7393  -8.6804  -8.6804  -8.5127  -8.5127  -8.4954
    -6.7968  -6.7968  -6.7536  -6.4543  -6.1401  -6.1401  -5.3426  -5.3426
    -5.2688  -5.0260  -5.0260  -4.9210  -3.8994  -3.8994  -3.8288  -3.8137
    -3.7529  -3.7529  -3.7237  -3.6281  -3.6281  -3.5511  -3.5511  -3.4342

          k = 0.4494 0.2595 0.0000 ( 35477 PWs)   bands (ev):

   -21.1494 -21.0330 -21.0260 -20.9154 -20.8163 -20.8044 -20.7170 -20.7008
   -20.5905 -20.5431 -20.5235 -20.4402  -8.9677  -8.9473  -8.9397  -8.8875
    -8.8652  -8.8174  -8.7404  -8.6852  -8.6563  -8.5621  -8.5517  -8.5220
    -6.9777  -6.6314  -6.6010  -6.5252  -6.1733  -5.8936  -5.5589  -5.4845
    -5.2329  -5.0989  -5.0004  -4.7037  -3.8739  -3.8675  -3.8562  -3.7992
    -3.7702  -3.7338  -3.6711  -3.6502  -3.6180  -3.5406  -3.4950  -3.4501

          k = 0.2996 0.1730 0.3111 ( 35457 PWs)   bands (ev):

   -21.1707 -20.9968 -20.9457 -20.9255 -20.8764 -20.8272 -20.7133 -20.6758
   -20.6432 -20.5515 -20.5228 -20.4146  -8.9645  -8.9507  -8.9229  -8.8879
    -8.8600  -8.8068  -8.6953  -8.6542  -8.6328  -8.6018  -8.5513  -8.5113
    -7.1017  -6.6143  -6.5845  -6.3298  -6.2439  -5.8770  -5.6379  -5.5008
    -5.4360  -5.0317  -4.9845  -4.6113  -3.9493  -3.8885  -3.8667  -3.8255
    -3.7986  -3.7140  -3.6903  -3.6312  -3.5624  -3.5616  -3.5081  -3.4846

          k = 0.4494-0.2595-0.9332 ( 35445 PWs)   bands (ev):

   -21.0806 -21.0763 -20.9816 -20.9571 -20.8680 -20.8048 -20.7396 -20.6685
   -20.5834 -20.5370 -20.5086 -20.4577  -8.9582  -8.9405  -8.9315  -8.8748
    -8.8461  -8.7929  -8.7156  -8.6804  -8.6496  -8.6065  -8.5495  -8.5229
    -6.8431  -6.7541  -6.6281  -6.4449  -6.2591  -5.8973  -5.6881  -5.4343
    -5.2242  -5.0303  -4.9981  -4.7076  -3.9583  -3.9055  -3.8837  -3.8381
    -3.8159  -3.7267  -3.6553  -3.6393  -3.5786  -3.5478  -3.4914  -3.4747

          k = 0.2996-0.3460-0.6221 ( 35430 PWs)   bands (ev):

   -21.0523 -21.0488 -20.9770 -20.9718 -20.8780 -20.8777 -20.6816 -20.6802
   -20.5699 -20.5654 -20.4857 -20.4785  -8.9581  -8.9143  -8.9060  -8.8907
    -8.8788  -8.7714  -8.7071  -8.6639  -8.6459  -8.5889  -8.5216  -8.5124
    -6.8421  -6.8158  -6.5730  -6.5309  -6.1245  -6.0975  -5.5434  -5.4925
    -5.1811  -5.1490  -4.9279  -4.7310  -4.0073  -3.9057  -3.8809  -3.8756
    -3.8396  -3.7285  -3.6530  -3.6423  -3.6009  -3.5297  -3.5181  -3.4785

          k = 0.0000 0.0000-1.8663 ( 35442 PWs)   bands (ev):

   -21.0290 -21.0188 -20.9530 -20.9530 -20.9497 -20.9497 -20.6209 -20.6209
   -20.6118 -20.6118 -20.4805 -20.4680  -8.9589  -8.8938  -8.8938  -8.8835
    -8.8835  -8.7534  -8.7072  -8.6687  -8.6324  -8.6324  -8.5422  -8.5422
    -6.8327  -6.7094  -6.4171  -6.4171  -6.3555  -6.3555  -5.3337  -5.3337
    -5.2997  -5.2997  -4.8824  -4.7056  -4.0192  -3.9081  -3.9081  -3.9020
    -3.9020  -3.6828  -3.6580  -3.5864  -3.5864  -3.5445  -3.5445  -3.4570

          k = 0.2996-0.3460 0.3111 ( 35460 PWs)   bands (ev):

   -21.1376 -21.0267 -20.9689 -20.9320 -20.8877 -20.8368 -20.7013 -20.6313
   -20.6177 -20.5584 -20.5181 -20.4470  -8.9637  -8.9418  -8.9297  -8.8852
    -8.8549  -8.8244  -8.7200  -8.6796  -8.6548  -8.5526  -8.5179  -8.5084
    -7.0031  -6.7142  -6.6221  -6.3537  -6.2733  -5.9314  -5.6258  -5.3609
    -5.2467  -5.1307  -5.0120  -4.7061  -3.9399  -3.8840  -3.8479  -3.8092
    -3.7850  -3.7310  -3.6861  -3.6688  -3.5889  -3.5576  -3.5185  -3.4567

     highest occupied level (ev):    -3.4342

!    total energy              =    -417.91329022 Ry
     estimated scf accuracy    <       0.00000004 Ry

     The total energy is the sum of the following terms:
     one-electron contribution =    -314.86327704 Ry
     hartree contribution      =     189.71671063 Ry
     xc contribution           =    -104.39339788 Ry
     ewald contribution        =    -188.37332592 Ry

     convergence has been achieved in  15 iterations

     Forces acting on atoms (cartesian axes, Ry/au):

     atom    1 type  2   force =    -0.02035333    0.07401485    0.04219176
     atom    2 type  2   force =     0.02035333   -0.07401485   -0.04219176
     atom    3 type  2   force =    -0.05392208   -0.05463393    0.04219176
     atom    4 type  2   force =     0.05392208    0.05463393   -0.04219176
     atom    5 type  2   force =     0.07427541   -0.01938093    0.04219176
     atom    6 type  2   force =    -0.07427541    0.01938093   -0.04219176
     atom    7 type  2   force =    -0.05793513    0.04449132   -0.03531226
     atom    8 type  2   force =     0.05793513   -0.04449132    0.03531226
     atom    9 type  2   force =    -0.00956305   -0.07241895   -0.03531226
     atom   10 type  2   force =     0.00956305    0.07241895    0.03531226
     atom   11 type  2   force =     0.06749818    0.02792764   -0.03531226
     atom   12 type  2   force =    -0.06749818   -0.02792764    0.03531226
     atom   13 type  1   force =     0.03371609   -0.06090206    0.03356691
     atom   14 type  1   force =    -0.03371609    0.06090206   -0.03356691
     atom   15 type  1   force =     0.03588468    0.05965002    0.03356691
     atom   16 type  1   force =    -0.03588468   -0.05965002   -0.03356691
     atom   17 type  1   force =    -0.06960077    0.00125204    0.03356691
     atom   18 type  1   force =     0.06960077   -0.00125204   -0.03356691
     atom   19 type  1   force =    -0.01491786   -0.01360185   -0.07567400
     atom   20 type  1   force =     0.01491786    0.01360185    0.07567400
     atom   21 type  1   force =     0.01923848   -0.00611832   -0.07567400
     atom   22 type  1   force =    -0.01923848    0.00611832    0.07567400
     atom   23 type  1   force =    -0.00432062    0.01972017   -0.07567400
     atom   24 type  1   force =     0.00432062   -0.01972017    0.07567400
     atom   25 type  1   force =    -0.02085590   -0.07534597   -0.00201497
     atom   26 type  1   force =     0.02085590    0.07534597    0.00201497
     atom   27 type  1   force =     0.07567947    0.01961125   -0.00201497
     atom   28 type  1   force =    -0.07567947   -0.01961125    0.00201497
     atom   29 type  1   force =    -0.05482357    0.05573472   -0.00201497
     atom   30 type  1   force =     0.05482357   -0.05573472    0.00201497
     atom   31 type  1   force =    -0.04911775    0.04777119    0.04109472
     atom   32 type  1   force =     0.04911775   -0.04777119   -0.04109472
     atom   33 type  1   force =    -0.01681219   -0.06642281    0.04109472
     atom   34 type  1   force =     0.01681219    0.06642281   -0.04109472
     atom   35 type  1   force =     0.06592994    0.01865163    0.04109472
     atom   36 type  1   force =    -0.06592994   -0.01865163   -0.04109472

     Total force =     0.482877     Total SCF correction =     0.000117


     Computing stress (Cartesian axis) and pressure

          total   stress  (Ry/bohr**3)                   (kbar)     P=     -102.27
  -0.00069882  -0.00000000  -0.00000000         -102.80       -0.00       -0.00
   0.00000000  -0.00069882  -0.00000000            0.00     -102.80       -0.00
  -0.00000000  -0.00000000  -0.00068795           -0.00       -0.00     -101.20


     Writing all to output data dir ./iceII/iceII.save/ :
     XML data file, charge density, pseudopotentials, collected wavefunctions

     init_run     :      2.96s CPU      3.07s WALL (       1 calls)
     electrons    :     16.23s CPU     16.91s WALL (       1 calls)
     forces       :      0.16s CPU      0.17s WALL (       1 calls)
     stress       :      1.28s CPU      1.32s WALL (       1 calls)

     Called by init_run:
     wfcinit      :      0.38s CPU      0.39s WALL (       1 calls)
     potinit      :      1.71s CPU      1.77s WALL (       1 calls)
     hinit0       :      0.67s CPU      0.69s WALL (       1 calls)

     Called by electrons:
     c_bands      :     11.42s CPU     11.53s WALL (      15 calls)
     sum_band     :      1.79s CPU      1.82s WALL (      15 calls)
     v_of_rho     :      4.48s CPU      5.04s WALL (      16 calls)
     newd         :      0.09s CPU      0.10s WALL (      16 calls)
     mix_rho      :      0.08s CPU      0.08s WALL (      15 calls)
     vdW_kernel   :      1.50s CPU      1.52s WALL (       1 calls)

     Called by c_bands:
     init_us_2    :      0.25s CPU      0.26s WALL (     132 calls)
     cegterg      :     10.97s CPU     11.05s WALL (      60 calls)

     Called by *egterg:
     cdiaghg      :      0.72s CPU      0.72s WALL (     192 calls)
     h_psi        :      8.60s CPU      8.65s WALL (     196 calls)
     s_psi        :      0.39s CPU      0.41s WALL (     196 calls)
     g_psi        :      0.02s CPU      0.02s WALL (     132 calls)

     Called by h_psi:
     h_psi:calbec :      0.64s CPU      0.64s WALL (     196 calls)
     vloc_psi     :      7.49s CPU      7.53s WALL (     196 calls)
     add_vuspsi   :      0.40s CPU      0.40s WALL (     196 calls)

     General routines
     calbec       :      0.90s CPU      0.91s WALL (     276 calls)
     fft          :      2.24s CPU      2.54s WALL (    1028 calls)
     ffts         :      0.02s CPU      0.02s WALL (      15 calls)
     fftw         :      7.88s CPU      7.92s WALL (   19864 calls)

     Parallel routines

     PWSCF        :     20.92s CPU     22.10s WALL


   This run was terminated on:  16: 4:27  26Mar2026            

=------------------------------------------------------------------------------=
   JOB DONE.
=------------------------------------------------------------------------------=
