
     Program PWSCF v.7.3.1 starts on  1Apr2026 at 16:14:23 

     This program is part of the open-source Quantum ESPRESSO suite
     for quantum simulation of materials; please cite
         "P. Giannozzi et al., J. Phys.:Condens. Matter 21 395502 (2009);
         "P. Giannozzi et al., J. Phys.:Condens. Matter 29 465901 (2017);
         "P. Giannozzi et al., J. Chem. Phys. 152 154105 (2020);
          URL http://www.quantum-espresso.org", 
     in publications or presentations arising from this work. More details at
     http://www.quantum-espresso.org/quote

     Parallel version (MPI), running on   128 processors

     MPI processes distributed on     1 nodes
     242461 MiB available memory on the printing compute node when the environment starts

     Waiting for input...
     Reading input from standard input

     Current dimensions of program PWSCF are:
     Max number of different atomic species (ntypx) = 10
     Max number of k-points (npk) =  40000
     Max angular momentum in pseudopotentials (lmaxx) =  4

     IMPORTANT: XC functional enforced from input :
     Exchange-correlation= VDW-DF2
                           (   1   4  13   0   2   0   0)
     Any further DFT definition will be discarded
     Please, verify this is what you really want


     K-points division:     npool     =       4
     R & G space division:  proc/nbgrp/npool/nimage =      32
     Subspace diagonalization in iterative solution of the eigenvalue problem:
     a serial algorithm will be used


     Parallelization info
     --------------------
     sticks:   dense  smooth     PW     G-vecs:    dense   smooth      PW
     Min         201     201     58                 8885     8885    1396
     Max         202     202     59                 8887     8887    1399
     Sum        6439    6439   1887               284353   284353   44731

     Using Slab Decomposition



     bravais-lattice index     =            5
     lattice parameter (alat)  =      15.6283  a.u.
     unit-cell volume          =    2466.1955 (a.u.)^3
     number of atoms/cell      =           36
     number of atomic types    =            2
     number of electrons       =        96.00
     number of Kohn-Sham states=           48
     kinetic-energy cutoff     =      90.0000  Ry
     charge density cutoff     =     360.0000  Ry
     scf convergence threshold =      1.0E-07
     mixing beta               =       0.7000
     number of iterations used =            8  plain     mixing
     energy convergence thresh.=      1.0E-04
     force convergence thresh. =      1.0E-03
     Exchange-correlation= VDW-DF2
                           (   1   4  13   0   2   0   0)
     nstep                     =           50


     celldm(1)=  15.628298  celldm(2)=   0.000000  celldm(3)=   0.000000
     celldm(4)=  -0.392337  celldm(5)=   0.000000  celldm(6)=   0.000000

     crystal axes: (cart. coord. in units of alat)
               a(1) = (   0.834367  -0.481722   0.267909 )  
               a(2) = (   0.000000   0.963444   0.267909 )  
               a(3) = (  -0.834367  -0.481722   0.267909 )  

     reciprocal axes: (cart. coord. in units 2 pi/alat)
               b(1) = (  0.599257 -0.345981  1.244203 )  
               b(2) = (  0.000000  0.691962  1.244203 )  
               b(3) = ( -0.599257 -0.345981  1.244203 )  


     PseudoPot. # 1 for H  read from file:
     ./H.pbe-van_ak.UPF
     MD5 check sum: 077eb6d537518a38cb46c6de387227b7
     Pseudo is Ultrasoft, Zval =  1.0
     Generated by new atomic code, or converted to UPF format
     Using radial grid of  615 points,  1 beta functions with: 
                l(1) =   0
     Q(r) pseudized with  8 coefficients,  rinner =    0.800

     PseudoPot. # 2 for O  read from file:
     ./O.pbe-van_ak.UPF
     MD5 check sum: 78c19812648e8988a0fe644b0f25305e
     Pseudo is Ultrasoft, Zval =  6.0
     Generated by new atomic code, or converted to UPF format
     Using radial grid of  737 points,  4 beta functions with: 
                l(1) =   0
                l(2) =   0
                l(3) =   1
                l(4) =   1
     Q(r) pseudized with  8 coefficients,  rinner =    0.800   0.800   0.800


     atomic species   valence    mass     pseudopotential
     H                 1.00     1.00800     H ( 1.00)
     O                 6.00    16.00000     O ( 1.00)

      6 Sym. Ops., with inversion, found



   Cartesian axes

     site n.     atom                  positions (alat units)
         1        O      tau(   1) = (  -0.4847673  -0.5197781   0.3083633  )
         2        O      tau(   2) = (   0.4847673   0.5197782   0.4953638  )
         3        O      tau(   3) = (   0.6925247  -0.1599317   0.3083633  )
         4        O      tau(   4) = (  -0.6925248   0.1599317   0.4953638  )
         5        O      tau(   5) = (  -0.2077574   0.6797099   0.3083633  )
         6        O      tau(   6) = (   0.2077574  -0.6797099   0.4953638  )
         7        O      tau(   7) = (   0.1218176   0.3323883   0.4179381  )
         8        O      tau(   8) = (  -0.1218176  -0.3323883   0.3857890  )
         9        O      tau(   9) = (  -0.3487655  -0.0606970   0.4179381  )
        10        O      tau(  10) = (   0.3487655   0.0606970   0.3857890  )
        11        O      tau(  11) = (   0.2269479  -0.2716913   0.4179381  )
        12        O      tau(  12) = (  -0.2269479   0.2716912   0.3857890  )
        13        H      tau(  13) = (  -0.5381668  -0.4032014   0.2796970  )
        14        H      tau(  14) = (   0.5381668   0.4032014   0.5240301  )
        15        H      tau(  15) = (   0.6182661  -0.2644654   0.2796970  )
        16        H      tau(  16) = (  -0.6182661   0.2644654   0.5240301  )
        17        H      tau(  17) = (  -0.0800993   0.6676668   0.2796970  )
        18        H      tau(  18) = (   0.0800993  -0.6676668   0.5240301  )
        19        H      tau(  19) = (  -0.4872704  -0.4817221   0.4326731  )
        20        H      tau(  20) = (   0.4872704   0.4817221   0.3710540  )
        21        H      tau(  21) = (   0.6608188  -0.1811275   0.4326731  )
        22        H      tau(  22) = (  -0.6608188   0.1811275   0.3710540  )
        23        H      tau(  23) = (  -0.1735484   0.6628496   0.4326731  )
        24        H      tau(  24) = (   0.1735484  -0.6628496   0.3710540  )
        25        H      tau(  25) = (   0.2703349  -0.1502973   0.4058822  )
        26        H      tau(  26) = (  -0.2703350   0.1502973   0.3978449  )
        27        H      tau(  27) = (  -0.0050062   0.3092656   0.4058822  )
        28        H      tau(  28) = (   0.0050062  -0.3092656   0.3978449  )
        29        H      tau(  29) = (  -0.2653287  -0.1589683   0.4058822  )
        30        H      tau(  30) = (   0.2653287   0.1589683   0.3978449  )
        31        H      tau(  31) = (   0.3178939  -0.3347969   0.3493534  )
        32        H      tau(  32) = (  -0.3178939   0.3347969   0.4543737  )
        33        H      tau(  33) = (   0.1309957   0.4427026   0.3493534  )
        34        H      tau(  34) = (  -0.1309956  -0.4427026   0.4543737  )
        35        H      tau(  35) = (  -0.4488895  -0.1079057   0.3493534  )
        36        H      tau(  36) = (   0.4488895   0.1079057   0.4543737  )

     number of k points=    14
                       cart. coord. in units 2pi/alat
        k(    1) = (   0.0000000   0.0000000   0.0000000), wk =   0.0312500
        k(    2) = (  -0.1498141  -0.0864952   0.3110508), wk =   0.1875000
        k(    3) = (   0.2996283   0.1729905  -0.6221017), wk =   0.0937500
        k(    4) = (  -0.1498141   0.0864952   0.6221017), wk =   0.1875000
        k(    5) = (   0.2996283   0.3459809  -0.3110508), wk =   0.1875000
        k(    6) = (   0.1498141   0.2594857   0.0000000), wk =   0.1875000
        k(    7) = (   0.2996283  -0.1729905  -1.2442034), wk =   0.0937500
        k(    8) = (   0.0000000   0.0000000   0.9331525), wk =   0.0625000
        k(    9) = (   0.4494424   0.2594857   0.0000000), wk =   0.1875000
        k(   10) = (   0.2996283   0.1729905   0.3110508), wk =   0.1875000
        k(   11) = (   0.4494424  -0.2594857  -0.9331525), wk =   0.1875000
        k(   12) = (   0.2996283  -0.3459809  -0.6221017), wk =   0.1875000
        k(   13) = (   0.0000000   0.0000000  -1.8663050), wk =   0.0312500
        k(   14) = (   0.2996283  -0.3459809   0.3110508), wk =   0.1875000

     Dense  grid:   284353 G-vectors     FFT dimensions: (  96,  96,  96)

     Estimated max dynamical RAM per process >      18.23 MB

     Estimated total dynamical RAM >       2.08 GB

     Initial potential from superposition of free atoms

     starting charge      95.9998, renormalised to      96.0000


     %%%%%%%%%%%%%%%%%%%%%%%%%%%%%%%%%%%%%%%%%%%%%%%%%%%%%%%%%%%%%%%%%%%%%%%%
     %                                                                      %
     % You are using vdW-DF, which was implemented by the Thonhauser group. %
     % Please cite the following two papers that made this development      %
     % possible and the two reviews that describe the various versions:     %
     %                                                                      %
     %   T. Thonhauser et al., PRL 115, 136402 (2015).                      %
     %   T. Thonhauser et al., PRB 76, 125112 (2007).                       %
     %   K. Berland et al., Rep. Prog. Phys. 78, 066501 (2015).             %
     %   D.C. Langreth et al., J. Phys.: Condens. Matter 21, 084203 (2009). %
     %                                                                      %
     % If you are calculating stress with vdW-DF, please also cite:         %
     %                                                                      %
     %   R. Sabatini et al., J. Phys.: Condens. Matter 24, 424209 (2012).   %
     %                                                                      %
     %%%%%%%%%%%%%%%%%%%%%%%%%%%%%%%%%%%%%%%%%%%%%%%%%%%%%%%%%%%%%%%%%%%%%%%%

     %%%%%%%%%%%%%%%%%%%%%%%%%%%%%%%%%%%%%%%%%%%%%%%%%%%%%%%%%%%%%%%%%%%%%%%%
     %                                                                      %
     %  vdW-DF NEWS:                                                        %
     %                                                                      %
     %  * vdW-DF3 is now available. DOI: 10.1021/acs.jctc.0c00471           %
     %    use with input_dft = 'vdW-DF3-opt1' or 'vdW-DF3-opt2'             %
     %                                                                      %
     %  * Unscreened and range-separated hybrid vdW-DF-cx functionals       %
     %    DOI: 10.1063/1.4986522 and 10.1088/1361-648X/ac2ad2               %
     %    use with input_dft = 'vdW-DF-cx0'    and 'vdW-DF-ahcx'            %
     %  * Unscreened and range-separated hybrid vdW-DF2-b86r functionals    %
     %    DOI: 10.1063/1.4986522 and DOI: 10.1103/PhysRevX.12.041003        %
     %    use with input_dft = 'vdW-DF2-br0' and 'vdW-DF2-ahbr'             %
     %                                                                      %
     %%%%%%%%%%%%%%%%%%%%%%%%%%%%%%%%%%%%%%%%%%%%%%%%%%%%%%%%%%%%%%%%%%%%%%%%


     Starting wfcs are   72 randomized atomic wfcs

     total cpu time spent up to now is        3.3 secs

     per-process dynamical memory:    22.1 Mb

     Self-consistent Calculation

     iteration #  1     ecut=    90.00 Ry     beta= 0.70
     Davidson diagonalization with overlap
     ethr =  1.00E-02,  avg # of iterations =  2.0

     negative rho (up, down):  1.586E-07 0.000E+00

     total cpu time spent up to now is        4.5 secs

     total energy              =    -415.72677871 Ry
     estimated scf accuracy    <       4.27526832 Ry

     iteration #  2     ecut=    90.00 Ry     beta= 0.70
     Davidson diagonalization with overlap
     ethr =  4.45E-03,  avg # of iterations =  3.0

     negative rho (up, down):  4.737E-08 0.000E+00

     total cpu time spent up to now is        5.8 secs

     total energy              =    -417.08252064 Ry
     estimated scf accuracy    <       4.06013996 Ry

     iteration #  3     ecut=    90.00 Ry     beta= 0.70
     Davidson diagonalization with overlap
     ethr =  4.23E-03,  avg # of iterations =  2.0

     negative rho (up, down):  8.557E-08 0.000E+00

     total cpu time spent up to now is        6.9 secs

     total energy              =    -417.57752445 Ry
     estimated scf accuracy    <       0.21824266 Ry

     iteration #  4     ecut=    90.00 Ry     beta= 0.70
     Davidson diagonalization with overlap
     ethr =  2.27E-04,  avg # of iterations =  4.0

     negative rho (up, down):  3.247E-07 0.000E+00

     total cpu time spent up to now is        8.4 secs

     total energy              =    -417.73993410 Ry
     estimated scf accuracy    <       0.20272349 Ry

     iteration #  5     ecut=    90.00 Ry     beta= 0.70
     Davidson diagonalization with overlap
     ethr =  2.11E-04,  avg # of iterations =  1.0

     negative rho (up, down):  7.127E-07 0.000E+00

     total cpu time spent up to now is        9.3 secs

     total energy              =    -417.73924032 Ry
     estimated scf accuracy    <       0.03928340 Ry

     iteration #  6     ecut=    90.00 Ry     beta= 0.70
     Davidson diagonalization with overlap
     ethr =  4.09E-05,  avg # of iterations =  2.0

     negative rho (up, down):  8.610E-07 0.000E+00

     total cpu time spent up to now is       10.3 secs

     total energy              =    -417.74565724 Ry
     estimated scf accuracy    <       0.00218655 Ry

     iteration #  7     ecut=    90.00 Ry     beta= 0.70
     Davidson diagonalization with overlap
     ethr =  2.28E-06,  avg # of iterations =  3.0

     negative rho (up, down):  9.234E-07 0.000E+00

     total cpu time spent up to now is       11.5 secs

     total energy              =    -417.74641903 Ry
     estimated scf accuracy    <       0.00011111 Ry

     iteration #  8     ecut=    90.00 Ry     beta= 0.70
     Davidson diagonalization with overlap
     ethr =  1.16E-07,  avg # of iterations =  6.0

     negative rho (up, down):  8.636E-07 0.000E+00

     total cpu time spent up to now is       13.2 secs

     total energy              =    -417.74637639 Ry
     estimated scf accuracy    <       0.00091479 Ry

     iteration #  9     ecut=    90.00 Ry     beta= 0.70
     Davidson diagonalization with overlap
     ethr =  1.16E-07,  avg # of iterations =  3.0

     negative rho (up, down):  8.378E-07 0.000E+00

     total cpu time spent up to now is       14.5 secs

     total energy              =    -417.74636552 Ry
     estimated scf accuracy    <       0.00024970 Ry

     iteration # 10     ecut=    90.00 Ry     beta= 0.70
     Davidson diagonalization with overlap
     ethr =  1.16E-07,  avg # of iterations =  2.0

     negative rho (up, down):  8.348E-07 0.000E+00

     total cpu time spent up to now is       15.5 secs

     total energy              =    -417.74636569 Ry
     estimated scf accuracy    <       0.00007754 Ry

     iteration # 11     ecut=    90.00 Ry     beta= 0.70
     Davidson diagonalization with overlap
     ethr =  8.08E-08,  avg # of iterations =  2.0

     negative rho (up, down):  8.175E-07 0.000E+00

     total cpu time spent up to now is       16.5 secs

     total energy              =    -417.74636160 Ry
     estimated scf accuracy    <       0.00002446 Ry

     iteration # 12     ecut=    90.00 Ry     beta= 0.70
     Davidson diagonalization with overlap
     ethr =  2.55E-08,  avg # of iterations =  3.0

     negative rho (up, down):  8.162E-07 0.000E+00

     total cpu time spent up to now is       17.6 secs

     total energy              =    -417.74636804 Ry
     estimated scf accuracy    <       0.00000032 Ry

     iteration # 13     ecut=    90.00 Ry     beta= 0.70
     Davidson diagonalization with overlap
     ethr =  3.31E-10,  avg # of iterations =  5.0

     negative rho (up, down):  8.205E-07 0.000E+00

     total cpu time spent up to now is       19.1 secs

     total energy              =    -417.74636840 Ry
     estimated scf accuracy    <       0.00000067 Ry

     iteration # 14     ecut=    90.00 Ry     beta= 0.70
     Davidson diagonalization with overlap
     ethr =  3.31E-10,  avg # of iterations =  2.0

     negative rho (up, down):  8.322E-07 0.000E+00

     total cpu time spent up to now is       20.0 secs

     total energy              =    -417.74636828 Ry
     estimated scf accuracy    <       0.00000026 Ry

     iteration # 15     ecut=    90.00 Ry     beta= 0.70
     Davidson diagonalization with overlap
     ethr =  2.67E-10,  avg # of iterations =  4.0

     negative rho (up, down):  8.273E-07 0.000E+00

     total cpu time spent up to now is       21.4 secs

     total energy              =    -417.74636833 Ry
     estimated scf accuracy    <       0.00000038 Ry

     iteration # 16     ecut=    90.00 Ry     beta= 0.70
     Davidson diagonalization with overlap
     ethr =  2.67E-10,  avg # of iterations =  2.0

     negative rho (up, down):  8.252E-07 0.000E+00

     total cpu time spent up to now is       22.5 secs

     End of self-consistent calculation

          k = 0.0000 0.0000 0.0000 ( 35467 PWs)   bands (ev):

   -21.2304 -20.9122 -20.9122 -20.7509 -20.7509 -20.7281 -20.7281 -20.7240
   -20.7184 -20.5075 -20.5075 -20.2861  -8.7563  -8.5923  -8.5298  -8.5298
    -8.4923  -8.4923  -8.0792  -7.9540  -7.9540  -7.7608  -7.7608  -7.6573
    -7.6008  -6.9040  -6.9040  -6.4200  -6.4200  -6.3186  -6.3186  -6.0951
    -5.9370  -5.3644  -5.3644  -4.7691  -3.8931  -3.8931  -3.8142  -3.7418
    -3.7073  -3.7073  -3.5904  -3.5860  -3.5860  -3.5754  -3.5348  -3.5348

          k =-0.1498-0.0865 0.3111 ( 35577 PWs)   bands (ev):

   -21.1781 -20.9419 -20.9051 -20.8525 -20.8322 -20.7821 -20.6824 -20.6509
   -20.6134 -20.5110 -20.4818 -20.3284  -8.7124  -8.6439  -8.5777  -8.5449
    -8.4713  -8.4184  -8.0679  -7.9212  -7.9164  -7.7907  -7.6948  -7.6596
    -7.5070  -7.0223  -6.9207  -6.6837  -6.3993  -6.3190  -6.1797  -5.9954
    -5.9414  -5.3595  -5.3026  -4.8931  -3.9788  -3.9228  -3.8309  -3.7796
    -3.7372  -3.7150  -3.6786  -3.6216  -3.5773  -3.5383  -3.5204  -3.4820

          k = 0.2996 0.1730-0.6221 ( 35578 PWs)   bands (ev):

   -21.0487 -21.0381 -20.9246 -20.9206 -20.8343 -20.8301 -20.6402 -20.6382
   -20.5177 -20.5105 -20.4318 -20.4285  -8.6942  -8.6463  -8.5730  -8.5566
    -8.4694  -8.4212  -8.0213  -7.9234  -7.8919  -7.7981  -7.6313  -7.6294
    -7.3246  -7.2042  -6.9667  -6.8152  -6.4144  -6.3429  -6.1843  -6.0487
    -5.5989  -5.4662  -5.2486  -5.0459  -4.0564  -3.9365  -3.8506  -3.8228
    -3.7679  -3.7550  -3.6817  -3.6398  -3.6118  -3.5127  -3.5030  -3.4452

          k =-0.1498 0.0865 0.6221 ( 35587 PWs)   bands (ev):

   -21.0734 -20.9774 -20.9729 -20.8895 -20.8702 -20.8232 -20.6466 -20.5895
   -20.5648 -20.4815 -20.4678 -20.4063  -8.7004  -8.6252  -8.6119  -8.5180
    -8.4867  -8.4127  -8.0261  -7.9484  -7.9094  -7.7223  -7.6685  -7.6254
    -7.3279  -7.1510  -7.0747  -6.6820  -6.5367  -6.3815  -6.1177  -5.9449
    -5.7585  -5.3305  -5.3081  -5.0509  -4.0404  -3.9678  -3.8414  -3.8047
    -3.7778  -3.7357  -3.7043  -3.6333  -3.6090  -3.5201  -3.5049  -3.4410

          k = 0.2996 0.3460-0.3111 ( 35576 PWs)   bands (ev):

   -21.1093 -20.9992 -20.9342 -20.9008 -20.8549 -20.8011 -20.6517 -20.5798
   -20.5647 -20.5128 -20.4633 -20.3880  -8.7036  -8.6866  -8.5584  -8.5384
    -8.4913  -8.4132  -8.0444  -7.9980  -7.8960  -7.6975  -7.6694  -7.6186
    -7.4280  -7.1894  -6.9892  -6.6843  -6.6665  -6.2586  -6.0966  -5.8625
    -5.6684  -5.4644  -5.2839  -5.0320  -3.9769  -3.9191  -3.8538  -3.7943
    -3.7521  -3.7140  -3.6636  -3.6563  -3.5940  -3.5561  -3.5090  -3.4323

          k = 0.1498 0.2595 0.0000 ( 35515 PWs)   bands (ev):

   -21.1922 -20.9608 -20.9232 -20.8329 -20.8118 -20.7533 -20.6964 -20.6448
   -20.6161 -20.5143 -20.4907 -20.3197  -8.7435  -8.6523  -8.5719  -8.5433
    -8.4466  -8.4405  -8.1013  -7.9961  -7.8460  -7.7659  -7.7216  -7.6360
    -7.6027  -7.0168  -6.9085  -6.6693  -6.5708  -6.2065  -6.0981  -5.9768
    -5.8229  -5.4254  -5.3388  -4.8609  -3.8923  -3.8801  -3.8405  -3.7651
    -3.7339  -3.7129  -3.6279  -3.6093  -3.5906  -3.5778  -3.4996  -3.4892

          k = 0.2996-0.1730-1.2442 ( 35526 PWs)   bands (ev):

   -21.0998 -21.0761 -20.9307 -20.8714 -20.8096 -20.7747 -20.6547 -20.6357
   -20.5498 -20.5396 -20.4118 -20.4021  -8.7240  -8.6954  -8.5871  -8.5592
    -8.4218  -8.4184  -8.0897  -8.0413  -7.8212  -7.7895  -7.6438  -7.6118
    -7.3894  -7.3451  -6.9619  -6.7599  -6.4917  -6.3186  -6.0041  -5.7630
    -5.6822  -5.5790  -5.2116  -5.0470  -3.9000  -3.8658  -3.8601  -3.7929
    -3.7320  -3.6974  -3.6725  -3.6204  -3.6099  -3.5776  -3.4743  -3.4599

          k = 0.0000 0.0000 0.9332 ( 35545 PWs)   bands (ev):

   -21.0329 -21.0329 -20.9799 -20.9472 -20.8268 -20.8268 -20.5971 -20.5971
   -20.5004 -20.4940 -20.4623 -20.4623  -8.6869  -8.6869  -8.5768  -8.4906
    -8.4906  -8.4686  -8.0501  -7.9712  -7.9712  -7.6235  -7.6235  -7.5944
    -7.2755  -7.2618  -7.2618  -6.7035  -6.4723  -6.4723  -5.9256  -5.7448
    -5.7448  -5.3410  -5.3410  -5.1820  -3.9320  -3.9320  -3.8351  -3.7941
    -3.7284  -3.7284  -3.6913  -3.6348  -3.6348  -3.5433  -3.5433  -3.4141

          k = 0.4494 0.2595 0.0000 ( 35568 PWs)   bands (ev):

   -21.1217 -21.0037 -21.0020 -20.8727 -20.7732 -20.7672 -20.6696 -20.6614
   -20.5506 -20.4880 -20.4655 -20.3804  -8.7216  -8.6841  -8.6329  -8.5066
    -8.4580  -8.4021  -8.1047  -8.0028  -7.8952  -7.7054  -7.6681  -7.6261
    -7.4674  -7.1613  -7.0945  -6.7141  -6.5211  -6.3090  -5.9191  -5.8872
    -5.7180  -5.4304  -5.3038  -5.0237  -3.8882  -3.8821  -3.8522  -3.7956
    -3.7479  -3.7043  -3.6482  -3.6303  -3.5940  -3.5602  -3.5132  -3.4462

          k = 0.2996 0.1730 0.3111 ( 35545 PWs)   bands (ev):

   -21.1427 -20.9719 -20.9131 -20.8947 -20.8333 -20.7933 -20.6614 -20.6356
   -20.5907 -20.5012 -20.4663 -20.3553  -8.7219  -8.6712  -8.6012  -8.5043
    -8.4939  -8.3800  -8.0729  -7.9764  -7.8253  -7.7681  -7.7320  -7.6558
    -7.4489  -7.0314  -6.8916  -6.8044  -6.5957  -6.3329  -6.0835  -5.9167
    -5.7583  -5.4292  -5.2877  -4.9354  -3.9925  -3.9253  -3.8690  -3.8199
    -3.7481  -3.7165  -3.6579  -3.6325  -3.5697  -3.5349  -3.4896  -3.4719

          k = 0.4494-0.2595-0.9332 ( 35525 PWs)   bands (ev):

   -21.0529 -21.0492 -20.9523 -20.9232 -20.8262 -20.7701 -20.6893 -20.6274
   -20.5293 -20.4882 -20.4540 -20.3974  -8.7453  -8.6632  -8.6282  -8.5073
    -8.4688  -8.3623  -8.1042  -7.9339  -7.8404  -7.7931  -7.6826  -7.6624
    -7.2488  -7.2096  -6.9498  -6.8107  -6.6537  -6.4059  -6.0489  -5.8083
    -5.5319  -5.5169  -5.3322  -4.9894  -3.9975  -3.9382  -3.9101  -3.8181
    -3.7912  -3.7289  -3.6204  -3.6013  -3.5813  -3.5462  -3.4905  -3.4445

          k = 0.2996-0.3460-0.6221 ( 35532 PWs)   bands (ev):

   -21.0258 -21.0148 -20.9452 -20.9440 -20.8468 -20.8442 -20.6283 -20.6276
   -20.5187 -20.5152 -20.4270 -20.4256  -8.7577  -8.5940  -8.5679  -8.5513
    -8.5226  -8.3670  -8.0467  -7.9412  -7.8286  -7.7860  -7.6678  -7.6628
    -7.2191  -7.1051  -6.9774  -6.8590  -6.5949  -6.5590  -5.9844  -5.9189
    -5.5364  -5.4929  -5.3594  -4.9767  -4.0835  -3.9495  -3.9096  -3.8503
    -3.8106  -3.7076  -3.6534  -3.6217  -3.6080  -3.5079  -3.4943  -3.4310

          k = 0.0000 0.0000-1.8663 ( 35574 PWs)   bands (ev):

   -21.0040 -20.9938 -20.9250 -20.9250 -20.9069 -20.9069 -20.5700 -20.5700
   -20.5634 -20.5634 -20.4197 -20.4147  -8.7961  -8.5660  -8.5660  -8.5444
    -8.5444  -8.3402  -8.0849  -7.9346  -7.7531  -7.7531  -7.7204  -7.7204
    -7.0863  -6.8997  -6.8927  -6.8927  -6.8455  -6.8455  -5.8050  -5.8050
    -5.5534  -5.5534  -5.4020  -4.9312  -4.1097  -3.9489  -3.9489  -3.8755
    -3.8755  -3.6679  -3.6450  -3.5776  -3.5776  -3.5178  -3.5178  -3.4111

          k = 0.2996-0.3460 0.3111 ( 35576 PWs)   bands (ev):

   -21.1090 -21.0018 -20.9260 -20.9078 -20.8533 -20.8016 -20.6507 -20.5819
   -20.5655 -20.5111 -20.4624 -20.3887  -8.7182  -8.6569  -8.5872  -8.5414
    -8.4625  -8.4217  -8.0801  -7.9735  -7.8754  -7.7274  -7.6418  -7.6353
    -7.4247  -7.1323  -7.0639  -6.7428  -6.5254  -6.3109  -6.1655  -5.7950
    -5.6564  -5.4437  -5.3404  -5.0167  -3.9826  -3.8974  -3.8685  -3.7892
    -3.7553  -3.7198  -3.6619  -3.6565  -3.6094  -3.5327  -3.5095  -3.4387

     highest occupied level (ev):    -3.4111

!    total energy              =    -417.74636836 Ry
     estimated scf accuracy    <       0.00000003 Ry

     The total energy is the sum of the following terms:
     one-electron contribution =    -312.69350333 Ry
     hartree contribution      =     188.61025397 Ry
     xc contribution           =    -104.06331452 Ry
     ewald contribution        =    -189.59980448 Ry

     convergence has been achieved in  16 iterations

     Forces acting on atoms (cartesian axes, Ry/au):

     atom    1 type  2   force =    -0.06018446    0.14202056    0.08403949
     atom    2 type  2   force =     0.06018446   -0.14202056   -0.08403949
     atom    3 type  2   force =    -0.09290118   -0.12313156    0.08403949
     atom    4 type  2   force =     0.09290118    0.12313156   -0.08403949
     atom    5 type  2   force =     0.15308565   -0.01888901    0.08403949
     atom    6 type  2   force =    -0.15308565    0.01888901   -0.08403949
     atom    7 type  2   force =    -0.09389390    0.06838545   -0.06261295
     atom    8 type  2   force =     0.09389390   -0.06838545    0.06261295
     atom    9 type  2   force =    -0.01227659   -0.11550723   -0.06261295
     atom   10 type  2   force =     0.01227659    0.11550723    0.06261295
     atom   11 type  2   force =     0.10617049    0.04712177   -0.06261295
     atom   12 type  2   force =    -0.10617049   -0.04712177    0.06261295
     atom   13 type  1   force =     0.03296802   -0.08798868   -0.02629011
     atom   14 type  1   force =    -0.03296802    0.08798868    0.02629011
     atom   15 type  1   force =     0.05971642    0.07254549   -0.02629011
     atom   16 type  1   force =    -0.05971642   -0.07254549    0.02629011
     atom   17 type  1   force =    -0.09268444    0.01544320   -0.02629011
     atom   18 type  1   force =     0.09268444   -0.01544320    0.02629011
     atom   19 type  1   force =     0.02630634   -0.05954197   -0.06625756
     atom   20 type  1   force =    -0.02630634    0.05954197    0.06625756
     atom   21 type  1   force =     0.03841169    0.05255294   -0.06625756
     atom   22 type  1   force =    -0.03841169   -0.05255294    0.06625756
     atom   23 type  1   force =    -0.06471803    0.00698903   -0.06625756
     atom   24 type  1   force =     0.06471803   -0.00698903    0.06625756
     atom   25 type  1   force =    -0.03543758   -0.07791927    0.01638650
     atom   26 type  1   force =     0.03543758    0.07791927   -0.01638650
     atom   27 type  1   force =     0.08519886    0.00826979    0.01638650
     atom   28 type  1   force =    -0.08519886   -0.00826979   -0.01638650
     atom   29 type  1   force =    -0.04976128    0.06964949    0.01638650
     atom   30 type  1   force =     0.04976128   -0.06964949   -0.01638650
     atom   31 type  1   force =    -0.07698720    0.03277973    0.05381834
     atom   32 type  1   force =     0.07698720   -0.03277973   -0.05381834
     atom   33 type  1   force =     0.01010552   -0.08306274    0.05381834
     atom   34 type  1   force =    -0.01010552    0.08306274   -0.05381834
     atom   35 type  1   force =     0.06688168    0.05028301    0.05381834
     atom   36 type  1   force =    -0.06688168   -0.05028301   -0.05381834

     Total force =     0.709544     Total SCF correction =     0.000134


     Computing stress (Cartesian axis) and pressure

          total   stress  (Ry/bohr**3)                   (kbar)     P=     -113.10
  -0.00084563  -0.00000000  -0.00000000         -124.40       -0.00       -0.00
   0.00000000  -0.00084563  -0.00000000            0.00     -124.40       -0.00
  -0.00000000  -0.00000000  -0.00061523           -0.00       -0.00      -90.50


     BFGS Geometry Optimization
     Energy error            =      0.0E+00 Ry
     Gradient error          =      1.5E-01 Ry/Bohr

     number of scf cycles    =   1
     number of bfgs steps    =   0

     energy             new  =    -417.7463683571 Ry

     new trust radius        =       0.1756549058 bohr
     new conv_thr            =       0.0000001000 Ry


ATOMIC_POSITIONS (crystal)
O                0.2742387724        0.0369787022        0.8598542077
O                0.7257612276        0.9630213088        0.1401457623
O                0.8598542077        0.2742387724        0.0369787022
O                0.1401457623        0.7257612276        0.9630213088
O                0.0369787022        0.8598542077        0.2742387724
O                0.9630213088        0.1401457623        0.7257612276
O                0.4679010075        0.7480430940        0.3291016058
O                0.5320989925        0.2519569060        0.6708983642
O                0.3291016058        0.4679010075        0.7480430940
O                0.6708983642        0.5320989925        0.2519569060
O                0.7480430940        0.3291016058        0.4679010075
O                0.2519569060        0.6708983642        0.5320989925
H                0.1661190327        0.0630111786        0.8085907545
H                0.8338809533        0.9369888134        0.1914092455
H                0.8085907545        0.1661190327        0.0630111786
H                0.1914092455        0.8338809533        0.9369888134
H                0.0630111786        0.8085907545        0.1661190327
H                0.9369888134        0.1914092455        0.8338809533
H                0.4100519223        0.1970887940        0.9920345159
H                0.5899480777        0.8029112210        0.0079654631
H                0.9920345159        0.4100519223        0.1970887940
H                0.0079654631        0.5899480777        0.8029112210
H                0.1970887940        0.9920345159        0.4100519223
H                0.8029112210        0.0079654631        0.5899480777
H                0.7206707023        0.3988545879        0.3993883918
H                0.2793292977        0.6011453821        0.6006116382
H                0.3993883918        0.7206707023        0.3988545879
H                0.6006116382        0.2793292977        0.6011453821
H                0.3988545879        0.3993883918        0.7206707023
H                0.6011453821        0.6006116382        0.2793292977
H                0.7416068904        0.2087359533        0.3665109522
H                0.2583931096        0.7912640317        0.6334890478
H                0.3665109522        0.7416068904        0.2087359533
H                0.6334890478        0.2583931096        0.7912640317
H                0.2087359533        0.3665109522        0.7416068904
H                0.7912640317        0.6334890478        0.2583931096



     Writing config-only to output data dir ./iceII/iceII.save/ :
     XML data file
     NEW-OLD atomic charge density approx. for the potential

     negative rho (up, down):  9.764E-07 0.000E+00

     total cpu time spent up to now is       24.5 secs

     per-process dynamical memory:    21.8 Mb

     Self-consistent Calculation

     iteration #  1     ecut=    90.00 Ry     beta= 0.70
     Davidson diagonalization with overlap
     ethr =  1.00E-06,  avg # of iterations = 11.0

     negative rho (up, down):  4.077E-07 0.000E+00

     total cpu time spent up to now is       27.5 secs

     total energy              =    -417.93508455 Ry
     estimated scf accuracy    <       0.19200242 Ry

     iteration #  2     ecut=    90.00 Ry     beta= 0.70
     Davidson diagonalization with overlap
     ethr =  2.00E-04,  avg # of iterations =  3.0

     negative rho (up, down):  3.485E-07 0.000E+00

     total cpu time spent up to now is       28.8 secs

     total energy              =    -417.98763422 Ry
     estimated scf accuracy    <       0.11468963 Ry

     iteration #  3     ecut=    90.00 Ry     beta= 0.70
     Davidson diagonalization with overlap
     ethr =  1.19E-04,  avg # of iterations =  2.0

     negative rho (up, down):  4.189E-07 0.000E+00

     total cpu time spent up to now is       29.9 secs

     total energy              =    -418.00671887 Ry
     estimated scf accuracy    <       0.00288399 Ry

     iteration #  4     ecut=    90.00 Ry     beta= 0.70
     Davidson diagonalization with overlap
     ethr =  3.00E-06,  avg # of iterations =  4.2

     negative rho (up, down):  7.218E-07 0.000E+00

     total cpu time spent up to now is       31.5 secs

     total energy              =    -418.00900458 Ry
     estimated scf accuracy    <       0.00460831 Ry

     iteration #  5     ecut=    90.00 Ry     beta= 0.70
     Davidson diagonalization with overlap
     ethr =  3.00E-06,  avg # of iterations =  2.2

     negative rho (up, down):  8.823E-07 0.000E+00

     total cpu time spent up to now is       32.6 secs

     total energy              =    -418.00966732 Ry
     estimated scf accuracy    <       0.00010379 Ry

     iteration #  6     ecut=    90.00 Ry     beta= 0.70
     Davidson diagonalization with overlap
     ethr =  1.08E-07,  avg # of iterations =  4.0

     negative rho (up, down):  8.665E-07 0.000E+00

     total cpu time spent up to now is       34.2 secs

     total energy              =    -418.00976231 Ry
     estimated scf accuracy    <       0.00019673 Ry

     iteration #  7     ecut=    90.00 Ry     beta= 0.70
     Davidson diagonalization with overlap
     ethr =  1.08E-07,  avg # of iterations =  2.0

     negative rho (up, down):  8.282E-07 0.000E+00

     total cpu time spent up to now is       35.2 secs

     total energy              =    -418.00976147 Ry
     estimated scf accuracy    <       0.00003280 Ry

     iteration #  8     ecut=    90.00 Ry     beta= 0.70
     Davidson diagonalization with overlap
     ethr =  3.42E-08,  avg # of iterations =  3.0

     negative rho (up, down):  8.278E-07 0.000E+00

     total cpu time spent up to now is       36.4 secs

     End of self-consistent calculation

          k = 0.0000 0.0000 0.0000 ( 35467 PWs)   bands (ev):

   -22.0620 -21.8192 -21.8192 -21.6579 -21.6579 -21.6338 -21.6158 -21.6117
   -21.6117 -21.4240 -21.4240 -21.2612  -9.7191  -9.5893  -9.5537  -9.5537
    -9.5145  -9.5145  -9.1095  -9.1095  -9.0335  -9.0335  -9.0269  -8.9375
    -7.5506  -6.7912  -6.7912  -6.2534  -6.2534  -6.2501  -6.2501  -6.0453
    -5.9941  -5.4256  -5.4256  -4.9005  -4.0877  -4.0848  -4.0848  -3.9191
    -3.9191  -3.8892  -3.7867  -3.7605  -3.7605  -3.7469  -3.6841  -3.6841

          k =-0.1498-0.0865 0.3111 ( 35577 PWs)   bands (ev):

   -22.0195 -21.8363 -21.8207 -21.7249 -21.7023 -21.6893 -21.5840 -21.5614
   -21.5350 -21.4294 -21.4074 -21.2908  -9.6932  -9.5999  -9.5720  -9.5686
    -9.5121  -9.4800  -9.1130  -9.0949  -9.0460  -9.0022  -8.9973  -8.9646
    -7.4261  -6.8959  -6.8228  -6.5328  -6.3381  -6.2004  -6.1112  -5.9442
    -5.8918  -5.4272  -5.3647  -4.9966  -4.1573  -4.1066  -4.0779  -3.9479
    -3.9312  -3.9186  -3.8594  -3.7956  -3.7418  -3.7089  -3.6824  -3.6468

          k = 0.2996 0.1730-0.6221 ( 35578 PWs)   bands (ev):

   -21.9353 -21.8826 -21.8393 -21.7641 -21.7381 -21.7133 -21.5647 -21.5308
   -21.4747 -21.4267 -21.3933 -21.3406  -9.6493  -9.6272  -9.5938  -9.5582
    -9.5129  -9.4683  -9.1035  -9.0827  -9.0315  -9.0226  -8.9743  -8.9659
    -7.1906  -7.0650  -6.8713  -6.6988  -6.3616  -6.2716  -6.0568  -5.9120
    -5.6228  -5.4832  -5.3147  -5.1297  -4.2199  -4.1168  -4.0548  -4.0112
    -3.9622  -3.9482  -3.8506  -3.8094  -3.7999  -3.6778  -3.6670  -3.6132

          k =-0.1498 0.0865 0.6221 ( 35587 PWs)   bands (ev):

   -21.9418 -21.8589 -21.8515 -21.7662 -21.7416 -21.7187 -21.5538 -21.5246
   -21.4872 -21.4183 -21.4034 -21.3373  -9.6503  -9.6197  -9.6082  -9.5415
    -9.5224  -9.4675  -9.1015  -9.0852  -9.0456  -8.9991  -8.9813  -8.9681
    -7.2150  -6.9804  -6.9623  -6.6034  -6.4403  -6.3156  -5.9960  -5.8601
    -5.7168  -5.3951  -5.3647  -5.1302  -4.2056  -4.1445  -4.0438  -4.0131
    -3.9703  -3.9054  -3.8863  -3.8164  -3.7806  -3.6786  -3.6749  -3.6095

          k = 0.2996 0.3460-0.3111 ( 35576 PWs)   bands (ev):

   -21.9653 -21.8893 -21.8312 -21.7546 -21.7241 -21.6990 -21.5527 -21.5439
   -21.4939 -21.4246 -21.3956 -21.3265  -9.6668  -9.6379  -9.5837  -9.5506
    -9.5147  -9.4619  -9.1407  -9.1196  -9.0700  -8.9884  -8.9637  -8.9557
    -7.2312  -7.0182  -6.8261  -6.6386  -6.5625  -6.2289  -5.9514  -5.8634
    -5.6835  -5.4850  -5.3401  -5.1050  -4.1608  -4.1089  -4.0646  -4.0125
    -3.9285  -3.8921  -3.8547  -3.8282  -3.7638  -3.7138  -3.6797  -3.5978

          k = 0.1498 0.2595 0.0000 ( 35515 PWs)   bands (ev):

   -22.0313 -21.8576 -21.8272 -21.7145 -21.6808 -21.6313 -21.6204 -21.5657
   -21.5528 -21.4276 -21.4051 -21.2840  -9.7036  -9.6123  -9.5707  -9.5674
    -9.4949  -9.4832  -9.1541  -9.1288  -9.0370  -9.0257  -8.9901  -8.9392
    -7.4316  -6.8668  -6.7804  -6.5594  -6.4553  -6.1702  -6.0482  -5.9066
    -5.8576  -5.4644  -5.3962  -4.9690  -4.0955  -4.0802  -4.0775  -3.9719
    -3.9193  -3.8921  -3.8025  -3.7838  -3.7763  -3.7386  -3.6599  -3.6502

          k = 0.2996-0.1730-1.2442 ( 35526 PWs)   bands (ev):

   -21.9523 -21.9481 -21.8345 -21.7390 -21.6922 -21.6312 -21.6130 -21.5471
   -21.5177 -21.4328 -21.3603 -21.3298  -9.6715  -9.6528  -9.5767  -9.5730
    -9.4811  -9.4641  -9.1840  -9.1459  -9.0434  -9.0210  -8.9547  -8.9501
    -7.1532  -7.1235  -6.7870  -6.7138  -6.4119  -6.2861  -5.9692  -5.8035
    -5.6854  -5.5682  -5.2736  -5.1098  -4.1019  -4.0746  -4.0732  -4.0137
    -3.9235  -3.8669  -3.8414  -3.8129  -3.7710  -3.7353  -3.6376  -3.6298

          k = 0.0000 0.0000 0.9332 ( 35545 PWs)   bands (ev):

   -21.9006 -21.9006 -21.9003 -21.7570 -21.7186 -21.7186 -21.5189 -21.5189
   -21.5117 -21.3949 -21.3949 -21.3657  -9.6454  -9.6454  -9.6147  -9.5099
    -9.5099  -9.4937  -9.1488  -9.1074  -9.1074  -8.9594  -8.9594  -8.9492
    -7.0545  -7.0437  -7.0437  -6.6319  -6.4390  -6.4390  -5.7980  -5.7535
    -5.7535  -5.3764  -5.3764  -5.2388  -4.1240  -4.1240  -4.0546  -4.0135
    -3.9094  -3.9094  -3.8790  -3.8067  -3.8067  -3.6985  -3.6985  -3.5780

          k = 0.4494 0.2595 0.0000 ( 35568 PWs)   bands (ev):

   -21.9752 -21.8924 -21.8800 -21.7147 -21.6914 -21.6602 -21.5812 -21.5603
   -21.5270 -21.4084 -21.3847 -21.3225  -9.6765  -9.6356  -9.6117  -9.5385
    -9.5025  -9.4547  -9.1914  -9.1241  -9.0783  -8.9871  -8.9702  -8.9476
    -7.2285  -6.9690  -6.9026  -6.6671  -6.4436  -6.2592  -5.9229  -5.8862
    -5.7147  -5.4456  -5.3522  -5.0942  -4.0959  -4.0811  -4.0690  -4.0167
    -3.9318  -3.8750  -3.8382  -3.8030  -3.7645  -3.7195  -3.6708  -3.6160

          k = 0.2996 0.1730 0.3111 ( 35545 PWs)   bands (ev):

   -21.9920 -21.8656 -21.8190 -21.7553 -21.7107 -21.6816 -21.5852 -21.5597
   -21.4926 -21.4429 -21.3898 -21.3063  -9.6803  -9.6158  -9.5878  -9.5596
    -9.5211  -9.4477  -9.1513  -9.0821  -9.0423  -9.0254  -8.9781  -8.9646
    -7.3199  -6.9227  -6.7953  -6.6668  -6.4652  -6.2184  -6.0532  -5.9020
    -5.7316  -5.4758  -5.3445  -5.0258  -4.1741  -4.1135  -4.0795  -3.9907
    -3.9527  -3.8987  -3.8502  -3.7985  -3.7327  -3.7128  -3.6595  -3.6430

          k = 0.4494-0.2595-0.9332 ( 35525 PWs)   bands (ev):

   -21.9329 -21.9125 -21.8463 -21.7635 -21.7157 -21.6795 -21.5866 -21.5529
   -21.4679 -21.4289 -21.3886 -21.3252  -9.6534  -9.6418  -9.6048  -9.5526
    -9.5192  -9.4267  -9.1742  -9.0891  -9.0398  -9.0316  -8.9705  -8.9646
    -7.1308  -7.0101  -6.8010  -6.7801  -6.5251  -6.2596  -6.0444  -5.8363
    -5.5500  -5.5212  -5.3702  -5.0639  -4.1833  -4.1230  -4.0946  -4.0025
    -3.9631  -3.9338  -3.8100  -3.7757  -3.7501  -3.7119  -3.6610  -3.6256

          k = 0.2996-0.3460-0.6221 ( 35532 PWs)   bands (ev):

   -21.9245 -21.8633 -21.8451 -21.7924 -21.7372 -21.7231 -21.5590 -21.5397
   -21.4480 -21.4286 -21.4109 -21.3314  -9.6564  -9.6094  -9.5930  -9.5601
    -9.5458  -9.4308  -9.1175  -9.0853  -9.0245  -9.0185  -8.9837  -8.9791
    -7.1271  -6.9824  -6.8585  -6.7822  -6.4473  -6.4018  -5.9421  -5.8747
    -5.5479  -5.5025  -5.4066  -5.0662  -4.2435  -4.1270  -4.0968  -4.0220
    -3.9995  -3.8713  -3.8577  -3.8044  -3.7836  -3.6757  -3.6695  -3.6077

          k = 0.0000 0.0000-1.8663 ( 35574 PWs)   bands (ev):

   -21.9159 -21.8395 -21.8395 -21.7989 -21.7576 -21.7576 -21.5371 -21.5371
   -21.4344 -21.4344 -21.4276 -21.3236  -9.6598  -9.5924  -9.5924  -9.5646
    -9.5646  -9.4071  -9.1292  -9.0894  -9.0112  -9.0112  -8.9978  -8.9978
    -7.0828  -6.9093  -6.7421  -6.7421  -6.6253  -6.6253  -5.8100  -5.8100
    -5.5464  -5.5464  -5.4369  -5.0233  -4.2672  -4.1230  -4.1230  -4.0382
    -4.0382  -3.8838  -3.8175  -3.7526  -3.7526  -3.6983  -3.6983  -3.5951

          k = 0.2996-0.3460 0.3111 ( 35576 PWs)   bands (ev):

   -21.9663 -21.8821 -21.8407 -21.7579 -21.7121 -21.7014 -21.5690 -21.5309
   -21.4902 -21.4350 -21.3870 -21.3283  -9.6712  -9.6244  -9.5910  -9.5629
    -9.4976  -9.4683  -9.1461  -9.1161  -9.0672  -8.9853  -8.9701  -8.9533
    -7.2384  -6.9514  -6.9149  -6.6631  -6.4511  -6.2758  -6.0451  -5.7729
    -5.6656  -5.4880  -5.3722  -5.0956  -4.1622  -4.1057  -4.0702  -4.0018
    -3.9282  -3.8950  -3.8471  -3.8447  -3.7732  -3.6912  -3.6825  -3.6034

     highest occupied level (ev):    -3.5780

!    total energy              =    -418.00977137 Ry
     estimated scf accuracy    <       0.00000007 Ry

     The total energy is the sum of the following terms:
     one-electron contribution =    -329.27353881 Ry
     hartree contribution      =     196.15315350 Ry
     xc contribution           =    -105.79105482 Ry
     ewald contribution        =    -179.09833124 Ry

     convergence has been achieved in   8 iterations

     Forces acting on atoms (cartesian axes, Ry/au):

     atom    1 type  2   force =    -0.00144366   -0.00720680   -0.00804535
     atom    2 type  2   force =     0.00144366    0.00720680    0.00804535
     atom    3 type  2   force =     0.00696310    0.00235315   -0.00804535
     atom    4 type  2   force =    -0.00696310   -0.00235315    0.00804535
     atom    5 type  2   force =    -0.00551944    0.00485365   -0.00804535
     atom    6 type  2   force =     0.00551944   -0.00485365    0.00804535
     atom    7 type  2   force =     0.00861191   -0.00960237    0.00469537
     atom    8 type  2   force =    -0.00861191    0.00960237   -0.00469537
     atom    9 type  2   force =     0.00400995    0.01225932    0.00469537
     atom   10 type  2   force =    -0.00400995   -0.01225932   -0.00469537
     atom   11 type  2   force =    -0.01262185   -0.00265694    0.00469537
     atom   12 type  2   force =     0.01262185    0.00265694   -0.00469537
     atom   13 type  1   force =    -0.01350641    0.01719733   -0.03516160
     atom   14 type  1   force =     0.01350641   -0.01719733    0.03516160
     atom   15 type  1   force =    -0.00814012   -0.02029556   -0.03516160
     atom   16 type  1   force =     0.00814012    0.02029556    0.03516160
     atom   17 type  1   force =     0.02164653    0.00309823   -0.03516160
     atom   18 type  1   force =    -0.02164653   -0.00309823    0.03516160
     atom   19 type  1   force =     0.01708482   -0.01296431    0.03881037
     atom   20 type  1   force =    -0.01708482    0.01296431   -0.03881037
     atom   21 type  1   force =     0.00268501    0.02127804    0.03881037
     atom   22 type  1   force =    -0.00268501   -0.02127804   -0.03881037
     atom   23 type  1   force =    -0.01976983   -0.00831373    0.03881037
     atom   24 type  1   force =     0.01976983    0.00831373   -0.03881037
     atom   25 type  1   force =     0.00845109    0.00876387   -0.00021326
     atom   26 type  1   force =    -0.00845109   -0.00876387    0.00021326
     atom   27 type  1   force =    -0.01181528    0.00293692   -0.00021326
     atom   28 type  1   force =     0.01181528   -0.00293692    0.00021326
     atom   29 type  1   force =     0.00336419   -0.01170080   -0.00021326
     atom   30 type  1   force =    -0.00336419    0.01170080    0.00021326
     atom   31 type  1   force =     0.00184184   -0.00424739   -0.00255014
     atom   32 type  1   force =    -0.00184184    0.00424739    0.00255014
     atom   33 type  1   force =     0.00275742    0.00371877   -0.00255014
     atom   34 type  1   force =    -0.00275742   -0.00371877    0.00255014
     atom   35 type  1   force =    -0.00459927    0.00052861   -0.00255014
     atom   36 type  1   force =     0.00459927   -0.00052861    0.00255014

     Total force =     0.158065     Total SCF correction =     0.000304


     Computing stress (Cartesian axis) and pressure

          total   stress  (Ry/bohr**3)                   (kbar)     P=        0.36
  -0.00005495   0.00000000   0.00000000           -8.08        0.00        0.00
  -0.00000000  -0.00005495  -0.00000000           -0.00       -8.08       -0.00
  -0.00000000  -0.00000000   0.00011728           -0.00       -0.00       17.25

     Energy error            =      2.6E-01 Ry
     Gradient error          =      3.9E-02 Ry/Bohr

     number of scf cycles    =   2
     number of bfgs steps    =   1

     energy             old  =    -417.7463683571 Ry
     energy             new  =    -418.0097713668 Ry

     CASE: energy            _new < energy            _old

     new trust radius        =       0.0398859722 bohr
     new conv_thr            =       0.0000000388 Ry


ATOMIC_POSITIONS (crystal)
O                0.2737891519        0.0365611055        0.8596725097
O                0.7262108481        0.9634389055        0.1403274603
O                0.8596725097        0.2737891519        0.0365611055
O                0.1403274603        0.7262108481        0.9634389055
O                0.0365611055        0.8596725097        0.2737891519
O                0.9634389055        0.1403274603        0.7262108481
O                0.4683825103        0.7479254371        0.3292334438
O                0.5316174897        0.2520745629        0.6707665262
O                0.3292334438        0.4683825103        0.7479254371
O                0.6707665262        0.5316174897        0.2520745629
O                0.7479254371        0.3292334438        0.4683825103
O                0.2520745629        0.6707665262        0.5316174897
H                0.1627521030        0.0609182617        0.8060872893
H                0.8372478830        0.9390817303        0.1939127107
H                0.8060872893        0.1627521030        0.0609182617
H                0.1939127107        0.8372478830        0.9390817303
H                0.0609182617        0.8060872893        0.1627521030
H                0.9390817303        0.1939127107        0.8372478830
H                0.4136608293        0.1991223714        0.9943637060
H                0.5863391707        0.8008776436        0.0056362730
H                0.9943637060        0.4136608293        0.1991223714
H                0.0056362730        0.5863391707        0.8008776436
H                0.1991223714        0.9943637060        0.4136608293
H                0.8008776436        0.0056362730        0.5863391707
H                0.7208349294        0.3991193449        0.3990531665
H                0.2791650706        0.6008806251        0.6009468635
H                0.3990531665        0.7208349294        0.3991193449
H                0.6009468635        0.2791650706        0.6008806251
H                0.3991193449        0.3990531665        0.7208349294
H                0.6008806251        0.6009468635        0.2791650706
H                0.7415933547        0.2085818156        0.3665795100
H                0.2584066453        0.7914181694        0.6334204900
H                0.3665795100        0.7415933547        0.2085818156
H                0.6334204900        0.2584066453        0.7914181694
H                0.2085818156        0.3665795100        0.7415933547
H                0.7914181694        0.6334204900        0.2584066453



     Writing config-only to output data dir ./iceII/iceII.save/ :
     XML data file
     NEW-OLD atomic charge density approx. for the potential

     negative rho (up, down):  8.714E-07 0.000E+00

     total cpu time spent up to now is       38.4 secs

     per-process dynamical memory:    21.8 Mb

     Self-consistent Calculation

     iteration #  1     ecut=    90.00 Ry     beta= 0.70
     Davidson diagonalization with overlap
     ethr =  1.00E-06,  avg # of iterations =  4.5

     negative rho (up, down):  6.046E-07 0.000E+00

     total cpu time spent up to now is       40.0 secs

     total energy              =    -418.02358880 Ry
     estimated scf accuracy    <       0.00222173 Ry

     iteration #  2     ecut=    90.00 Ry     beta= 0.70
     Davidson diagonalization with overlap
     ethr =  2.31E-06,  avg # of iterations =  3.0

     negative rho (up, down):  6.640E-07 0.000E+00

     total cpu time spent up to now is       41.3 secs

     total energy              =    -418.02414723 Ry
     estimated scf accuracy    <       0.00110468 Ry

     iteration #  3     ecut=    90.00 Ry     beta= 0.70
     Davidson diagonalization with overlap
     ethr =  1.15E-06,  avg # of iterations =  2.1

     negative rho (up, down):  7.082E-07 0.000E+00

     total cpu time spent up to now is       42.3 secs

     total energy              =    -418.02434329 Ry
     estimated scf accuracy    <       0.00002809 Ry

     iteration #  4     ecut=    90.00 Ry     beta= 0.70
     Davidson diagonalization with overlap
     ethr =  2.93E-08,  avg # of iterations =  4.6

     negative rho (up, down):  6.908E-07 0.000E+00

     total cpu time spent up to now is       43.9 secs

     total energy              =    -418.02436555 Ry
     estimated scf accuracy    <       0.00004389 Ry

     iteration #  5     ecut=    90.00 Ry     beta= 0.70
     Davidson diagonalization with overlap
     ethr =  2.93E-08,  avg # of iterations =  2.0

     negative rho (up, down):  6.754E-07 0.000E+00

     total cpu time spent up to now is       44.9 secs

     total energy              =    -418.02436518 Ry
     estimated scf accuracy    <       0.00000773 Ry

     iteration #  6     ecut=    90.00 Ry     beta= 0.70
     Davidson diagonalization with overlap
     ethr =  8.06E-09,  avg # of iterations =  3.3

     negative rho (up, down):  6.808E-07 0.000E+00

     total cpu time spent up to now is       46.2 secs

     total energy              =    -418.02436834 Ry
     estimated scf accuracy    <       0.00000194 Ry

     iteration #  7     ecut=    90.00 Ry     beta= 0.70
     Davidson diagonalization with overlap
     ethr =  2.02E-09,  avg # of iterations =  2.0

     negative rho (up, down):  6.836E-07 0.000E+00

     total cpu time spent up to now is       47.3 secs

     total energy              =    -418.02436844 Ry
     estimated scf accuracy    <       0.00000029 Ry

     iteration #  8     ecut=    90.00 Ry     beta= 0.70
     Davidson diagonalization with overlap
     ethr =  3.06E-10,  avg # of iterations =  2.3

     negative rho (up, down):  6.852E-07 0.000E+00

     total cpu time spent up to now is       48.3 secs

     End of self-consistent calculation

          k = 0.0000 0.0000 0.0000 ( 35467 PWs)   bands (ev):

   -21.9353 -21.6628 -21.6628 -21.5207 -21.5207 -21.5107 -21.5107 -21.5014
   -21.4875 -21.3131 -21.3131 -21.1443  -9.6682  -9.5407  -9.5038  -9.5038
    -9.4638  -9.4638  -9.0427  -9.0427  -8.9576  -8.9521  -8.9521  -8.8533
    -7.5240  -6.7034  -6.7034  -6.2612  -6.2612  -6.1800  -6.1800  -5.9609
    -5.9525  -5.3934  -5.3934  -4.8634  -4.0785  -4.0785  -4.0433  -3.8810
    -3.8810  -3.8466  -3.7762  -3.7346  -3.7071  -3.7071  -3.6724  -3.6724

          k =-0.1498-0.0865 0.3111 ( 35577 PWs)   bands (ev):

   -21.8901 -21.6852 -21.6565 -21.6096 -21.5933 -21.5514 -21.4641 -21.4368
   -21.4076 -21.3187 -21.2960 -21.1766  -9.6427  -9.5500  -9.5235  -9.5188
    -9.4623  -9.4299  -9.0427  -9.0263  -8.9657  -8.9272  -8.9172  -8.8841
    -7.3902  -6.8279  -6.7420  -6.4975  -6.3488  -6.1411  -6.0395  -5.8979
    -5.8163  -5.3932  -5.3340  -4.9701  -4.1465  -4.0993  -4.0385  -3.9121
    -3.9028  -3.8809  -3.8461  -3.7550  -3.7203  -3.6681  -3.6619  -3.6225

          k = 0.2996 0.1730-0.6221 ( 35578 PWs)   bands (ev):

   -21.7850 -21.7616 -21.6755 -21.6579 -21.6040 -21.5879 -21.4345 -21.4131
   -21.3432 -21.3121 -21.2691 -21.2445  -9.5995  -9.5772  -9.5442  -9.5098
    -9.4646  -9.4179  -9.0289  -9.0067  -8.9564  -8.9480  -8.8943  -8.8859
    -7.1219  -7.0274  -6.7981  -6.6833  -6.3350  -6.2631  -5.9549  -5.8279
    -5.5451  -5.4534  -5.2888  -5.1281  -4.2081  -4.1095  -4.0359  -3.9604
    -3.9327  -3.9196  -3.8272  -3.7991  -3.7607  -3.6515  -3.6266  -3.5864

          k =-0.1498 0.0865 0.6221 ( 35587 PWs)   bands (ev):

   -21.8007 -21.7163 -21.7102 -21.6412 -21.6240 -21.5866 -21.4321 -21.3872
   -21.3656 -21.3015 -21.2886 -21.2345  -9.6004  -9.5699  -9.5585  -9.4944
    -9.4725  -9.4174  -9.0271  -9.0089  -8.9725  -8.9216  -8.9022  -8.8881
    -7.1536  -6.9286  -6.9118  -6.5668  -6.4209  -6.2904  -5.9155  -5.7608
    -5.6536  -5.3622  -5.3364  -5.1284  -4.1961  -4.1313  -4.0266  -3.9605
    -3.9436  -3.8802  -3.8647  -3.7820  -3.7618  -3.6547  -3.6323  -3.5815

          k = 0.2996 0.3460-0.3111 ( 35576 PWs)   bands (ev):

   -21.8314 -21.7362 -21.6883 -21.6454 -21.6034 -21.5633 -21.4406 -21.3932
   -21.3446 -21.3397 -21.2785 -21.2211  -9.6164  -9.5880  -9.5346  -9.5002
    -9.4661  -9.4122  -9.0741  -9.0493  -8.9926  -8.9099  -8.8834  -8.8737
    -7.1880  -6.9518  -6.7592  -6.6011  -6.5568  -6.1823  -5.8459  -5.7958
    -5.6448  -5.4477  -5.3135  -5.0936  -4.1481  -4.0932  -4.0425  -3.9720
    -3.8918  -3.8624  -3.8236  -3.8026  -3.7530  -3.6919  -3.6351  -3.5696

          k = 0.1498 0.2595 0.0000 ( 35515 PWs)   bands (ev):

   -21.9025 -21.7069 -21.6745 -21.5879 -21.5676 -21.5197 -21.4826 -21.4395
   -21.4133 -21.3206 -21.2982 -21.1696  -9.6528  -9.5628  -9.5210  -9.5172
    -9.4450  -9.4334  -9.0901  -9.0606  -8.9615  -8.9457  -8.9120  -8.8554
    -7.4008  -6.7817  -6.7046  -6.5328  -6.4381  -6.1113  -5.9811  -5.8422
    -5.8161  -5.4349  -5.3701  -4.9365  -4.0772  -4.0689  -4.0519  -3.9328
    -3.8788  -3.8497  -3.7827  -3.7709  -3.7403  -3.7110  -3.6330  -3.6240

          k = 0.2996-0.1730-1.2442 ( 35526 PWs)   bands (ev):

   -21.8217 -21.8060 -21.6840 -21.6171 -21.5687 -21.5327 -21.4531 -21.4267
   -21.3634 -21.3378 -21.2450 -21.2266  -9.6207  -9.6025  -9.5263  -9.5236
    -9.4314  -9.4151  -9.1220  -9.0768  -8.9683  -8.9415  -8.8739  -8.8671
    -7.0973  -7.0871  -6.7180  -6.6809  -6.3828  -6.2136  -5.8843  -5.7575
    -5.6025  -5.5740  -5.2354  -5.0956  -4.0785  -4.0605  -4.0552  -3.9755
    -3.8803  -3.8285  -3.8154  -3.7928  -3.7474  -3.7176  -3.6108  -3.5942

          k = 0.0000 0.0000 0.9332 ( 35545 PWs)   bands (ev):

   -21.7645 -21.7645 -21.7358 -21.6753 -21.5825 -21.5825 -21.3964 -21.3964
   -21.3372 -21.2847 -21.2847 -21.2811  -9.5953  -9.5953  -9.5652  -9.4591
    -9.4591  -9.4469  -9.0838  -9.0339  -9.0339  -8.8797  -8.8797  -8.8648
    -7.0017  -7.0017  -6.9557  -6.6582  -6.3866  -6.3866  -5.6840  -5.6840
    -5.6691  -5.3577  -5.3577  -5.2529  -4.1088  -4.1088  -4.0312  -3.9883
    -3.8697  -3.8697  -3.8450  -3.7893  -3.7893  -3.6661  -3.6661  -3.5501

          k = 0.4494 0.2595 0.0000 ( 35568 PWs)   bands (ev):

   -21.8421 -21.7437 -21.7414 -21.6168 -21.5421 -21.5287 -21.4595 -21.4464
   -21.3666 -21.3025 -21.2785 -21.2145  -9.6257  -9.5854  -9.5617  -9.4887
    -9.4526  -9.4060  -9.1295  -9.0542  -9.0044  -8.9046  -8.8915  -8.8650
    -7.1875  -6.8970  -6.8526  -6.6595  -6.3786  -6.1814  -5.8753  -5.8446
    -5.6281  -5.4233  -5.3271  -5.0743  -4.0688  -4.0672  -4.0553  -3.9765
    -3.8934  -3.8450  -3.8038  -3.7810  -3.7362  -3.7006  -3.6491  -3.5796

          k = 0.2996 0.1730 0.3111 ( 35545 PWs)   bands (ev):

   -21.8598 -21.7133 -21.6615 -21.6484 -21.5857 -21.5605 -21.4453 -21.4339
   -21.3795 -21.3216 -21.2805 -21.1957  -9.6299  -9.5655  -9.5383  -9.5104
    -9.4721  -9.3977  -9.0848  -9.0111  -8.9617  -8.9488  -8.8993  -8.8840
    -7.2803  -6.8508  -6.7535  -6.5913  -6.4632  -6.1706  -5.9682  -5.8373
    -5.7085  -5.4218  -5.3159  -5.0053  -4.1651  -4.0926  -4.0535  -3.9554
    -3.9117  -3.8677  -3.8257  -3.7756  -3.7225  -3.6880  -3.6287  -3.6002

          k = 0.4494-0.2595-0.9332 ( 35525 PWs)   bands (ev):

   -21.7847 -21.7789 -21.6997 -21.6617 -21.5828 -21.5429 -21.4657 -21.4212
   -21.3337 -21.3150 -21.2778 -21.2213  -9.6033  -9.5912  -9.5546  -9.5037
    -9.4705  -9.3771  -9.1095  -9.0166  -8.9619  -8.9531  -8.8908  -8.8841
    -7.0723  -6.9683  -6.7783  -6.7140  -6.4775  -6.1803  -6.0003  -5.7885
    -5.5106  -5.4551  -5.3403  -5.0521  -4.1745  -4.0969  -4.0718  -3.9623
    -3.9266  -3.8998  -3.7890  -3.7554  -3.7405  -3.6956  -3.6314  -3.5726

          k = 0.2996-0.3460-0.6221 ( 35532 PWs)   bands (ev):

   -21.7661 -21.7402 -21.6910 -21.6853 -21.6072 -21.5993 -21.4233 -21.4122
   -21.3322 -21.3224 -21.2762 -21.2326  -9.6061  -9.5596  -9.5430  -9.5115
    -9.4972  -9.3812  -9.0454  -9.0094  -8.9481  -8.9425  -8.9043  -8.8998
    -7.0495  -6.9586  -6.7940  -6.7493  -6.4040  -6.3740  -5.8569  -5.8003
    -5.5165  -5.4769  -5.3418  -5.0650  -4.2341  -4.1089  -4.0749  -3.9818
    -3.9582  -3.8585  -3.8235  -3.7826  -3.7702  -3.6543  -3.6391  -3.5595

          k = 0.0000 0.0000-1.8663 ( 35574 PWs)   bands (ev):

   -21.7460 -21.7171 -21.6874 -21.6874 -21.6411 -21.6411 -21.3838 -21.3838
   -21.3524 -21.3524 -21.2739 -21.2215  -9.6093  -9.5424  -9.5424  -9.5159
    -9.5159  -9.3580  -9.0588  -9.0143  -8.9323  -8.9323  -8.9205  -8.9205
    -6.9978  -6.9196  -6.6463  -6.6463  -6.6141  -6.6141  -5.7208  -5.7208
    -5.5590  -5.5590  -5.3266  -5.0222  -4.2564  -4.1014  -4.1014  -3.9993
    -3.9993  -3.8312  -3.8235  -3.7445  -3.7445  -3.6674  -3.6674  -3.5382

          k = 0.2996-0.3460 0.3111 ( 35576 PWs)   bands (ev):

   -21.8308 -21.7415 -21.6736 -21.6562 -21.6022 -21.5646 -21.4364 -21.3910
   -21.3683 -21.3158 -21.2843 -21.2209  -9.6209  -9.5742  -9.5415  -9.5131
    -9.4498  -9.4177  -9.0794  -9.0458  -8.9899  -8.9067  -8.8903  -8.8710
    -7.1927  -6.9043  -6.8382  -6.6163  -6.4620  -6.2211  -5.9482  -5.6999
    -5.5934  -5.4750  -5.3476  -5.0819  -4.1515  -4.0795  -4.0566  -3.9611
    -3.8931  -3.8643  -3.8255  -3.8028  -3.7685  -3.6728  -3.6353  -3.5746

     highest occupied level (ev):    -3.5382

!    total energy              =    -418.02436847 Ry
     estimated scf accuracy    <       0.00000003 Ry

     The total energy is the sum of the following terms:
     one-electron contribution =    -327.10929426 Ry
     hartree contribution      =     195.17510012 Ry
     xc contribution           =    -105.59719376 Ry
     ewald contribution        =    -180.49298057 Ry

     convergence has been achieved in   8 iterations

     Forces acting on atoms (cartesian axes, Ry/au):

     atom    1 type  2   force =    -0.00619811    0.01078080    0.01249714
     atom    2 type  2   force =     0.00619811   -0.01078080   -0.01249714
     atom    3 type  2   force =    -0.00623739   -0.01075812    0.01249714
     atom    4 type  2   force =     0.00623739    0.01075812   -0.01249714
     atom    5 type  2   force =     0.01243550   -0.00002268    0.01249714
     atom    6 type  2   force =    -0.01243550    0.00002268   -0.01249714
     atom    7 type  2   force =     0.00098690   -0.00612312    0.00085167
     atom    8 type  2   force =    -0.00098690    0.00612312   -0.00085167
     atom    9 type  2   force =     0.00480933    0.00391624    0.00085167
     atom   10 type  2   force =    -0.00480933   -0.00391624   -0.00085167
     atom   11 type  2   force =    -0.00579622    0.00220688    0.00085167
     atom   12 type  2   force =     0.00579622   -0.00220688   -0.00085167
     atom   13 type  1   force =    -0.00479007   -0.00076343   -0.02091539
     atom   14 type  1   force =     0.00479007    0.00076343    0.02091539
     atom   15 type  1   force =     0.00305618   -0.00376661   -0.02091539
     atom   16 type  1   force =    -0.00305618    0.00376661    0.02091539
     atom   17 type  1   force =     0.00173389    0.00453004   -0.02091539
     atom   18 type  1   force =    -0.00173389   -0.00453004    0.02091539
     atom   19 type  1   force =     0.01296934   -0.01308589    0.00420986
     atom   20 type  1   force =    -0.01296934    0.01308589   -0.00420986
     atom   21 type  1   force =     0.00484804    0.01777472    0.00420986
     atom   22 type  1   force =    -0.00484804   -0.01777472   -0.00420986
     atom   23 type  1   force =    -0.01781738   -0.00468883    0.00420986
     atom   24 type  1   force =     0.01781738    0.00468883   -0.00420986
     atom   25 type  1   force =     0.00495261    0.00116076    0.00113342
     atom   26 type  1   force =    -0.00495261   -0.00116076   -0.00113342
     atom   27 type  1   force =    -0.00348155    0.00370870    0.00113342
     atom   28 type  1   force =     0.00348155   -0.00370870   -0.00113342
     atom   29 type  1   force =    -0.00147105   -0.00486946    0.00113342
     atom   30 type  1   force =     0.00147105    0.00486946   -0.00113342
     atom   31 type  1   force =    -0.00179351   -0.00223223    0.00031412
     atom   32 type  1   force =     0.00179351    0.00223223   -0.00031412
     atom   33 type  1   force =     0.00282992   -0.00043711    0.00031412
     atom   34 type  1   force =    -0.00282992    0.00043711   -0.00031412
     atom   35 type  1   force =    -0.00103641    0.00266934    0.00031412
     atom   36 type  1   force =     0.00103641   -0.00266934   -0.00031412

     Total force =     0.084981     Total SCF correction =     0.000137


     Computing stress (Cartesian axis) and pressure

          total   stress  (Ry/bohr**3)                   (kbar)     P=      -15.41
  -0.00012827  -0.00000000   0.00000000          -18.87       -0.00        0.00
   0.00000000  -0.00012827  -0.00000000            0.00      -18.87       -0.00
   0.00000000  -0.00000000  -0.00005771            0.00       -0.00       -8.49

     Energy error            =      1.5E-02 Ry
     Gradient error          =      2.1E-02 Ry/Bohr

     number of scf cycles    =   3
     number of bfgs steps    =   2

     energy             old  =    -418.0097713668 Ry
     energy             new  =    -418.0243684711 Ry

     CASE: energy            _new < energy            _old

     new trust radius        =       0.0576023548 bohr
     new conv_thr            =       0.0000000209 Ry


ATOMIC_POSITIONS (crystal)
O                0.2743541458        0.0389891334        0.8612958024
O                0.7256458542        0.9610108776        0.1387041676
O                0.8612958024        0.2743541458        0.0389891334
O                0.1387041676        0.7256458542        0.9610108776
O                0.0389891334        0.8612958024        0.2743541458
O                0.9610108776        0.1387041676        0.7256458542
O                0.4687973614        0.7474712682        0.3295012668
O                0.5312026386        0.2525287318        0.6704987032
O                0.3295012668        0.4687973614        0.7474712682
O                0.6704987032        0.5312026386        0.2525287318
O                0.7474712682        0.3295012668        0.4687973614
O                0.2525287318        0.6704987032        0.5312026386
H                0.1576797894        0.0566890562        0.8020905210
H                0.8423201966        0.9433109358        0.1979094790
H                0.8020905210        0.1576797894        0.0566890562
H                0.1979094790        0.8423201966        0.9433109358
H                0.0566890562        0.8020905210        0.1576797894
H                0.9433109358        0.1979094790        0.8423201966
H                0.4177128016        0.1998391905        0.9959458428
H                0.5822871984        0.8001608245        0.0040541362
H                0.9959458428        0.4177128016        0.1998391905
H                0.0040541362        0.5822871984        0.8001608245
H                0.1998391905        0.9959458428        0.4177128016
H                0.8001608245        0.0040541362        0.5822871984
H                0.7213926618        0.3994569052        0.3987581271
H                0.2786073382        0.6005430648        0.6012419029
H                0.3987581271        0.7213926618        0.3994569052
H                0.6012419029        0.2786073382        0.6005430648
H                0.3994569052        0.3987581271        0.7213926618
H                0.6005430648        0.6012419029        0.2786073382
H                0.7416104579        0.2085242891        0.3670333974
H                0.2583895421        0.7914756959        0.6329666026
H                0.3670333974        0.7416104579        0.2085242891
H                0.6329666026        0.2583895421        0.7914756959
H                0.2085242891        0.3670333974        0.7416104579
H                0.7914756959        0.6329666026        0.2583895421



     Writing config-only to output data dir ./iceII/iceII.save/ :
     XML data file
     NEW-OLD atomic charge density approx. for the potential

     negative rho (up, down):  7.421E-07 0.000E+00

     total cpu time spent up to now is       50.2 secs

     per-process dynamical memory:    21.8 Mb

     Self-consistent Calculation

     iteration #  1     ecut=    90.00 Ry     beta= 0.70
     Davidson diagonalization with overlap
     ethr =  1.00E-06,  avg # of iterations =  7.0

     negative rho (up, down):  3.162E-07 0.000E+00

     total cpu time spent up to now is       52.0 secs

     total energy              =    -418.03420881 Ry
     estimated scf accuracy    <       0.00127471 Ry

     iteration #  2     ecut=    90.00 Ry     beta= 0.70
     Davidson diagonalization with overlap
     ethr =  1.33E-06,  avg # of iterations =  2.2

     negative rho (up, down):  2.641E-07 0.000E+00

     total cpu time spent up to now is       53.1 secs

     total energy              =    -418.03443612 Ry
     estimated scf accuracy    <       0.00019008 Ry

     iteration #  3     ecut=    90.00 Ry     beta= 0.70
     Davidson diagonalization with overlap
     ethr =  1.98E-07,  avg # of iterations =  2.3

     negative rho (up, down):  2.526E-07 0.000E+00

     total cpu time spent up to now is       54.3 secs

     total energy              =    -418.03448011 Ry
     estimated scf accuracy    <       0.00002056 Ry

     iteration #  4     ecut=    90.00 Ry     beta= 0.70
     Davidson diagonalization with overlap
     ethr =  2.14E-08,  avg # of iterations =  2.1

     negative rho (up, down):  2.487E-07 0.000E+00

     total cpu time spent up to now is       55.3 secs

     total energy              =    -418.03448263 Ry
     estimated scf accuracy    <       0.00000113 Ry

     iteration #  5     ecut=    90.00 Ry     beta= 0.70
     Davidson diagonalization with overlap
     ethr =  1.17E-09,  avg # of iterations =  3.4

     negative rho (up, down):  2.486E-07 0.000E+00

     total cpu time spent up to now is       56.6 secs

     total energy              =    -418.03448301 Ry
     estimated scf accuracy    <       0.00000018 Ry

     iteration #  6     ecut=    90.00 Ry     beta= 0.70
     Davidson diagonalization with overlap
     ethr =  1.86E-10,  avg # of iterations =  3.0

     negative rho (up, down):  2.485E-07 0.000E+00

     total cpu time spent up to now is       57.7 secs

     End of self-consistent calculation

          k = 0.0000 0.0000 0.0000 ( 35467 PWs)   bands (ev):

   -21.8838 -21.6225 -21.6225 -21.4648 -21.4648 -21.4322 -21.4322 -21.4296
   -21.4277 -21.2240 -21.2240 -21.0648  -9.6196  -9.5050  -9.4669  -9.4669
    -9.4615  -9.4615  -9.1585  -9.1585  -9.1233  -9.1193  -9.1193  -9.0280
    -7.4324  -6.5808  -6.5808  -6.2280  -6.2280  -6.0630  -6.0630  -5.8860
    -5.8295  -5.3200  -5.3200  -4.7987  -4.0692  -4.0692  -4.0301  -3.8704
    -3.8704  -3.8268  -3.7678  -3.7149  -3.6820  -3.6820  -3.6602  -3.6602

          k =-0.1498-0.0865 0.3111 ( 35577 PWs)   bands (ev):

   -21.8403 -21.6430 -21.6249 -21.5394 -21.5091 -21.4887 -21.4007 -21.3722
   -21.3469 -21.2285 -21.2079 -21.0940  -9.5953  -9.5205  -9.4922  -9.4832
    -9.4480  -9.4091  -9.1811  -9.1610  -9.1336  -9.0841  -9.0725  -9.0514
    -7.2985  -6.7255  -6.6229  -6.4239  -6.3120  -6.0663  -5.8886  -5.8363
    -5.6794  -5.3221  -5.2653  -4.9144  -4.1319  -4.0877  -4.0256  -3.9012
    -3.8931  -3.8585  -3.8383  -3.7346  -3.7070  -3.6577  -3.6355  -3.6077

          k = 0.2996 0.1730-0.6221 ( 35578 PWs)   bands (ev):

   -21.7543 -21.6987 -21.6416 -21.5799 -21.5393 -21.5113 -21.3818 -21.3431
   -21.2874 -21.2245 -21.1934 -21.1432  -9.5545  -9.5405  -9.5065  -9.4860
    -9.4424  -9.3907  -9.1786  -9.1664  -9.1165  -9.1029  -9.0494  -9.0391
    -6.9948  -6.9683  -6.6622  -6.6472  -6.2512  -6.2313  -5.7745  -5.7276
    -5.4176  -5.3783  -5.2244  -5.1107  -4.1893  -4.0971  -4.0238  -3.9401
    -3.9167  -3.9100  -3.8132  -3.7978  -3.7381  -3.6426  -3.5997  -3.5728

          k =-0.1498 0.0865 0.6221 ( 35587 PWs)   bands (ev):

   -21.7614 -21.6716 -21.6593 -21.5769 -21.5456 -21.5186 -21.3700 -21.3347
   -21.2983 -21.2194 -21.2041 -21.1387  -9.5555  -9.5314  -9.5239  -9.4730
    -9.4453  -9.3909  -9.1769  -9.1685  -9.1332  -9.0734  -9.0574  -9.0440
    -7.0519  -6.8396  -6.8166  -6.4896  -6.3618  -6.2242  -5.7860  -5.6018
    -5.5506  -5.3064  -5.2513  -5.1102  -4.1776  -4.1163  -4.0166  -3.9362
    -3.9336  -3.8706  -3.8540  -3.7697  -3.7472  -3.6407  -3.6108  -3.5654

          k = 0.2996 0.3460-0.3111 ( 35576 PWs)   bands (ev):

   -21.7840 -21.6920 -21.6530 -21.5688 -21.5221 -21.5017 -21.3813 -21.3371
   -21.2935 -21.2402 -21.1910 -21.1311  -9.5715  -9.5482  -9.4949  -9.4707
    -9.4467  -9.3888  -9.2224  -9.2052  -9.1570  -9.0635  -9.0425  -9.0303
    -7.0944  -6.8268  -6.6874  -6.5287  -6.4803  -6.0990  -5.7267  -5.6306
    -5.6016  -5.3579  -5.2525  -5.0516  -4.1332  -4.0815  -4.0310  -3.9586
    -3.8759  -3.8441  -3.8141  -3.7878  -3.7451  -3.6786  -3.6086  -3.5530

          k = 0.1498 0.2595 0.0000 ( 35515 PWs)   bands (ev):

   -21.8514 -21.6650 -21.6333 -21.5228 -21.4964 -21.4419 -21.4284 -21.3713
   -21.3556 -21.2313 -21.2073 -21.0882  -9.6048  -9.5263  -9.4917  -9.4806
    -9.4277  -9.4210  -9.2304  -9.1993  -9.1295  -9.0980  -9.0658  -9.0251
    -7.3081  -6.6403  -6.6177  -6.4534  -6.3851  -6.0109  -5.8772  -5.7473
    -5.7260  -5.3599  -5.3044  -4.8729  -4.0687  -4.0591  -4.0398  -3.9207
    -3.8653  -3.8272  -3.7786  -3.7531  -3.7231  -3.6944  -3.6138  -3.6038

          k = 0.2996-0.1730-1.2442 ( 35526 PWs)   bands (ev):

   -21.7693 -21.7615 -21.6428 -21.5500 -21.5034 -21.4504 -21.4088 -21.3545
   -21.3091 -21.2429 -21.1662 -21.1338  -9.5756  -9.5580  -9.4981  -9.4831
    -9.4063  -9.3949  -9.2758  -9.2322  -9.1378  -9.0886  -9.0359  -9.0247
    -6.9969  -6.9875  -6.6151  -6.6117  -6.3059  -6.1034  -5.7550  -5.6839
    -5.5398  -5.4753  -5.1650  -5.0429  -4.0691  -4.0486  -4.0458  -3.9637
    -3.8624  -3.8039  -3.7994  -3.7904  -3.7347  -3.7032  -3.5907  -3.5721

          k = 0.0000 0.0000 0.9332 ( 35545 PWs)   bands (ev):

   -21.7146 -21.7140 -21.7140 -21.5713 -21.5235 -21.5235 -21.3274 -21.3274
   -21.3103 -21.1999 -21.1999 -21.1697  -9.5536  -9.5536  -9.5199  -9.4328
    -9.4328  -9.4306  -9.2413  -9.1922  -9.1922  -9.0336  -9.0336  -9.0218
    -6.9087  -6.9087  -6.7874  -6.6687  -6.3017  -6.3017  -5.5684  -5.5684
    -5.4629  -5.3101  -5.3101  -5.2562  -4.0953  -4.0953  -4.0212  -3.9792
    -3.8486  -3.8486  -3.8285  -3.7847  -3.7847  -3.6438  -3.6438  -3.5341

          k = 0.4494 0.2595 0.0000 ( 35568 PWs)   bands (ev):

   -21.7922 -21.7021 -21.6926 -21.5348 -21.4957 -21.4657 -21.3893 -21.3664
   -21.3205 -21.2170 -21.1895 -21.1268  -9.5793  -9.5439  -9.5221  -9.4579
    -9.4301  -9.3832  -9.2834  -9.2079  -9.1686  -9.0631  -9.0437  -9.0278
    -7.0908  -6.7718  -6.7579  -6.6194  -6.2765  -6.0671  -5.7924  -5.7641
    -5.4994  -5.3590  -5.2671  -5.0173  -4.0611  -4.0552  -4.0441  -3.9645
    -3.8765  -3.8291  -3.7886  -3.7707  -3.7206  -3.6855  -3.6317  -3.5565

          k = 0.2996 0.1730 0.3111 ( 35545 PWs)   bands (ev):

   -21.8110 -21.6718 -21.6299 -21.5727 -21.5114 -21.4842 -21.3965 -21.3701
   -21.3018 -21.2459 -21.1914 -21.1088  -9.5831  -9.5314  -9.5049  -9.4704
    -9.4533  -9.3763  -9.2292  -9.1566  -9.1243  -9.1144  -9.0540  -9.0468
    -7.1880  -6.7437  -6.6834  -6.4601  -6.4139  -6.0916  -5.8157  -5.7466
    -5.6576  -5.3176  -5.2516  -4.9538  -4.1497  -4.0793  -4.0408  -3.9403
    -3.8979  -3.8531  -3.8150  -3.7598  -3.7147  -3.6735  -3.6157  -3.5724

          k = 0.4494-0.2595-0.9332 ( 35525 PWs)   bands (ev):

   -21.7437 -21.7292 -21.6589 -21.5836 -21.5168 -21.4769 -21.4008 -21.3561
   -21.2684 -21.2409 -21.1964 -21.1239  -9.5591  -9.5492  -9.5182  -9.4679
    -9.4416  -9.3499  -9.2603  -9.1790  -9.1311  -9.1091  -9.0508  -9.0408
    -6.9753  -6.8784  -6.7109  -6.6208  -6.3657  -6.0623  -5.9083  -5.7175
    -5.4532  -5.3220  -5.2728  -5.0078  -4.1584  -4.0817  -4.0575  -3.9472
    -3.9103  -3.8882  -3.7783  -3.7461  -3.7310  -3.6841  -3.6158  -3.5438

          k = 0.2996-0.3460-0.6221 ( 35532 PWs)   bands (ev):

   -21.7384 -21.6804 -21.6540 -21.6119 -21.5361 -21.5203 -21.3713 -21.3496
   -21.2587 -21.2338 -21.2161 -21.1280  -9.5623  -9.5195  -9.5036  -9.4842
    -9.4693  -9.3526  -9.1912  -9.1767  -9.1105  -9.1000  -9.0620  -9.0563
    -6.9322  -6.9034  -6.6956  -6.6704  -6.3136  -6.2855  -5.7256  -5.6915
    -5.4490  -5.4285  -5.1977  -5.0563  -4.2114  -4.0945  -4.0606  -3.9646
    -3.9408  -3.8545  -3.8098  -3.7736  -3.7570  -3.6438  -3.6246  -3.5334

          k = 0.0000 0.0000-1.8663 ( 35574 PWs)   bands (ev):

   -21.7209 -21.6599 -21.6599 -21.6220 -21.5542 -21.5542 -21.3389 -21.3389
   -21.2491 -21.2491 -21.2352 -21.1160  -9.5647  -9.5020  -9.5020  -9.4834
    -9.4834  -9.3246  -9.2032  -9.1872  -9.0974  -9.0974  -9.0785  -9.0785
    -6.9234  -6.8385  -6.5909  -6.5909  -6.4679  -6.4679  -5.5650  -5.5650
    -5.5632  -5.5632  -5.1590  -5.0155  -4.2287  -4.0862  -4.0862  -3.9829
    -3.9829  -3.8266  -3.8100  -3.7385  -3.7385  -3.6534  -3.6534  -3.5093

          k = 0.2996-0.3460 0.3111 ( 35576 PWs)   bands (ev):

   -21.7827 -21.7014 -21.6401 -21.5691 -21.5300 -21.5015 -21.3639 -21.3509
   -21.2996 -21.2284 -21.1977 -21.1304  -9.5746  -9.5382  -9.5018  -9.4810
    -9.4303  -9.3947  -9.2309  -9.1992  -9.1539  -9.0596  -9.0475  -9.0301
    -7.0933  -6.8340  -6.7003  -6.5078  -6.4564  -6.1323  -5.7912  -5.5809
    -5.5276  -5.3860  -5.2893  -5.0384  -4.1369  -4.0665  -4.0452  -3.9495
    -3.8764  -3.8465  -3.8156  -3.7840  -3.7633  -3.6616  -3.6082  -3.5576

     highest occupied level (ev):    -3.5093

!    total energy              =    -418.03448305 Ry
     estimated scf accuracy    <       0.00000001 Ry

     The total energy is the sum of the following terms:
     one-electron contribution =    -325.97978621 Ry
     hartree contribution      =     194.65737520 Ry
     xc contribution           =    -105.53097885 Ry
     ewald contribution        =    -181.18109319 Ry

     convergence has been achieved in   6 iterations

     Forces acting on atoms (cartesian axes, Ry/au):

     atom    1 type  2   force =    -0.00482461    0.00581136    0.00082228
     atom    2 type  2   force =     0.00482461   -0.00581136   -0.00082228
     atom    3 type  2   force =    -0.00262048   -0.00708391    0.00082228
     atom    4 type  2   force =     0.00262048    0.00708391   -0.00082228
     atom    5 type  2   force =     0.00744509    0.00127255    0.00082228
     atom    6 type  2   force =    -0.00744509   -0.00127255   -0.00082228
     atom    7 type  2   force =    -0.00196392    0.00074665   -0.00437529
     atom    8 type  2   force =     0.00196392   -0.00074665    0.00437529
     atom    9 type  2   force =     0.00033534   -0.00207413   -0.00437529
     atom   10 type  2   force =    -0.00033534    0.00207413    0.00437529
     atom   11 type  2   force =     0.00162858    0.00132748   -0.00437529
     atom   12 type  2   force =    -0.00162858   -0.00132748    0.00437529
     atom   13 type  1   force =    -0.00020775   -0.00786370   -0.00224876
     atom   14 type  1   force =     0.00020775    0.00786370    0.00224876
     atom   15 type  1   force =     0.00691404    0.00375194   -0.00224876
     atom   16 type  1   force =    -0.00691404   -0.00375194    0.00224876
     atom   17 type  1   force =    -0.00670629    0.00411177   -0.00224876
     atom   18 type  1   force =     0.00670629   -0.00411177    0.00224876
     atom   19 type  1   force =     0.00647437   -0.00057476   -0.00228465
     atom   20 type  1   force =    -0.00647437    0.00057476    0.00228465
     atom   21 type  1   force =    -0.00273943    0.00589435   -0.00228465
     atom   22 type  1   force =     0.00273943   -0.00589435    0.00228465
     atom   23 type  1   force =    -0.00373494   -0.00531959   -0.00228465
     atom   24 type  1   force =     0.00373494    0.00531959    0.00228465
     atom   25 type  1   force =     0.00215322   -0.00227169    0.00236205
     atom   26 type  1   force =    -0.00215322    0.00227169   -0.00236205
     atom   27 type  1   force =     0.00089073    0.00300059    0.00236205
     atom   28 type  1   force =    -0.00089073   -0.00300059   -0.00236205
     atom   29 type  1   force =    -0.00304395   -0.00072890    0.00236205
     atom   30 type  1   force =     0.00304395    0.00072890   -0.00236205
     atom   31 type  1   force =    -0.00612101    0.00091433    0.00367313
     atom   32 type  1   force =     0.00612101   -0.00091433   -0.00367313
     atom   33 type  1   force =     0.00226867   -0.00575812    0.00367313
     atom   34 type  1   force =    -0.00226867    0.00575812   -0.00367313
     atom   35 type  1   force =     0.00385234    0.00484379    0.00367313
     atom   36 type  1   force =    -0.00385234   -0.00484379   -0.00367313

     Total force =     0.039713     Total SCF correction =     0.000140


     Computing stress (Cartesian axis) and pressure

          total   stress  (Ry/bohr**3)                   (kbar)     P=      -22.12
  -0.00016894   0.00000000   0.00000000          -24.85        0.00        0.00
  -0.00000000  -0.00016894  -0.00000000           -0.00      -24.85       -0.00
   0.00000000  -0.00000000  -0.00011323            0.00       -0.00      -16.66

     Energy error            =      1.0E-02 Ry
     Gradient error          =      7.9E-03 Ry/Bohr

     number of scf cycles    =   4
     number of bfgs steps    =   3

     energy             old  =    -418.0243684711 Ry
     energy             new  =    -418.0344830535 Ry

     CASE: energy            _new < energy            _old

     new trust radius        =       0.0176374715 bohr
     new conv_thr            =       0.0000000079 Ry


ATOMIC_POSITIONS (crystal)
O                0.2740115844        0.0395497635        0.8615717623
O                0.7259884156        0.9604502475        0.1384282077
O                0.8615717623        0.2740115844        0.0395497635
O                0.1384282077        0.7259884156        0.9604502475
O                0.0395497635        0.8615717623        0.2740115844
O                0.9604502475        0.1384282077        0.7259884156
O                0.4683866376        0.7470158280        0.3291985647
O                0.5316133624        0.2529841720        0.6708014053
O                0.3291985647        0.4683866376        0.7470158280
O                0.6708014053        0.5316133624        0.2529841720
O                0.7470158280        0.3291985647        0.4683866376
O                0.2529841720        0.6708014053        0.5316133624
H                0.1564423568        0.0551731326        0.8011590538
[...]
H                0.7495122347        0.2148867902        0.3846876100
H                0.2504877653        0.7851131948        0.6153123900
H                0.3846876100        0.7495122347        0.2148867902
H                0.6153123900        0.2504877653        0.7851131948
H                0.2148867902        0.3846876100        0.7495122347
H                0.7851131948        0.6153123900        0.2504877653



     Writing config-only to output data dir ./iceII/iceII.save/ :
     XML data file
     NEW-OLD atomic charge density approx. for the potential

     negative rho (up, down):  1.674E-06 0.000E+00

     total cpu time spent up to now is      362.8 secs

     per-process dynamical memory:    22.2 Mb

     Self-consistent Calculation

     iteration #  1     ecut=    90.00 Ry     beta= 0.70
     Davidson diagonalization with overlap
     ethr =  1.00E-06,  avg # of iterations =  4.0

     negative rho (up, down):  1.607E-06 0.000E+00

     total cpu time spent up to now is      364.3 secs

     total energy              =    -418.04407413 Ry
     estimated scf accuracy    <       0.00021709 Ry

     iteration #  2     ecut=    90.00 Ry     beta= 0.70
     Davidson diagonalization with overlap
     ethr =  2.26E-07,  avg # of iterations =  2.0

     negative rho (up, down):  1.620E-06 0.000E+00

     total cpu time spent up to now is      365.3 secs

     total energy              =    -418.04410918 Ry
     estimated scf accuracy    <       0.00002076 Ry

     iteration #  3     ecut=    90.00 Ry     beta= 0.70
     Davidson diagonalization with overlap
     ethr =  2.16E-08,  avg # of iterations =  2.6

     negative rho (up, down):  1.619E-06 0.000E+00

     total cpu time spent up to now is      366.5 secs

     total energy              =    -418.04411423 Ry
     estimated scf accuracy    <       0.00000407 Ry

     iteration #  4     ecut=    90.00 Ry     beta= 0.70
     Davidson diagonalization with overlap
     ethr =  4.24E-09,  avg # of iterations =  2.0

     negative rho (up, down):  1.622E-06 0.000E+00

     total cpu time spent up to now is      367.6 secs

     total energy              =    -418.04411498 Ry
     estimated scf accuracy    <       0.00000019 Ry

     iteration #  5     ecut=    90.00 Ry     beta= 0.70
     Davidson diagonalization with overlap
     ethr =  2.00E-10,  avg # of iterations =  3.0

     negative rho (up, down):  1.623E-06 0.000E+00

     total cpu time spent up to now is      368.8 secs

     total energy              =    -418.04411502 Ry
     estimated scf accuracy    <       0.00000012 Ry

     iteration #  6     ecut=    90.00 Ry     beta= 0.70
     Davidson diagonalization with overlap
     ethr =  1.23E-10,  avg # of iterations =  2.0

     negative rho (up, down):  1.624E-06 0.000E+00

     total cpu time spent up to now is      369.9 secs

     total energy              =    -418.04411504 Ry
     estimated scf accuracy    <          5.8E-09 Ry

     iteration #  7     ecut=    90.00 Ry     beta= 0.70
     Davidson diagonalization with overlap
     ethr =  6.06E-12,  avg # of iterations =  4.6

     negative rho (up, down):  1.624E-06 0.000E+00

     total cpu time spent up to now is      371.4 secs

     total energy              =    -418.04411504 Ry
     estimated scf accuracy    <          6.3E-09 Ry

     iteration #  8     ecut=    90.00 Ry     beta= 0.70
     Davidson diagonalization with overlap
     ethr =  6.06E-12,  avg # of iterations =  2.0

     negative rho (up, down):  1.624E-06 0.000E+00

     total cpu time spent up to now is      372.3 secs

     End of self-consistent calculation

          k = 0.0000 0.0000 0.0000 ( 35467 PWs)   bands (ev):

   -21.8898 -21.6122 -21.6122 -21.4700 -21.4700 -21.4560 -21.4549 -21.4549
   -21.4540 -21.2659 -21.2659 -21.0774  -9.5142  -9.4700  -9.4351  -9.4351
    -9.3969  -9.3969  -9.1874  -9.1874  -9.1871  -9.1871  -9.1641  -9.1553
    -7.3764  -6.6030  -6.6030  -6.1782  -6.1782  -6.0293  -6.0293  -5.9202
    -5.8521  -5.3136  -5.3136  -4.7313  -4.0446  -4.0446  -3.9961  -3.8824
    -3.8824  -3.8495  -3.7663  -3.7514  -3.7452  -3.7452  -3.6855  -3.6855

          k =-0.1498-0.0865 0.3111 ( 35577 PWs)   bands (ev):

   -21.8447 -21.6356 -21.6087 -21.5599 -21.5378 -21.5030 -21.4212 -21.3906
   -21.3602 -21.2685 -21.2438 -21.1122  -9.4978  -9.4680  -9.4469  -9.4371
    -9.3940  -9.3709  -9.2241  -9.2038  -9.1950  -9.1574  -9.1350  -9.1281
    -7.2554  -6.7337  -6.6392  -6.4004  -6.2537  -6.0685  -5.8735  -5.8297
    -5.6737  -5.3132  -5.2581  -4.8538  -4.1001  -4.0532  -4.0007  -3.9209
    -3.9182  -3.8879  -3.8333  -3.7510  -3.7400  -3.7085  -3.6772  -3.6666

          k = 0.2996 0.1730-0.6221 ( 35578 PWs)   bands (ev):

   -21.7398 -21.7165 -21.6275 -21.6057 -21.5509 -21.5345 -21.3951 -21.3735
   -21.2937 -21.2560 -21.2121 -21.1835  -9.4757  -9.4700  -9.4502  -9.4413
    -9.3948  -9.3463  -9.2335  -9.2273  -9.1896  -9.1646  -9.1072  -9.0971
    -6.9889  -6.9437  -6.6517  -6.6440  -6.2252  -6.1983  -5.7697  -5.7423
    -5.3850  -5.3511  -5.2065  -5.0794  -4.1536  -4.0618  -3.9893  -3.9758
    -3.9403  -3.9269  -3.8501  -3.7818  -3.7554  -3.6893  -3.6495  -3.6489

          k =-0.1498 0.0865 0.6221 ( 35587 PWs)   bands (ev):

   -21.7565 -21.6694 -21.6609 -21.5921 -21.5706 -21.5350 -21.3903 -21.3469
   -21.3163 -21.2451 -21.2326 -21.1729  -9.4763  -9.4634  -9.4548  -9.4465
    -9.3891  -9.3469  -9.2293  -9.2274  -9.2106  -9.1367  -9.1161  -9.1004
    -7.0342  -6.8309  -6.8043  -6.4856  -6.3355  -6.2007  -5.7836  -5.5953
    -5.5265  -5.2885  -5.2268  -5.0759  -4.1443  -4.0786  -3.9822  -3.9715
    -3.9422  -3.9129  -3.8723  -3.7631  -3.7591  -3.6960  -3.6624  -3.6357

          k = 0.2996 0.3460-0.3111 ( 35576 PWs)   bands (ev):

   -21.7847 -21.6856 -21.6418 -21.5930 -21.5563 -21.5193 -21.3964 -21.3446
   -21.2935 -21.2889 -21.2203 -21.1614  -9.4834  -9.4792  -9.4332  -9.4319
    -9.3919  -9.3600  -9.2615  -9.2485  -9.2165  -9.1347  -9.1270  -9.1004
    -7.0587  -6.8153  -6.6859  -6.5079  -6.4608  -6.1028  -5.7330  -5.6270
    -5.5642  -5.3258  -5.2324  -5.0230  -4.1050  -4.0461  -4.0019  -3.9610
    -3.9115  -3.8829  -3.8321  -3.8066  -3.7419  -3.7326  -3.6507  -3.6166

          k = 0.1498 0.2595 0.0000 ( 35515 PWs)   bands (ev):

   -21.8564 -21.6548 -21.6212 -21.5439 -21.5248 -21.4759 -21.4312 -21.3883
   -21.3617 -21.2713 -21.2480 -21.1055  -9.5031  -9.4709  -9.4383  -9.4319
    -9.3932  -9.3835  -9.2493  -9.2353  -9.1889  -9.1595  -9.1451  -9.1290
    -7.2583  -6.6396  -6.6161  -6.4150  -6.3904  -6.0152  -5.8562  -5.7418
    -5.7076  -5.3441  -5.2986  -4.8207  -4.0445  -4.0313  -4.0067  -3.9175
    -3.8770  -3.8682  -3.8036  -3.7817  -3.7736  -3.7254  -3.6520  -3.6405

          k = 0.2996-0.1730-1.2442 ( 35526 PWs)   bands (ev):

   -21.7769 -21.7534 -21.6277 -21.5762 -21.5271 -21.4906 -21.3991 -21.3805
   -21.3088 -21.2865 -21.1845 -21.1716  -9.4855  -9.4765  -9.4373  -9.4314
    -9.3853  -9.3708  -9.2870  -9.2655  -9.1979  -9.1530  -9.1362  -9.1128
    -6.9674  -6.9352  -6.6427  -6.5585  -6.3325  -6.1245  -5.7045  -5.6942
    -5.5366  -5.4285  -5.1227  -5.0376  -4.0430  -4.0176  -4.0169  -3.9497
    -3.8653  -3.8622  -3.8545  -3.8071  -3.7806  -3.7180  -3.6314  -3.6108

          k = 0.0000 0.0000 0.9332 ( 35545 PWs)   bands (ev):

   -21.7167 -21.7167 -21.6842 -21.6284 -21.5372 -21.5372 -21.3494 -21.3494
   -21.2915 -21.2254 -21.2248 -21.2248  -9.4800  -9.4800  -9.4433  -9.4063
    -9.3839  -9.3839  -9.2929  -9.2393  -9.2393  -9.1121  -9.1121  -9.0921
    -6.8788  -6.8788  -6.7961  -6.6074  -6.3238  -6.3238  -5.5577  -5.5577
    -5.4202  -5.2772  -5.2772  -5.2541  -4.0636  -4.0636  -3.9860  -3.9689
    -3.8960  -3.8960  -3.8766  -3.7785  -3.7785  -3.6883  -3.6883  -3.6006

          k = 0.4494 0.2595 0.0000 ( 35568 PWs)   bands (ev):

   -21.7949 -21.6925 -21.6895 -21.5750 -21.5002 -21.4833 -21.4122 -21.3947
   -21.3130 -21.2476 -21.2246 -21.1556  -9.4866  -9.4719  -9.4507  -9.4138
    -9.3951  -9.3675  -9.2989  -9.2444  -9.2167  -9.1431  -9.1284  -9.1220
    -7.0479  -6.7302  -6.7209  -6.6389  -6.3043  -6.0890  -5.7864  -5.7228
    -5.4571  -5.3379  -5.2554  -4.9941  -4.0389  -4.0205  -4.0139  -3.9409
    -3.9077  -3.8658  -3.8308  -3.8042  -3.7759  -3.6998  -3.6539  -3.6048

          k = 0.2996 0.1730 0.3111 ( 35545 PWs)   bands (ev):

   -21.8137 -21.6621 -21.6135 -21.5991 -21.5404 -21.5103 -21.4040 -21.3828
   -21.3288 -21.2713 -21.2258 -21.1341  -9.4900  -9.4658  -9.4559  -9.4178
    -9.4007  -9.3510  -9.2526  -9.2128  -9.1886  -9.1745  -9.1464  -9.1148
    -7.1489  -6.7377  -6.6987  -6.4342  -6.3859  -6.0769  -5.8249  -5.7131
    -5.6557  -5.2925  -5.2368  -4.9170  -4.1236  -4.0390  -4.0128  -3.9616
    -3.9244  -3.8736  -3.8224  -3.7917  -3.7325  -3.7256  -3.6562  -3.6271

          k = 0.4494-0.2595-0.9332 ( 35525 PWs)   bands (ev):

   -21.7343 -21.7320 -21.6501 -21.6160 -21.5392 -21.4920 -21.4243 -21.3689
   -21.2813 -21.2633 -21.2196 -21.1646  -9.4791  -9.4683  -9.4547  -9.4118
    -9.3963  -9.3315  -9.2740  -9.2355  -9.2009  -9.1752  -9.1383  -9.1182
    -6.9416  -6.8494  -6.7365  -6.5806  -6.3691  -6.0457  -5.9158  -5.6830
    -5.4473  -5.2768  -5.2363  -5.0125  -4.1341  -4.0456  -4.0257  -3.9706
    -3.9442  -3.8769  -3.8152  -3.7928  -3.7432  -3.7185  -3.6556  -3.5978

          k = 0.2996-0.3460-0.6221 ( 35532 PWs)   bands (ev):

   -21.7197 -21.6937 -21.6444 -21.6355 -21.5563 -21.5484 -21.3809 -21.3689
   -21.2781 -21.2657 -21.2243 -21.1727  -9.4814  -9.4521  -9.4438  -9.4320
    -9.4122  -9.3176  -9.2384  -9.2357  -9.1892  -9.1703  -9.1237  -9.1163
    -6.9257  -6.8986  -6.6823  -6.6540  -6.2799  -6.2523  -5.7366  -5.6966
    -5.4146  -5.3913  -5.1479  -5.0663  -4.1812  -4.0583  -4.0267  -3.9992
    -3.9678  -3.8870  -3.8027  -3.7856  -3.7699  -3.6923  -3.6818  -3.5982

          k = 0.0000 0.0000-1.8663 ( 35574 PWs)   bands (ev):

   -21.6971 -21.6647 -21.6417 -21.6417 -21.5953 -21.5953 -21.3355 -21.3355
   -21.2973 -21.2973 -21.2252 -21.1617  -9.4815  -9.4363  -9.4363  -9.4242
    -9.4242  -9.2934  -9.2461  -9.2437  -9.1788  -9.1788  -9.1423  -9.1423
    -6.9325  -6.8371  -6.5527  -6.5527  -6.4560  -6.4560  -5.5646  -5.5646
    -5.5233  -5.5233  -5.0976  -5.0461  -4.1975  -4.0507  -4.0507  -4.0198
    -4.0198  -3.8525  -3.7949  -3.7380  -3.7380  -3.7233  -3.7233  -3.5713

          k = 0.2996-0.3460 0.3111 ( 35576 PWs)   bands (ev):

   -21.7842 -21.6915 -21.6257 -21.6059 -21.5546 -21.5195 -21.3918 -21.3448
   -21.3179 -21.2602 -21.2290 -21.1607  -9.4883  -9.4722  -9.4407  -9.4163
    -9.4058  -9.3567  -9.2632  -9.2479  -9.2158  -9.1359  -9.1207  -9.1048
    -7.0592  -6.8167  -6.7015  -6.4787  -6.4452  -6.1408  -5.7873  -5.5633
    -5.5099  -5.3603  -5.2654  -5.0086  -4.1083  -4.0352  -4.0126  -3.9546
    -3.9070  -3.8806  -3.8454  -3.8054  -3.7597  -3.7088  -3.6540  -3.6174

     highest occupied level (ev):    -3.5713

!    total energy              =    -418.04411504 Ry
     estimated scf accuracy    <          8.1E-10 Ry

     The total energy is the sum of the following terms:
     one-electron contribution =    -327.89053070 Ry
     hartree contribution      =     195.62614756 Ry
     xc contribution           =    -105.57272895 Ry
     ewald contribution        =    -180.20700294 Ry

     convergence has been achieved in   8 iterations

     Forces acting on atoms (cartesian axes, Ry/au):

     atom    1 type  2   force =     0.00007468   -0.00046698   -0.00076766
     atom    2 type  2   force =    -0.00007468    0.00046698    0.00076766
     atom    3 type  2   force =     0.00036708    0.00029817   -0.00076766
     atom    4 type  2   force =    -0.00036708   -0.00029817    0.00076766
     atom    5 type  2   force =    -0.00044176    0.00016882   -0.00076766
     atom    6 type  2   force =     0.00044176   -0.00016882    0.00076766
     atom    7 type  2   force =     0.00018205    0.00017007   -0.00037929
     atom    8 type  2   force =    -0.00018205   -0.00017007    0.00037929
     atom    9 type  2   force =    -0.00023831    0.00007262   -0.00037929
     atom   10 type  2   force =     0.00023831   -0.00007262    0.00037929
     atom   11 type  2   force =     0.00005626   -0.00024269   -0.00037929
     atom   12 type  2   force =    -0.00005626    0.00024269    0.00037929
     atom   13 type  1   force =    -0.00020014    0.00005379    0.00028012
     atom   14 type  1   force =     0.00020014   -0.00005379   -0.00028012
     atom   15 type  1   force =     0.00005349   -0.00020022    0.00028012
     atom   16 type  1   force =    -0.00005349    0.00020022   -0.00028012
     atom   17 type  1   force =     0.00014665    0.00014643    0.00028012
     atom   18 type  1   force =    -0.00014665   -0.00014643   -0.00028012
     atom   19 type  1   force =    -0.00000249    0.00018415    0.00079057
     atom   20 type  1   force =     0.00000249   -0.00018415   -0.00079057
     atom   21 type  1   force =    -0.00015823   -0.00009423    0.00079057
     atom   22 type  1   force =     0.00015823    0.00009423   -0.00079057
     atom   23 type  1   force =     0.00016072   -0.00008992    0.00079057
     atom   24 type  1   force =    -0.00016072    0.00008992   -0.00079057
     atom   25 type  1   force =    -0.00055410    0.00021285    0.00035418
     atom   26 type  1   force =     0.00055410   -0.00021285   -0.00035418
     atom   27 type  1   force =     0.00009272   -0.00058629    0.00035418
     atom   28 type  1   force =    -0.00009272    0.00058629   -0.00035418
     atom   29 type  1   force =     0.00046138    0.00037344    0.00035418
     atom   30 type  1   force =    -0.00046138   -0.00037344   -0.00035418
     atom   31 type  1   force =     0.00008483    0.00001692    0.00002632
     atom   32 type  1   force =    -0.00008483   -0.00001692   -0.00002632
     atom   33 type  1   force =    -0.00005707    0.00006500    0.00002632
     atom   34 type  1   force =     0.00005707   -0.00006500   -0.00002632
     atom   35 type  1   force =    -0.00002776   -0.00008192    0.00002632
     atom   36 type  1   force =     0.00002776    0.00008192   -0.00002632

     Total force =     0.003703     Total SCF correction =     0.000047


     Computing stress (Cartesian axis) and pressure

          total   stress  (Ry/bohr**3)                   (kbar)     P=      -18.81
  -0.00013631  -0.00000000  -0.00000000          -20.05       -0.00       -0.00
   0.00000000  -0.00013631  -0.00000000            0.00      -20.05       -0.00
   0.00000000  -0.00000000  -0.00011104            0.00       -0.00      -16.33

     Energy error            =      6.3E-05 Ry
     Gradient error          =      7.9E-04 Ry/Bohr

     bfgs converged in  34 scf cycles and  33 bfgs steps
     (criteria: energy <  1.0E-04 Ry, force <  1.0E-03 Ry/Bohr)

     End of BFGS Geometry Optimization

     Final energy             =    -418.0441150407 Ry

     File ./iceII/iceII.bfgs deleted, as requested
Begin final coordinates

ATOMIC_POSITIONS (crystal)
O                0.2677554021        0.0204476858        0.8519759123
O                0.7322445979        0.9795523252        0.1480240577
O                0.8519759123        0.2677554021        0.0204476858
O                0.1480240577        0.7322445979        0.9795523252
O                0.0204476858        0.8519759123        0.2677554021
O                0.9795523252        0.1480240577        0.7322445979
O                0.4845596441        0.7553329118        0.3365313919
O                0.5154403559        0.2446670882        0.6634685781
O                0.3365313919        0.4845596441        0.7553329118
O                0.6634685781        0.5154403559        0.2446670882
O                0.7553329118        0.3365313919        0.4845596441
O                0.2446670882        0.6634685781        0.5154403559
H                0.1492972674        0.0354800877        0.7933883713
H                0.8507027186        0.9645199043        0.2066116287
H                0.7933883713        0.1492972674        0.0354800877
H                0.2066116287        0.8507027186        0.9645199043
H                0.0354800877        0.7933883713        0.1492972674
H                0.9645199043        0.2066116287        0.8507027186
H                0.4131259405        0.1817177316        0.9757087583
H                0.5868740595        0.8182822834        0.0242912207
H                0.9757087583        0.4131259405        0.1817177316
H                0.0242912207        0.5868740595        0.8182822834
H                0.1817177316        0.9757087583        0.4131259405
H                0.8182822834        0.0242912207        0.5868740595
H                0.7324537859        0.4055586816        0.4125840930
H                0.2675462141        0.5944412884        0.5874159370
H                0.4125840930        0.7324537859        0.4055586816
H                0.5874159370        0.2675462141        0.5944412884
H                0.4055586816        0.4125840930        0.7324537859
H                0.5944412884        0.5874159370        0.2675462141
H                0.7495122347        0.2148867902        0.3846876100
H                0.2504877653        0.7851131948        0.6153123900
H                0.3846876100        0.7495122347        0.2148867902
H                0.6153123900        0.2504877653        0.7851131948
H                0.2148867902        0.3846876100        0.7495122347
H                0.7851131948        0.6153123900        0.2504877653
End final coordinates



     Writing all to output data dir ./iceII/iceII.save/ :
     XML data file, charge density, pseudopotentials, collected wavefunctions

     init_run     :      2.94s CPU      3.08s WALL (       1 calls)
     electrons    :    296.47s CPU    310.17s WALL (      34 calls)
     update_pot   :      6.17s CPU      7.25s WALL (      33 calls)
     forces       :      5.51s CPU      5.55s WALL (      34 calls)
     stress       :     43.36s CPU     44.39s WALL (      34 calls)

     Called by init_run:
     wfcinit      :      0.38s CPU      0.39s WALL (       1 calls)
     potinit      :      1.68s CPU      1.77s WALL (       1 calls)
     hinit0       :      0.67s CPU      0.69s WALL (       1 calls)

     Called by electrons:
     c_bands      :    217.94s CPU    220.51s WALL (     256 calls)
     sum_band     :     30.65s CPU     30.86s WALL (     256 calls)
     v_of_rho     :     52.14s CPU     60.44s WALL (     279 calls)
     newd         :      1.49s CPU      1.58s WALL (     279 calls)
     mix_rho      :      0.97s CPU      0.98s WALL (     256 calls)
     vdW_kernel   :      1.51s CPU      1.52s WALL (       1 calls)

     Called by c_bands:
     init_us_2    :      4.37s CPU      4.51s WALL (    2324 calls)
     cegterg      :    209.71s CPU    211.71s WALL (    1024 calls)

     Called by *egterg:
     cdiaghg      :     14.91s CPU     14.93s WALL (    3845 calls)
     h_psi        :    155.87s CPU    157.37s WALL (    4025 calls)
     s_psi        :      7.49s CPU      7.69s WALL (    4025 calls)
     g_psi        :      0.48s CPU      0.48s WALL (    2997 calls)

     Called by h_psi:
     h_psi:calbec :     12.10s CPU     12.17s WALL (    4025 calls)
     vloc_psi     :    134.96s CPU    136.29s WALL (    4025 calls)
     add_vuspsi   :      7.51s CPU      7.53s WALL (    4025 calls)

     General routines
     calbec       :     17.79s CPU     17.89s WALL (    5729 calls)
     fft          :     28.46s CPU     32.92s WALL (   18831 calls)
     ffts         :      0.35s CPU      0.36s WALL (     256 calls)
     fftw         :    140.83s CPU    142.12s WALL (  357310 calls)

     Parallel routines

     PWSCF        :   5m56.97s CPU   6m14.86s WALL


   This run was terminated on:  16:20:38   1Apr2026            

=------------------------------------------------------------------------------=
   JOB DONE.
=------------------------------------------------------------------------------=
