
     Program PWSCF v.7.3.1 starts on 26Mar2026 at 16: 4:29 

     This program is part of the open-source Quantum ESPRESSO suite
     for quantum simulation of materials; please cite
         "P. Giannozzi et al., J. Phys.:Condens. Matter 21 395502 (2009);
         "P. Giannozzi et al., J. Phys.:Condens. Matter 29 465901 (2017);
         "P. Giannozzi et al., J. Chem. Phys. 152 154105 (2020);
          URL http://www.quantum-espresso.org", 
     in publications or presentations arising from this work. More details at
     http://www.quantum-espresso.org/quote

     Parallel version (MPI), running on   128 processors

     MPI processes distributed on     1 nodes
     242737 MiB available memory on the printing compute node when the environment starts

     Waiting for input...
     Reading input from standard input

     Current dimensions of program PWSCF are:
     Max number of different atomic species (ntypx) = 10
     Max number of k-points (npk) =  40000
     Max angular momentum in pseudopotentials (lmaxx) =  4

     IMPORTANT: XC functional enforced from input :
     Exchange-correlation= VDW-DF2
                           (   1   4  13   0   2   0   0)
     Any further DFT definition will be discarded
     Please, verify this is what you really want


     K-points division:     npool     =       4
     R & G space division:  proc/nbgrp/npool/nimage =      32
     Subspace diagonalization in iterative solution of the eigenvalue problem:
     a serial algorithm will be used


     Parallelization info
     --------------------
     sticks:   dense  smooth     PW     G-vecs:    dense   smooth      PW
     Min         201     201     58                 8910     8910    1399
     Max         202     202     59                 8914     8914    1402
     Sum        6451    6451   1887               285175   285175   44839

     Using Slab Decomposition



     bravais-lattice index     =            5
     lattice parameter (alat)  =      15.6430  a.u.
     unit-cell volume          =    2473.1621 (a.u.)^3
     number of atoms/cell      =           36
     number of atomic types    =            2
     number of electrons       =        96.00
     number of Kohn-Sham states=           48
     kinetic-energy cutoff     =      90.0000  Ry
     charge density cutoff     =     360.0000  Ry
     scf convergence threshold =      1.0E-07
     mixing beta               =       0.7000
     number of iterations used =            8  plain     mixing
     Exchange-correlation= VDW-DF2
                           (   1   4  13   0   2   0   0)

     celldm(1)=  15.643001  celldm(2)=   0.000000  celldm(3)=   0.000000
     celldm(4)=  -0.392337  celldm(5)=   0.000000  celldm(6)=   0.000000

     crystal axes: (cart. coord. in units of alat)
               a(1) = (   0.834367  -0.481722   0.267909 )  
               a(2) = (   0.000000   0.963444   0.267909 )  
               a(3) = (  -0.834367  -0.481722   0.267909 )  

     reciprocal axes: (cart. coord. in units 2 pi/alat)
               b(1) = (  0.599257 -0.345981  1.244203 )  
               b(2) = (  0.000000  0.691962  1.244203 )  
               b(3) = ( -0.599257 -0.345981  1.244203 )  


     PseudoPot. # 1 for H  read from file:
     ./H.pbe-van_ak.UPF
     MD5 check sum: 077eb6d537518a38cb46c6de387227b7
     Pseudo is Ultrasoft, Zval =  1.0
     Generated by new atomic code, or converted to UPF format
     Using radial grid of  615 points,  1 beta functions with: 
                l(1) =   0
     Q(r) pseudized with  8 coefficients,  rinner =    0.800

     PseudoPot. # 2 for O  read from file:
     ./O.pbe-van_ak.UPF
     MD5 check sum: 78c19812648e8988a0fe644b0f25305e
     Pseudo is Ultrasoft, Zval =  6.0
     Generated by new atomic code, or converted to UPF format
     Using radial grid of  737 points,  4 beta functions with: 
                l(1) =   0
                l(2) =   0
                l(3) =   1
                l(4) =   1
     Q(r) pseudized with  8 coefficients,  rinner =    0.800   0.800   0.800


     atomic species   valence    mass     pseudopotential
     H                 1.00     1.00800     H ( 1.00)
     O                 6.00    16.00000     O ( 1.00)

      6 Sym. Ops., with inversion, found



   Cartesian axes

     site n.     atom                  positions (alat units)
         1        O      tau(   1) = (  -0.4881587  -0.5153728   0.3102004  )
         2        O      tau(   2) = (   0.4881587   0.5153729   0.4935268  )
         3        O      tau(   3) = (   0.6904053  -0.1650714   0.3102004  )
         4        O      tau(   4) = (  -0.6904053   0.1650714   0.4935268  )
         5        O      tau(   5) = (  -0.2022466   0.6804442   0.3102004  )
         6        O      tau(   6) = (   0.2022466  -0.6804442   0.4935268  )
         7        O      tau(   7) = (   0.1208629   0.3351200   0.4137471  )
         8        O      tau(   8) = (  -0.1208629  -0.3351200   0.3899800  )
         9        O      tau(   9) = (  -0.3506539  -0.0628897   0.4137471  )
        10        O      tau(  10) = (   0.3506539   0.0628897   0.3899800  )
        11        O      tau(  11) = (   0.2297910  -0.2722304   0.4137471  )
        12        O      tau(  12) = (  -0.2297910   0.2722304   0.3899800  )
        13        H      tau(  13) = (  -0.5430428  -0.4102686   0.2622098  )
        14        H      tau(  14) = (   0.5430428   0.4102686   0.5415173  )
        15        H      tau(  15) = (   0.6268245  -0.2651546   0.2622098  )
        16        H      tau(  16) = (  -0.6268245   0.2651546   0.5415173  )
        17        H      tau(  17) = (  -0.0837816   0.6754232   0.2622098  )
        18        H      tau(  18) = (   0.0837817  -0.6754232   0.5415173  )
        19        H      tau(  19) = (  -0.4681736  -0.4859583   0.4327384  )
        20        H      tau(  20) = (   0.4681736   0.4859583   0.3709887  )
        21        H      tau(  21) = (   0.6549390  -0.1624711   0.4327384  )
        22        H      tau(  22) = (  -0.6549390   0.1624711   0.3709887  )
        23        H      tau(  23) = (  -0.1867654   0.6484294   0.4327384  )
        24        H      tau(  24) = (   0.1867654  -0.6484294   0.3709887  )
        25        H      tau(  25) = (   0.2718867  -0.1516220   0.4118766  )
        26        H      tau(  26) = (  -0.2718867   0.1516219   0.3918506  )
        27        H      tau(  27) = (  -0.0046349   0.3112717   0.4118766  )
        28        H      tau(  28) = (   0.0046349  -0.3112717   0.3918506  )
        29        H      tau(  29) = (  -0.2672518  -0.1596498   0.4118766  )
        30        H      tau(  30) = (   0.2672518   0.1596498   0.3918506  )
        31        H      tau(  31) = (   0.3136186  -0.3416266   0.3473301  )
        32        H      tau(  32) = (  -0.3136186   0.3416266   0.4563970  )
        33        H      tau(  33) = (   0.1390481   0.4424150   0.3473301  )
        34        H      tau(  34) = (  -0.1390480  -0.4424150   0.4563970  )
        35        H      tau(  35) = (  -0.4526667  -0.1007884   0.3473301  )
        36        H      tau(  36) = (   0.4526666   0.1007884   0.4563970  )

     number of k points=    14
                       cart. coord. in units 2pi/alat
        k(    1) = (   0.0000000   0.0000000   0.0000000), wk =   0.0312500
        k(    2) = (  -0.1498141  -0.0864952   0.3110508), wk =   0.1875000
        k(    3) = (   0.2996283   0.1729905  -0.6221017), wk =   0.0937500
        k(    4) = (  -0.1498141   0.0864952   0.6221017), wk =   0.1875000
        k(    5) = (   0.2996283   0.3459809  -0.3110508), wk =   0.1875000
        k(    6) = (   0.1498141   0.2594857   0.0000000), wk =   0.1875000
        k(    7) = (   0.2996283  -0.1729905  -1.2442034), wk =   0.0937500
        k(    8) = (   0.0000000   0.0000000   0.9331525), wk =   0.0625000
        k(    9) = (   0.4494424   0.2594857   0.0000000), wk =   0.1875000
        k(   10) = (   0.2996283   0.1729905   0.3110508), wk =   0.1875000
        k(   11) = (   0.4494424  -0.2594857  -0.9331525), wk =   0.1875000
        k(   12) = (   0.2996283  -0.3459809  -0.6221017), wk =   0.1875000
        k(   13) = (   0.0000000   0.0000000  -1.8663050), wk =   0.0312500
        k(   14) = (   0.2996283  -0.3459809   0.3110508), wk =   0.1875000

     Dense  grid:   285175 G-vectors     FFT dimensions: (  96,  96,  96)

     Estimated max dynamical RAM per process >      18.27 MB

     Estimated total dynamical RAM >       2.08 GB

     Initial potential from superposition of free atoms

     starting charge      95.9998, renormalised to      96.0000


     %%%%%%%%%%%%%%%%%%%%%%%%%%%%%%%%%%%%%%%%%%%%%%%%%%%%%%%%%%%%%%%%%%%%%%%%
     %                                                                      %
     % You are using vdW-DF, which was implemented by the Thonhauser group. %
     % Please cite the following two papers that made this development      %
     % possible and the two reviews that describe the various versions:     %
     %                                                                      %
     %   T. Thonhauser et al., PRL 115, 136402 (2015).                      %
     %   T. Thonhauser et al., PRB 76, 125112 (2007).                       %
     %   K. Berland et al., Rep. Prog. Phys. 78, 066501 (2015).             %
     %   D.C. Langreth et al., J. Phys.: Condens. Matter 21, 084203 (2009). %
     %                                                                      %
     % If you are calculating stress with vdW-DF, please also cite:         %
     %                                                                      %
     %   R. Sabatini et al., J. Phys.: Condens. Matter 24, 424209 (2012).   %
     %                                                                      %
     %%%%%%%%%%%%%%%%%%%%%%%%%%%%%%%%%%%%%%%%%%%%%%%%%%%%%%%%%%%%%%%%%%%%%%%%

     %%%%%%%%%%%%%%%%%%%%%%%%%%%%%%%%%%%%%%%%%%%%%%%%%%%%%%%%%%%%%%%%%%%%%%%%
     %                                                                      %
     %  vdW-DF NEWS:                                                        %
     %                                                                      %
     %  * vdW-DF3 is now available. DOI: 10.1021/acs.jctc.0c00471           %
     %    use with input_dft = 'vdW-DF3-opt1' or 'vdW-DF3-opt2'             %
     %                                                                      %
     %  * Unscreened and range-separated hybrid vdW-DF-cx functionals       %
     %    DOI: 10.1063/1.4986522 and 10.1088/1361-648X/ac2ad2               %
     %    use with input_dft = 'vdW-DF-cx0'    and 'vdW-DF-ahcx'            %
     %  * Unscreened and range-separated hybrid vdW-DF2-b86r functionals    %
     %    DOI: 10.1063/1.4986522 and DOI: 10.1103/PhysRevX.12.041003        %
     %    use with input_dft = 'vdW-DF2-br0' and 'vdW-DF2-ahbr'             %
     %                                                                      %
     %%%%%%%%%%%%%%%%%%%%%%%%%%%%%%%%%%%%%%%%%%%%%%%%%%%%%%%%%%%%%%%%%%%%%%%%


     Starting wfcs are   72 randomized atomic wfcs

     total cpu time spent up to now is        3.3 secs

     per-process dynamical memory:    21.7 Mb

     Self-consistent Calculation

     iteration #  1     ecut=    90.00 Ry     beta= 0.70
     Davidson diagonalization with overlap
     ethr =  1.00E-02,  avg # of iterations =  2.0

     total cpu time spent up to now is        4.4 secs

     total energy              =    -415.80544404 Ry
     estimated scf accuracy    <       4.48238751 Ry

     iteration #  2     ecut=    90.00 Ry     beta= 0.70
     Davidson diagonalization with overlap
     ethr =  4.67E-03,  avg # of iterations =  3.0

     total cpu time spent up to now is        5.8 secs

     total energy              =    -417.22377200 Ry
     estimated scf accuracy    <       4.10258147 Ry

     iteration #  3     ecut=    90.00 Ry     beta= 0.70
     Davidson diagonalization with overlap
     ethr =  4.27E-03,  avg # of iterations =  2.0

     total cpu time spent up to now is        6.9 secs

     total energy              =    -417.73832654 Ry
     estimated scf accuracy    <       0.20577162 Ry

     iteration #  4     ecut=    90.00 Ry     beta= 0.70
     Davidson diagonalization with overlap
     ethr =  2.14E-04,  avg # of iterations =  4.0

     negative rho (up, down):  1.086E-07 0.000E+00

     total cpu time spent up to now is        8.4 secs

     total energy              =    -417.89447943 Ry
     estimated scf accuracy    <       0.21885904 Ry

     iteration #  5     ecut=    90.00 Ry     beta= 0.70
     Davidson diagonalization with overlap
     ethr =  2.14E-04,  avg # of iterations =  1.1

     negative rho (up, down):  2.915E-07 0.000E+00

     total cpu time spent up to now is        9.3 secs

     total energy              =    -417.89546598 Ry
     estimated scf accuracy    <       0.03737886 Ry

     iteration #  6     ecut=    90.00 Ry     beta= 0.70
     Davidson diagonalization with overlap
     ethr =  3.89E-05,  avg # of iterations =  2.0

     negative rho (up, down):  3.649E-07 0.000E+00

     total cpu time spent up to now is       10.4 secs

     total energy              =    -417.90325768 Ry
     estimated scf accuracy    <       0.00128188 Ry

     iteration #  7     ecut=    90.00 Ry     beta= 0.70
     Davidson diagonalization with overlap
     ethr =  1.34E-06,  avg # of iterations =  2.5

     negative rho (up, down):  3.680E-07 0.000E+00

     total cpu time spent up to now is       11.6 secs

     total energy              =    -417.90400747 Ry
     estimated scf accuracy    <       0.00032728 Ry

     iteration #  8     ecut=    90.00 Ry     beta= 0.70
     Davidson diagonalization with overlap
     ethr =  3.41E-07,  avg # of iterations =  2.1

     negative rho (up, down):  2.966E-07 0.000E+00

     total cpu time spent up to now is       12.6 secs

     total energy              =    -417.90394083 Ry
     estimated scf accuracy    <       0.00061106 Ry

     iteration #  9     ecut=    90.00 Ry     beta= 0.70
     Davidson diagonalization with overlap
     ethr =  3.41E-07,  avg # of iterations =  1.0

     negative rho (up, down):  2.790E-07 0.000E+00

     total cpu time spent up to now is       13.5 secs

     total energy              =    -417.90378862 Ry
     estimated scf accuracy    <       0.00035241 Ry

     iteration # 10     ecut=    90.00 Ry     beta= 0.70
     Davidson diagonalization with overlap
     ethr =  3.41E-07,  avg # of iterations =  2.0

     negative rho (up, down):  2.813E-07 0.000E+00

     total cpu time spent up to now is       14.6 secs

     total energy              =    -417.90384571 Ry
     estimated scf accuracy    <       0.00001263 Ry

     iteration # 11     ecut=    90.00 Ry     beta= 0.70
     Davidson diagonalization with overlap
     ethr =  1.32E-08,  avg # of iterations =  4.3

     negative rho (up, down):  2.845E-07 0.000E+00

     total cpu time spent up to now is       16.1 secs

     total energy              =    -417.90385559 Ry
     estimated scf accuracy    <       0.00000687 Ry

     iteration # 12     ecut=    90.00 Ry     beta= 0.70
     Davidson diagonalization with overlap
     ethr =  7.16E-09,  avg # of iterations =  2.0

     negative rho (up, down):  2.909E-07 0.000E+00

     total cpu time spent up to now is       17.1 secs

     total energy              =    -417.90385490 Ry
     estimated scf accuracy    <       0.00000218 Ry

     iteration # 13     ecut=    90.00 Ry     beta= 0.70
     Davidson diagonalization with overlap
     ethr =  2.27E-09,  avg # of iterations =  2.8

     negative rho (up, down):  2.912E-07 0.000E+00

     total cpu time spent up to now is       18.2 secs

     total energy              =    -417.90385569 Ry
     estimated scf accuracy    <       0.00000057 Ry

     iteration # 14     ecut=    90.00 Ry     beta= 0.70
     Davidson diagonalization with overlap
     ethr =  5.92E-10,  avg # of iterations =  1.0

     negative rho (up, down):  2.909E-07 0.000E+00

     total cpu time spent up to now is       19.1 secs

     total energy              =    -417.90385548 Ry
     estimated scf accuracy    <       0.00000045 Ry

     iteration # 15     ecut=    90.00 Ry     beta= 0.70
     Davidson diagonalization with overlap
     ethr =  4.70E-10,  avg # of iterations =  2.0

     negative rho (up, down):  2.910E-07 0.000E+00

     total cpu time spent up to now is       20.2 secs

     End of self-consistent calculation

          k = 0.0000 0.0000 0.0000 ( 35629 PWs)   bands (ev):

   -21.2571 -20.9441 -20.9441 -20.8017 -20.8017 -20.7757 -20.7696 -20.7688
   -20.7688 -20.5707 -20.5707 -20.3591  -9.0033  -8.9343  -8.9343  -8.9261
    -8.8648  -8.8648  -8.6310  -8.6310  -8.6212  -8.5856  -8.5856  -8.5777
    -7.3763  -6.5077  -6.5077  -6.0230  -6.0230  -5.8804  -5.8804  -5.7538
    -5.6355  -5.0729  -5.0729  -4.4341  -3.8894  -3.8894  -3.8683  -3.7659
    -3.7659  -3.7381  -3.6519  -3.6519  -3.6224  -3.5771  -3.5313  -3.5313

          k =-0.1498-0.0865 0.3111 ( 35669 PWs)   bands (ev):

   -21.2070 -20.9729 -20.9384 -20.8951 -20.8686 -20.8233 -20.7391 -20.7074
   -20.6668 -20.5734 -20.5456 -20.3982  -8.9766  -8.9497  -8.9340  -8.9087
    -8.8609  -8.8354  -8.6710  -8.6520  -8.6445  -8.5797  -8.5384  -8.5287
    -7.2428  -6.6492  -6.5385  -6.2813  -6.0922  -5.8910  -5.7441  -5.6387
    -5.4916  -5.0672  -5.0169  -4.5705  -3.9479  -3.8964  -3.8780  -3.8126
    -3.8014  -3.7650  -3.6849  -3.6474  -3.5981  -3.5884  -3.5428  -3.5230

          k = 0.2996 0.1730-0.6221 ( 35668 PWs)   bands (ev):

   -21.0786 -21.0773 -20.9571 -20.9511 -20.8677 -20.8676 -20.7013 -20.7004
   -20.5812 -20.5711 -20.4931 -20.4929  -8.9570  -8.9449  -8.9164  -8.9099
    -8.8625  -8.8173  -8.6881  -8.6698  -8.6578  -8.5684  -8.5065  -8.4979
    -6.9602  -6.8868  -6.5384  -6.5283  -6.0733  -6.0249  -5.6407  -5.5667
    -5.1927  -5.1194  -4.9822  -4.7807  -4.0047  -3.9108  -3.8674  -3.8565
    -3.8128  -3.7971  -3.7211  -3.6513  -3.6319  -3.5700  -3.5301  -3.5137

          k =-0.1498 0.0865 0.6221 ( 35689 PWs)   bands (ev):

   -21.1076 -21.0120 -21.0047 -20.9236 -20.9041 -20.8590 -20.7073 -20.6529
   -20.6233 -20.5437 -20.5319 -20.4690  -8.9579  -8.9411  -8.9206  -8.9138
    -8.8579  -8.8120  -8.6862  -8.6777  -8.6645  -8.5477  -8.5192  -8.4982
    -7.0037  -6.7605  -6.7239  -6.3474  -6.1878  -6.0310  -5.6373  -5.4371
    -5.3367  -5.0475  -4.9969  -4.7879  -3.9918  -3.9337  -3.8645  -3.8421
    -3.8150  -3.7921  -3.7307  -3.6510  -3.6217  -3.5683  -3.5491  -3.5034

          k = 0.2996 0.3460-0.3111 ( 35674 PWs)   bands (ev):

   -21.1393 -21.0307 -20.9702 -20.9372 -20.8934 -20.8422 -20.7092 -20.6364
   -20.6234 -20.5707 -20.5269 -20.4560  -8.9620  -8.9591  -8.9263  -8.8993
    -8.8533  -8.8295  -8.7174  -8.6893  -8.6649  -8.5621  -8.5317  -8.5083
    -7.0134  -6.7461  -6.5926  -6.3844  -6.3358  -5.9015  -5.5676  -5.4810
    -5.3377  -5.0936  -4.9963  -4.7508  -3.9517  -3.9111  -3.8723  -3.8353
    -3.7967  -3.7520  -3.6994  -3.6797  -3.6039  -3.6016  -3.5404  -3.4751

          k = 0.1498 0.2595 0.0000 ( 35607 PWs)   bands (ev):

   -21.2198 -20.9909 -20.9542 -20.8798 -20.8572 -20.8037 -20.7429 -20.6950
   -20.6658 -20.5756 -20.5557 -20.3914  -8.9909  -8.9480  -8.9379  -8.9086
    -8.8585  -8.8531  -8.6880  -8.6690  -8.6333  -8.5909  -8.5729  -8.5349
    -7.2346  -6.5580  -6.4836  -6.3087  -6.2801  -5.8087  -5.6664  -5.5566
    -5.5285  -5.1055  -5.0620  -4.5362  -3.8927  -3.8826  -3.8782  -3.8005
    -3.7686  -3.7508  -3.6796  -3.6652  -3.6132  -3.5906  -3.5140  -3.4991

          k = 0.2996-0.1730-1.2442 ( 35630 PWs)   bands (ev):

   -21.1316 -21.1024 -20.9598 -20.9186 -20.8522 -20.8266 -20.6968 -20.6920
   -20.6032 -20.5979 -20.4783 -20.4724  -8.9726  -8.9586  -8.9343  -8.9015
    -8.8473  -8.8453  -8.7356  -8.7007  -8.6500  -8.5735  -8.5648  -8.5267
    -6.8929  -6.8634  -6.5594  -6.4443  -6.2236  -5.9215  -5.5042  -5.4941
    -5.3272  -5.2070  -4.8996  -4.7659  -3.9022  -3.8829  -3.8717  -3.8256
    -3.7716  -3.7495  -3.7063  -3.6593  -3.6492  -3.5808  -3.4891  -3.4846

          k = 0.0000 0.0000 0.9332 ( 35674 PWs)   bands (ev):

   -21.0648 -21.0648 -21.0057 -20.9932 -20.8650 -20.8650 -20.6554 -20.6554
   -20.5625 -20.5514 -20.5262 -20.5262  -8.9577  -8.9577  -8.9339  -8.8681
    -8.8681  -8.8496  -8.7447  -8.6863  -8.6863  -8.5204  -8.5204  -8.5032
    -6.8097  -6.8097  -6.7664  -6.4700  -6.1570  -6.1570  -5.3637  -5.3637
    -5.2899  -5.0488  -5.0488  -4.9441  -3.9182  -3.9182  -3.8483  -3.8333
    -3.7731  -3.7731  -3.7442  -3.6492  -3.6492  -3.5729  -3.5729  -3.4571

          k = 0.4494 0.2595 0.0000 ( 35662 PWs)   bands (ev):

   -21.1509 -21.0359 -21.0292 -20.9200 -20.8220 -20.8101 -20.7237 -20.7075
   -20.5985 -20.5517 -20.5323 -20.4500  -8.9722  -8.9519  -8.9443  -8.8925
    -8.8704  -8.8228  -8.7456  -8.6910  -8.6624  -8.5693  -8.5590  -8.5295
    -6.9896  -6.6453  -6.6153  -6.5400  -6.1897  -5.9118  -5.5792  -5.5051
    -5.2545  -5.1214  -5.0230  -4.7281  -3.8930  -3.8867  -3.8755  -3.8187
    -3.7902  -3.7541  -3.6918  -3.6711  -3.6394  -3.5625  -3.5173  -3.4729

          k = 0.2996 0.1730 0.3111 ( 35631 PWs)   bands (ev):

   -21.1721 -21.0003 -20.9500 -20.9297 -20.8812 -20.8326 -20.7200 -20.6829
   -20.6507 -20.5600 -20.5316 -20.4246  -8.9690  -8.9552  -8.9276  -8.8928
    -8.8654  -8.8125  -8.7012  -8.6604  -8.6393  -8.6086  -8.5584  -8.5190
    -7.1127  -6.6284  -6.5988  -6.3454  -6.2602  -5.8956  -5.6574  -5.5215
    -5.4565  -5.0543  -5.0073  -4.6361  -3.9677  -3.9073  -3.8856  -3.8449
    -3.8182  -3.7345  -3.7108  -3.6524  -3.5841  -3.5833  -3.5304  -3.5070

          k = 0.4494-0.2595-0.9332 ( 35634 PWs)   bands (ev):

   -21.0829 -21.0789 -20.9851 -20.9612 -20.8729 -20.8104 -20.7460 -20.6757
   -20.5916 -20.5457 -20.5176 -20.4673  -8.9628  -8.9453  -8.9363  -8.8800
    -8.8515  -8.7984  -8.7213  -8.6864  -8.6558  -8.6133  -8.5566  -8.5304
    -6.8559  -6.7674  -6.6421  -6.4601  -6.2751  -5.9155  -5.7077  -5.4552
    -5.2460  -5.0529  -5.0210  -4.7319  -3.9768  -3.9242  -3.9026  -3.8574
    -3.8353  -3.7469  -3.6762  -3.6604  -3.6001  -3.5697  -3.5138  -3.4973

          k = 0.2996-0.3460-0.6221 ( 35642 PWs)   bands (ev):

   -21.0551 -21.0518 -20.9807 -20.9757 -20.8828 -20.8825 -20.6886 -20.6872
   -20.5782 -20.5737 -20.4950 -20.4878  -8.9626  -8.9190  -8.9110  -8.8958
    -8.8842  -8.7775  -8.7130  -8.6698  -8.6524  -8.5959  -8.5291  -8.5200
    -6.8547  -6.8287  -6.5872  -6.5455  -6.1415  -6.1148  -5.5636  -5.5132
    -5.2029  -5.1710  -4.9512  -4.7549  -4.0252  -3.9243  -3.8998  -3.8945
    -3.8591  -3.7485  -3.6740  -3.6633  -3.6223  -3.5516  -3.5402  -3.5011

          k = 0.0000 0.0000-1.8663 ( 35652 PWs)   bands (ev):

   -21.0321 -21.0224 -20.9569 -20.9569 -20.9535 -20.9535 -20.6285 -20.6285
   -20.6198 -20.6198 -20.4898 -20.4774  -8.9635  -8.8990  -8.8990  -8.8885
    -8.8885  -8.7593  -8.7133  -8.6744  -8.6390  -8.6390  -8.5493  -8.5493
    -6.8455  -6.7230  -6.4322  -6.4322  -6.3714  -6.3714  -5.3554  -5.3554
    -5.3209  -5.3209  -4.9060  -4.7294  -4.0372  -3.9266  -3.9266  -3.9207
    -3.9207  -3.7032  -3.6789  -3.6079  -3.6079  -3.5663  -3.5663  -3.4799

          k = 0.2996-0.3460 0.3111 ( 35674 PWs)   bands (ev):

   -21.1393 -21.0299 -20.9726 -20.9362 -20.8925 -20.8421 -20.7082 -20.6388
   -20.6256 -20.5668 -20.5269 -20.4566  -8.9683  -8.9464  -8.9344  -8.8904
    -8.8602  -8.8299  -8.7255  -8.6856  -8.6609  -8.5599  -8.5255  -8.5162
    -7.0148  -6.7278  -6.6359  -6.3693  -6.2897  -5.9495  -5.6454  -5.3823
    -5.2681  -5.1530  -5.0343  -4.7305  -3.9584  -3.9030  -3.8672  -3.8288
    -3.8047  -3.7513  -3.7068  -3.6897  -3.6103  -3.5794  -3.5407  -3.4794

     highest occupied level (ev):    -3.4571

!    total energy              =    -417.90385556 Ry
     estimated scf accuracy    <          7.8E-09 Ry

     The total energy is the sum of the following terms:
     one-electron contribution =    -315.49625090 Ry
     hartree contribution      =     189.96000391 Ry
     xc contribution           =    -104.34836784 Ry
     ewald contribution        =    -188.01924072 Ry

     convergence has been achieved in  15 iterations

     Forces acting on atoms (cartesian axes, Ry/au):

     atom    1 type  2   force =    -0.02095968    0.07579287    0.04314896
     atom    2 type  2   force =     0.02095968   -0.07579287   -0.04314896
     atom    3 type  2   force =    -0.05515871   -0.05604805    0.04314896
     atom    4 type  2   force =     0.05515871    0.05604805   -0.04314896
     atom    5 type  2   force =     0.07611839   -0.01974482    0.04314896
     atom    6 type  2   force =    -0.07611839    0.01974482   -0.04314896
     atom    7 type  2   force =    -0.05938520    0.04557813   -0.03615707
     atom    8 type  2   force =     0.05938520   -0.04557813    0.03615707
     atom    9 type  2   force =    -0.00977922   -0.07421816   -0.03615707
     atom   10 type  2   force =     0.00977922    0.07421816    0.03615707
     atom   11 type  2   force =     0.06916442    0.02864003   -0.03615707
     atom   12 type  2   force =    -0.06916442   -0.02864003    0.03615707
     atom   13 type  1   force =     0.03458433   -0.06244861    0.03445589
     atom   14 type  1   force =    -0.03458433    0.06244861   -0.03445589
     atom   15 type  1   force =     0.03678992    0.06117521    0.03445589
     atom   16 type  1   force =    -0.03678992   -0.06117521   -0.03445589
     atom   17 type  1   force =    -0.07137425    0.00127340    0.03445589
     atom   18 type  1   force =     0.07137425   -0.00127340   -0.03445589
     atom   19 type  1   force =    -0.01530206   -0.01392173   -0.07758578
     atom   20 type  1   force =     0.01530206    0.01392173    0.07758578
     atom   21 type  1   force =     0.01970760   -0.00629110   -0.07758578
     atom   22 type  1   force =    -0.01970760    0.00629110    0.07758578
     atom   23 type  1   force =    -0.00440555    0.02021284   -0.07758578
     atom   24 type  1   force =     0.00440555   -0.02021284    0.07758578
     atom   25 type  1   force =    -0.02138401   -0.07728460   -0.00205540
     atom   26 type  1   force =     0.02138401    0.07728460    0.00205540
     atom   27 type  1   force =     0.07762244    0.02012320   -0.00205540
     atom   28 type  1   force =    -0.07762244   -0.02012320    0.00205540
     atom   29 type  1   force =    -0.05623842    0.05716140   -0.00205540
     atom   30 type  1   force =     0.05623842   -0.05716140    0.00205540
     atom   31 type  1   force =    -0.05034323    0.04899369    0.04214010
     atom   32 type  1   force =     0.05034323   -0.04899369   -0.04214010
     atom   33 type  1   force =    -0.01725817   -0.06809537    0.04214010
     atom   34 type  1   force =     0.01725817    0.06809537   -0.04214010
     atom   35 type  1   force =     0.06760140    0.01910167    0.04214010
     atom   36 type  1   force =    -0.06760140   -0.01910167   -0.04214010

     Total force =     0.494971     Total SCF correction =     0.000047


     Computing stress (Cartesian axis) and pressure

          total   stress  (Ry/bohr**3)                   (kbar)     P=     -104.30
  -0.00071269  -0.00000000   0.00000000         -104.84       -0.00        0.00
   0.00000000  -0.00071269  -0.00000000            0.00     -104.84       -0.00
  -0.00000000  -0.00000000  -0.00070172           -0.00       -0.00     -103.23


     Writing all to output data dir ./iceII/iceII.save/ :
     XML data file, charge density, pseudopotentials, collected wavefunctions

     init_run     :      2.98s CPU      3.09s WALL (       1 calls)
     electrons    :     16.23s CPU     16.98s WALL (       1 calls)
     forces       :      0.15s CPU      0.17s WALL (       1 calls)
     stress       :      1.29s CPU      1.32s WALL (       1 calls)

     Called by init_run:
     wfcinit      :      0.40s CPU      0.40s WALL (       1 calls)
     potinit      :      1.72s CPU      1.77s WALL (       1 calls)
     hinit0       :      0.68s CPU      0.69s WALL (       1 calls)

     Called by electrons:
     c_bands      :     11.45s CPU     11.57s WALL (      15 calls)
     sum_band     :      1.81s CPU      1.84s WALL (      15 calls)
     v_of_rho     :      4.46s CPU      5.03s WALL (      16 calls)
     newd         :      0.08s CPU      0.09s WALL (      16 calls)
     mix_rho      :      0.08s CPU      0.09s WALL (      15 calls)
     vdW_kernel   :      1.50s CPU      1.52s WALL (       1 calls)

     Called by c_bands:
     init_us_2    :      0.24s CPU      0.25s WALL (     132 calls)
     cegterg      :     11.01s CPU     11.10s WALL (      60 calls)

     Called by *egterg:
     cdiaghg      :      0.72s CPU      0.72s WALL (     192 calls)
     h_psi        :      8.62s CPU      8.68s WALL (     196 calls)
     s_psi        :      0.40s CPU      0.42s WALL (     196 calls)
     g_psi        :      0.02s CPU      0.02s WALL (     132 calls)

     Called by h_psi:
     h_psi:calbec :      0.64s CPU      0.65s WALL (     196 calls)
     vloc_psi     :      7.49s CPU      7.55s WALL (     196 calls)
     add_vuspsi   :      0.41s CPU      0.41s WALL (     196 calls)

     General routines
     calbec       :      0.90s CPU      0.91s WALL (     276 calls)
     fft          :      2.24s CPU      2.54s WALL (    1028 calls)
     ffts         :      0.02s CPU      0.02s WALL (      15 calls)
     fftw         :      7.89s CPU      7.95s WALL (   19940 calls)

     Parallel routines

     PWSCF        :     20.98s CPU     22.28s WALL


   This run was terminated on:  16: 4:52  26Mar2026            

=------------------------------------------------------------------------------=
   JOB DONE.
=------------------------------------------------------------------------------=
