
     Program PWSCF v.7.3.1 starts on  1Apr2026 at 16:20:41 

     This program is part of the open-source Quantum ESPRESSO suite
     for quantum simulation of materials; please cite
         "P. Giannozzi et al., J. Phys.:Condens. Matter 21 395502 (2009);
         "P. Giannozzi et al., J. Phys.:Condens. Matter 29 465901 (2017);
         "P. Giannozzi et al., J. Chem. Phys. 152 154105 (2020);
          URL http://www.quantum-espresso.org", 
     in publications or presentations arising from this work. More details at
     http://www.quantum-espresso.org/quote

     Parallel version (MPI), running on   128 processors

     MPI processes distributed on     1 nodes
     242566 MiB available memory on the printing compute node when the environment starts

     Waiting for input...
     Reading input from standard input

     Current dimensions of program PWSCF are:
     Max number of different atomic species (ntypx) = 10
     Max number of k-points (npk) =  40000
     Max angular momentum in pseudopotentials (lmaxx) =  4

     IMPORTANT: XC functional enforced from input :
     Exchange-correlation= VDW-DF2
                           (   1   4  13   0   2   0   0)
     Any further DFT definition will be discarded
     Please, verify this is what you really want


     K-points division:     npool     =       4
     R & G space division:  proc/nbgrp/npool/nimage =      32
     Subspace diagonalization in iterative solution of the eigenvalue problem:
     a serial algorithm will be used


     Parallelization info
     --------------------
     sticks:   dense  smooth     PW     G-vecs:    dense   smooth      PW
     Min         202     202     59                 8964     8964    1409
     Max         203     203     60                 8966     8966    1410
     Sum        6483    6483   1891               286879   286879   45103

     Using Slab Decomposition



     bravais-lattice index     =            5
     lattice parameter (alat)  =      15.6724  a.u.
     unit-cell volume          =    2487.1347 (a.u.)^3
     number of atoms/cell      =           36
     number of atomic types    =            2
     number of electrons       =        96.00
     number of Kohn-Sham states=           48
     kinetic-energy cutoff     =      90.0000  Ry
     charge density cutoff     =     360.0000  Ry
     scf convergence threshold =      1.0E-07
     mixing beta               =       0.7000
     number of iterations used =            8  plain     mixing
     energy convergence thresh.=      1.0E-04
     force convergence thresh. =      1.0E-03
     Exchange-correlation= VDW-DF2
                           (   1   4  13   0   2   0   0)
     nstep                     =           50


     celldm(1)=  15.672405  celldm(2)=   0.000000  celldm(3)=   0.000000
     celldm(4)=  -0.392337  celldm(5)=   0.000000  celldm(6)=   0.000000

     crystal axes: (cart. coord. in units of alat)
               a(1) = (   0.834367  -0.481722   0.267909 )  
               a(2) = (   0.000000   0.963444   0.267909 )  
               a(3) = (  -0.834367  -0.481722   0.267909 )  

     reciprocal axes: (cart. coord. in units 2 pi/alat)
               b(1) = (  0.599257 -0.345981  1.244203 )  
               b(2) = (  0.000000  0.691962  1.244203 )  
               b(3) = ( -0.599257 -0.345981  1.244203 )  


     PseudoPot. # 1 for H  read from file:
     ./H.pbe-van_ak.UPF
     MD5 check sum: 077eb6d537518a38cb46c6de387227b7
     Pseudo is Ultrasoft, Zval =  1.0
     Generated by new atomic code, or converted to UPF format
     Using radial grid of  615 points,  1 beta functions with: 
                l(1) =   0
     Q(r) pseudized with  8 coefficients,  rinner =    0.800

     PseudoPot. # 2 for O  read from file:
     ./O.pbe-van_ak.UPF
     MD5 check sum: 78c19812648e8988a0fe644b0f25305e
     Pseudo is Ultrasoft, Zval =  6.0
     Generated by new atomic code, or converted to UPF format
     Using radial grid of  737 points,  4 beta functions with: 
                l(1) =   0
                l(2) =   0
                l(3) =   1
                l(4) =   1
     Q(r) pseudized with  8 coefficients,  rinner =    0.800   0.800   0.800


     atomic species   valence    mass     pseudopotential
     H                 1.00     1.00800     H ( 1.00)
     O                 6.00    16.00000     O ( 1.00)

      6 Sym. Ops., with inversion, found



   Cartesian axes

     site n.     atom                  positions (alat units)
         1        O      tau(   1) = (  -0.4847673  -0.5197781   0.3083633  )
         2        O      tau(   2) = (   0.4847673   0.5197782   0.4953638  )
         3        O      tau(   3) = (   0.6925247  -0.1599317   0.3083633  )
         4        O      tau(   4) = (  -0.6925248   0.1599317   0.4953638  )
         5        O      tau(   5) = (  -0.2077574   0.6797099   0.3083633  )
         6        O      tau(   6) = (   0.2077574  -0.6797099   0.4953638  )
         7        O      tau(   7) = (   0.1218176   0.3323883   0.4179381  )
         8        O      tau(   8) = (  -0.1218176  -0.3323883   0.3857890  )
         9        O      tau(   9) = (  -0.3487655  -0.0606970   0.4179381  )
        10        O      tau(  10) = (   0.3487655   0.0606970   0.3857890  )
        11        O      tau(  11) = (   0.2269479  -0.2716913   0.4179381  )
        12        O      tau(  12) = (  -0.2269479   0.2716912   0.3857890  )
        13        H      tau(  13) = (  -0.5381668  -0.4032014   0.2796970  )
        14        H      tau(  14) = (   0.5381668   0.4032014   0.5240301  )
        15        H      tau(  15) = (   0.6182661  -0.2644654   0.2796970  )
        16        H      tau(  16) = (  -0.6182661   0.2644654   0.5240301  )
        17        H      tau(  17) = (  -0.0800993   0.6676668   0.2796970  )
        18        H      tau(  18) = (   0.0800993  -0.6676668   0.5240301  )
        19        H      tau(  19) = (  -0.4872704  -0.4817221   0.4326731  )
        20        H      tau(  20) = (   0.4872704   0.4817221   0.3710540  )
        21        H      tau(  21) = (   0.6608188  -0.1811275   0.4326731  )
        22        H      tau(  22) = (  -0.6608188   0.1811275   0.3710540  )
        23        H      tau(  23) = (  -0.1735484   0.6628496   0.4326731  )
        24        H      tau(  24) = (   0.1735484  -0.6628496   0.3710540  )
        25        H      tau(  25) = (   0.2703349  -0.1502973   0.4058822  )
        26        H      tau(  26) = (  -0.2703350   0.1502973   0.3978449  )
        27        H      tau(  27) = (  -0.0050062   0.3092656   0.4058822  )
        28        H      tau(  28) = (   0.0050062  -0.3092656   0.3978449  )
        29        H      tau(  29) = (  -0.2653287  -0.1589683   0.4058822  )
        30        H      tau(  30) = (   0.2653287   0.1589683   0.3978449  )
        31        H      tau(  31) = (   0.3178939  -0.3347969   0.3493534  )
        32        H      tau(  32) = (  -0.3178939   0.3347969   0.4543737  )
        33        H      tau(  33) = (   0.1309957   0.4427026   0.3493534  )
        34        H      tau(  34) = (  -0.1309956  -0.4427026   0.4543737  )
        35        H      tau(  35) = (  -0.4488895  -0.1079057   0.3493534  )
        36        H      tau(  36) = (   0.4488895   0.1079057   0.4543737  )

     number of k points=    14
                       cart. coord. in units 2pi/alat
        k(    1) = (   0.0000000   0.0000000   0.0000000), wk =   0.0312500
        k(    2) = (  -0.1498141  -0.0864952   0.3110508), wk =   0.1875000
        k(    3) = (   0.2996283   0.1729905  -0.6221017), wk =   0.0937500
        k(    4) = (  -0.1498141   0.0864952   0.6221017), wk =   0.1875000
        k(    5) = (   0.2996283   0.3459809  -0.3110508), wk =   0.1875000
        k(    6) = (   0.1498141   0.2594857   0.0000000), wk =   0.1875000
        k(    7) = (   0.2996283  -0.1729905  -1.2442034), wk =   0.0937500
        k(    8) = (   0.0000000   0.0000000   0.9331525), wk =   0.0625000
        k(    9) = (   0.4494424   0.2594857   0.0000000), wk =   0.1875000
        k(   10) = (   0.2996283   0.1729905   0.3110508), wk =   0.1875000
        k(   11) = (   0.4494424  -0.2594857  -0.9331525), wk =   0.1875000
        k(   12) = (   0.2996283  -0.3459809  -0.6221017), wk =   0.1875000
        k(   13) = (   0.0000000   0.0000000  -1.8663050), wk =   0.0312500
        k(   14) = (   0.2996283  -0.3459809   0.3110508), wk =   0.1875000

     Dense  grid:   286879 G-vectors     FFT dimensions: (  96,  96,  96)

     Estimated max dynamical RAM per process >      18.35 MB

     Estimated total dynamical RAM >       2.09 GB

     Initial potential from superposition of free atoms

     starting charge      95.9998, renormalised to      96.0000


     %%%%%%%%%%%%%%%%%%%%%%%%%%%%%%%%%%%%%%%%%%%%%%%%%%%%%%%%%%%%%%%%%%%%%%%%
     %                                                                      %
     % You are using vdW-DF, which was implemented by the Thonhauser group. %
     % Please cite the following two papers that made this development      %
     % possible and the two reviews that describe the various versions:     %
     %                                                                      %
     %   T. Thonhauser et al., PRL 115, 136402 (2015).                      %
     %   T. Thonhauser et al., PRB 76, 125112 (2007).                       %
     %   K. Berland et al., Rep. Prog. Phys. 78, 066501 (2015).             %
     %   D.C. Langreth et al., J. Phys.: Condens. Matter 21, 084203 (2009). %
     %                                                                      %
     % If you are calculating stress with vdW-DF, please also cite:         %
     %                                                                      %
     %   R. Sabatini et al., J. Phys.: Condens. Matter 24, 424209 (2012).   %
     %                                                                      %
     %%%%%%%%%%%%%%%%%%%%%%%%%%%%%%%%%%%%%%%%%%%%%%%%%%%%%%%%%%%%%%%%%%%%%%%%

     %%%%%%%%%%%%%%%%%%%%%%%%%%%%%%%%%%%%%%%%%%%%%%%%%%%%%%%%%%%%%%%%%%%%%%%%
     %                                                                      %
     %  vdW-DF NEWS:                                                        %
     %                                                                      %
     %  * vdW-DF3 is now available. DOI: 10.1021/acs.jctc.0c00471           %
     %    use with input_dft = 'vdW-DF3-opt1' or 'vdW-DF3-opt2'             %
     %                                                                      %
     %  * Unscreened and range-separated hybrid vdW-DF-cx functionals       %
     %    DOI: 10.1063/1.4986522 and 10.1088/1361-648X/ac2ad2               %
     %    use with input_dft = 'vdW-DF-cx0'    and 'vdW-DF-ahcx'            %
     %  * Unscreened and range-separated hybrid vdW-DF2-b86r functionals    %
     %    DOI: 10.1063/1.4986522 and DOI: 10.1103/PhysRevX.12.041003        %
     %    use with input_dft = 'vdW-DF2-br0' and 'vdW-DF2-ahbr'             %
     %                                                                      %
     %%%%%%%%%%%%%%%%%%%%%%%%%%%%%%%%%%%%%%%%%%%%%%%%%%%%%%%%%%%%%%%%%%%%%%%%


     Starting wfcs are   72 randomized atomic wfcs

     total cpu time spent up to now is        3.3 secs

     per-process dynamical memory:    21.6 Mb

     Self-consistent Calculation

     iteration #  1     ecut=    90.00 Ry     beta= 0.70
     Davidson diagonalization with overlap
     ethr =  1.00E-02,  avg # of iterations =  2.0

     total cpu time spent up to now is        4.4 secs

     total energy              =    -415.71137953 Ry
     estimated scf accuracy    <       4.26680214 Ry

     iteration #  2     ecut=    90.00 Ry     beta= 0.70
     Davidson diagonalization with overlap
     ethr =  4.44E-03,  avg # of iterations =  3.0

     total cpu time spent up to now is        5.8 secs

     total energy              =    -417.06198140 Ry
     estimated scf accuracy    <       4.09463073 Ry

     iteration #  3     ecut=    90.00 Ry     beta= 0.70
     Davidson diagonalization with overlap
     ethr =  4.27E-03,  avg # of iterations =  2.0

     total cpu time spent up to now is        6.9 secs

     total energy              =    -417.55940938 Ry
     estimated scf accuracy    <       0.22197648 Ry

     iteration #  4     ecut=    90.00 Ry     beta= 0.70
     Davidson diagonalization with overlap
     ethr =  2.31E-04,  avg # of iterations =  4.0

     negative rho (up, down):  1.620E-08 0.000E+00

     total cpu time spent up to now is        8.4 secs

     total energy              =    -417.72424035 Ry
     estimated scf accuracy    <       0.20336820 Ry

     iteration #  5     ecut=    90.00 Ry     beta= 0.70
     Davidson diagonalization with overlap
     ethr =  2.12E-04,  avg # of iterations =  1.0

     negative rho (up, down):  2.128E-07 0.000E+00

     total cpu time spent up to now is        9.2 secs

     total energy              =    -417.72340842 Ry
     estimated scf accuracy    <       0.03969083 Ry

     iteration #  6     ecut=    90.00 Ry     beta= 0.70
     Davidson diagonalization with overlap
     ethr =  4.13E-05,  avg # of iterations =  2.0

     negative rho (up, down):  3.003E-07 0.000E+00

     total cpu time spent up to now is       10.3 secs

     total energy              =    -417.72985818 Ry
     estimated scf accuracy    <       0.00220520 Ry

     iteration #  7     ecut=    90.00 Ry     beta= 0.70
     Davidson diagonalization with overlap
     ethr =  2.30E-06,  avg # of iterations =  3.0

     negative rho (up, down):  3.232E-07 0.000E+00

     total cpu time spent up to now is       11.6 secs

     total energy              =    -417.73063839 Ry
     estimated scf accuracy    <       0.00011919 Ry

     iteration #  8     ecut=    90.00 Ry     beta= 0.70
     Davidson diagonalization with overlap
     ethr =  1.24E-07,  avg # of iterations =  4.7

     negative rho (up, down):  3.077E-07 0.000E+00

     total cpu time spent up to now is       13.2 secs

     total energy              =    -417.73070516 Ry
     estimated scf accuracy    <       0.00057159 Ry

     iteration #  9     ecut=    90.00 Ry     beta= 0.70
     Davidson diagonalization with overlap
     ethr =  1.24E-07,  avg # of iterations =  1.0

     negative rho (up, down):  2.766E-07 0.000E+00

     total cpu time spent up to now is       14.0 secs

     total energy              =    -417.73053704 Ry
     estimated scf accuracy    <       0.00042318 Ry

     iteration # 10     ecut=    90.00 Ry     beta= 0.70
     Davidson diagonalization with overlap
     ethr =  1.24E-07,  avg # of iterations =  3.0

     negative rho (up, down):  2.780E-07 0.000E+00

     total cpu time spent up to now is       15.3 secs

     total energy              =    -417.73059949 Ry
     estimated scf accuracy    <       0.00001537 Ry

     iteration # 11     ecut=    90.00 Ry     beta= 0.70
     Davidson diagonalization with overlap
     ethr =  1.60E-08,  avg # of iterations =  2.9

     negative rho (up, down):  2.689E-07 0.000E+00

     total cpu time spent up to now is       16.4 secs

     total energy              =    -417.73059675 Ry
     estimated scf accuracy    <       0.00001115 Ry

     iteration # 12     ecut=    90.00 Ry     beta= 0.70
     Davidson diagonalization with overlap
     ethr =  1.16E-08,  avg # of iterations =  2.9

     negative rho (up, down):  2.645E-07 0.000E+00

     total cpu time spent up to now is       17.6 secs

     total energy              =    -417.73060126 Ry
     estimated scf accuracy    <       0.00000113 Ry

     iteration # 13     ecut=    90.00 Ry     beta= 0.70
     Davidson diagonalization with overlap
     ethr =  1.18E-09,  avg # of iterations =  4.1

     negative rho (up, down):  2.678E-07 0.000E+00

     total cpu time spent up to now is       19.1 secs

     total energy              =    -417.73060102 Ry
     estimated scf accuracy    <       0.00000981 Ry

     iteration # 14     ecut=    90.00 Ry     beta= 0.70
     Davidson diagonalization with overlap
     ethr =  1.18E-09,  avg # of iterations =  2.0

     negative rho (up, down):  2.715E-07 0.000E+00

     total cpu time spent up to now is       20.2 secs

     total energy              =    -417.73059972 Ry
     estimated scf accuracy    <       0.00000517 Ry

     iteration # 15     ecut=    90.00 Ry     beta= 0.70
     Davidson diagonalization with overlap
     ethr =  1.18E-09,  avg # of iterations =  3.0

     negative rho (up, down):  2.718E-07 0.000E+00

     total cpu time spent up to now is       21.4 secs

     total energy              =    -417.73060006 Ry
     estimated scf accuracy    <       0.00000103 Ry

     iteration # 16     ecut=    90.00 Ry     beta= 0.70
     Davidson diagonalization with overlap
     ethr =  1.07E-09,  avg # of iterations =  1.0

     negative rho (up, down):  2.720E-07 0.000E+00

     total cpu time spent up to now is       22.3 secs

     total energy              =    -417.73060004 Ry
     estimated scf accuracy    <       0.00000071 Ry

     iteration # 17     ecut=    90.00 Ry     beta= 0.70
     Davidson diagonalization with overlap
     ethr =  7.38E-10,  avg # of iterations =  1.0

     negative rho (up, down):  2.727E-07 0.000E+00

     total cpu time spent up to now is       23.1 secs

     total energy              =    -417.73059994 Ry
     estimated scf accuracy    <       0.00000055 Ry

     iteration # 18     ecut=    90.00 Ry     beta= 0.70
     Davidson diagonalization with overlap
     ethr =  5.77E-10,  avg # of iterations =  2.0

     negative rho (up, down):  2.736E-07 0.000E+00

     total cpu time spent up to now is       24.1 secs

     total energy              =    -417.73059991 Ry
     estimated scf accuracy    <       0.00000018 Ry

     iteration # 19     ecut=    90.00 Ry     beta= 0.70
     Davidson diagonalization with overlap
     ethr =  1.85E-10,  avg # of iterations =  2.0

     negative rho (up, down):  2.738E-07 0.000E+00

     total cpu time spent up to now is       25.2 secs

     End of self-consistent calculation

          k = 0.0000 0.0000 0.0000 ( 35851 PWs)   bands (ev):

   -21.2304 -20.9179 -20.9179 -20.7590 -20.7590 -20.7366 -20.7366 -20.7328
   -20.7271 -20.5198 -20.5198 -20.3020  -8.7627  -8.6002  -8.5380  -8.5380
    -8.5021  -8.5021  -8.0899  -7.9649  -7.9649  -7.7730  -7.7730  -7.6709
    -7.6145  -6.9267  -6.9267  -6.4475  -6.4475  -6.3451  -6.3451  -6.1248
    -5.9681  -5.3987  -5.3987  -4.8071  -3.9221  -3.9221  -3.8437  -3.7722
    -3.7381  -3.7381  -3.6230  -3.6179  -3.6179  -3.6082  -3.5681  -3.5681

          k =-0.1498-0.0865 0.3111 ( 35897 PWs)   bands (ev):

   -21.1791 -20.9472 -20.9111 -20.8589 -20.8388 -20.7897 -20.6917 -20.6606
   -20.6239 -20.5232 -20.4944 -20.3436  -8.7193  -8.6515  -8.5858  -8.5534
    -8.4809  -8.4285  -8.0780  -7.9321  -7.9280  -7.8026  -7.7080  -7.6730
    -7.5226  -7.0438  -6.9434  -6.7079  -6.4254  -6.3474  -6.2082  -6.0257
    -5.9719  -5.3940  -5.3373  -4.9304  -4.0063  -3.9511  -3.8601  -3.8095
    -3.7676  -3.7458  -3.7099  -3.6533  -3.6098  -3.5709  -3.5537  -3.5157

          k = 0.2996 0.1730-0.6221 ( 35856 PWs)   bands (ev):

   -21.0522 -21.0412 -20.9305 -20.9257 -20.8412 -20.8367 -20.6505 -20.6479
   -20.5300 -20.5224 -20.4450 -20.4423  -8.7015  -8.6539  -8.5811  -8.5650
    -8.4787  -8.4313  -8.0315  -7.9345  -7.9035  -7.8099  -7.6453  -7.6434
    -7.3429  -7.2235  -6.9892  -6.8379  -6.4410  -6.3702  -6.2130  -6.0785
    -5.6326  -5.4994  -5.2836  -5.0822  -4.0826  -3.9644  -3.8798  -3.8519
    -3.7979  -3.7852  -3.7128  -3.6718  -3.6435  -3.5458  -3.5362  -3.4793

          k =-0.1498 0.0865 0.6221 ( 35903 PWs)   bands (ev):

   -21.0762 -20.9819 -20.9775 -20.8956 -20.8762 -20.8301 -20.6564 -20.6003
   -20.5761 -20.4941 -20.4806 -20.4203  -8.7076  -8.6330  -8.6198  -8.5265
    -8.4961  -8.4230  -8.0364  -7.9589  -7.9205  -7.7353  -7.6821  -7.6395
    -7.3461  -7.1710  -7.0956  -6.7063  -6.5624  -6.4084  -6.1469  -5.9757
    -5.7902  -5.3655  -5.3428  -5.0869  -4.0669  -3.9952  -3.8707  -3.8342
    -3.8077  -3.7661  -3.7353  -3.6650  -3.6409  -3.5532  -3.5380  -3.4751

          k = 0.2996 0.3460-0.3111 ( 35869 PWs)   bands (ev):

   -21.1114 -21.0032 -20.9398 -20.9061 -20.8615 -20.8084 -20.6616 -20.5910
   -20.5754 -20.5252 -20.4761 -20.4022  -8.7107  -8.6938  -8.5668  -8.5471
    -8.5004  -8.4231  -8.0538  -8.0078  -7.9071  -7.7109  -7.6827  -7.6329
    -7.4452  -7.2096  -7.0111  -6.7080  -6.6908  -6.2873  -6.1264  -5.8936
    -5.7011  -5.4981  -5.3187  -5.0683  -4.0045  -3.9473  -3.8829  -3.8238
    -3.7823  -3.7447  -3.6949  -3.6876  -3.6263  -3.5888  -3.5422  -3.4666

          k = 0.1498 0.2595 0.0000 ( 35827 PWs)   bands (ev):

   -21.1929 -20.9655 -20.9286 -20.8399 -20.8190 -20.7614 -20.7055 -20.6547
   -20.6265 -20.5264 -20.5032 -20.3351  -8.7500  -8.6596  -8.5802  -8.5521
    -8.4563  -8.4501  -8.1102  -8.0062  -7.8579  -7.7781  -7.7347  -7.6505
    -7.6165  -7.0389  -6.9316  -6.6933  -6.5954  -6.2353  -6.1281  -6.0071
    -5.8545  -5.4592  -5.3730  -4.8987  -3.9211  -3.9093  -3.8697  -3.7949
    -3.7642  -3.7435  -3.6599  -3.6412  -3.6232  -3.6101  -3.5332  -3.5229

          k = 0.2996-0.1730-1.2442 ( 35856 PWs)   bands (ev):

   -21.1019 -21.0789 -20.9359 -20.8778 -20.8168 -20.7827 -20.6644 -20.6459
   -20.5612 -20.5512 -20.4256 -20.4161  -8.7307  -8.7026  -8.5955  -8.5677
    -8.4318  -8.4280  -8.0979  -8.0505  -7.8327  -7.8017  -7.6574  -7.6258
    -7.4081  -7.3638  -6.9844  -6.7828  -6.5167  -6.3469  -6.0355  -5.7952
    -5.7155  -5.6108  -5.2471  -5.0833  -3.9285  -3.8950  -3.8897  -3.8222
    -3.7622  -3.7285  -3.7035  -3.6524  -3.6418  -3.6103  -3.5082  -3.4939

          k = 0.0000 0.0000 0.9332 ( 35893 PWs)   bands (ev):

   -21.0362 -21.0362 -20.9846 -20.9517 -20.8340 -20.8340 -20.6078 -20.6078
   -20.5125 -20.5067 -20.4752 -20.4752  -8.6942  -8.6942  -8.5852  -8.4999
    -8.4999  -8.4773  -8.0593  -7.9815  -7.9815  -7.6376  -7.6376  -7.6089
    -7.2950  -7.2808  -7.2808  -6.7269  -6.4989  -6.4989  -5.9572  -5.7768
    -5.7768  -5.3754  -5.3754  -5.2168  -3.9603  -3.9603  -3.8643  -3.8243
    -3.7589  -3.7589  -3.7224  -3.6665  -3.6665  -3.5760  -3.5760  -3.4486

          k = 0.4494 0.2595 0.0000 ( 35850 PWs)   bands (ev):

   -21.1235 -21.0074 -21.0060 -20.8791 -20.7813 -20.7751 -20.6792 -20.6709
   -20.5620 -20.5005 -20.4785 -20.3948  -8.7284  -8.6913  -8.6408  -8.5157
    -8.4676  -8.4120  -8.1128  -8.0126  -7.9058  -7.7184  -7.6816  -7.6399
    -7.4850  -7.1819  -7.1156  -6.7371  -6.5469  -6.3372  -5.9501  -5.9185
    -5.7509  -5.4641  -5.3383  -5.0602  -3.9169  -3.9108  -3.8819  -3.8248
    -3.7780  -3.7352  -3.6796  -3.6619  -3.6263  -3.5931  -3.5466  -3.4803

          k = 0.2996 0.1730 0.3111 ( 35848 PWs)   bands (ev):

   -21.1443 -20.9766 -20.9189 -20.9004 -20.8400 -20.8007 -20.6712 -20.6457
   -20.6015 -20.5134 -20.4792 -20.3701  -8.7288  -8.6785  -8.6090  -8.5136
    -8.5028  -8.3905  -8.0820  -7.9869  -7.8370  -7.7805  -7.7448  -7.6695
    -7.4657  -7.0531  -6.9147  -6.8273  -6.6198  -6.3608  -6.1133  -5.9480
    -5.7898  -5.4638  -5.3222  -4.9726  -4.0200  -3.9533  -3.8977  -3.8490
    -3.7783  -3.7471  -3.6893  -3.6643  -3.6025  -3.5679  -3.5233  -3.5055

          k = 0.4494-0.2595-0.9332 ( 35861 PWs)   bands (ev):

   -21.0562 -21.0521 -20.9570 -20.9288 -20.8331 -20.7778 -20.6986 -20.6376
   -20.5412 -20.5007 -20.4671 -20.4115  -8.7521  -8.6707  -8.6360  -8.5163
    -8.4782  -8.3729  -8.1127  -7.9444  -7.8519  -7.8050  -7.6959  -7.6761
    -7.2685  -7.2294  -6.9723  -6.8333  -6.6778  -6.4330  -6.0790  -5.8404
    -5.5667  -5.5500  -5.3669  -5.0258  -4.0252  -3.9659  -3.9382  -3.8472
    -3.8207  -3.7592  -3.6524  -3.6333  -3.6140  -3.5791  -3.5241  -3.4784

          k = 0.2996-0.3460-0.6221 ( 35862 PWs)   bands (ev):

   -21.0299 -21.0181 -20.9504 -20.9489 -20.8533 -20.8505 -20.6386 -20.6378
   -20.5307 -20.5273 -20.4410 -20.4387  -8.7644  -8.6022  -8.5762  -8.5598
    -8.5313  -8.3777  -8.0566  -7.9514  -7.8407  -7.7981  -7.6814  -7.6765
    -7.2389  -7.1256  -6.9995  -6.8813  -6.6201  -6.5841  -6.0154  -5.9501
    -5.5699  -5.5262  -5.3945  -5.0132  -4.1095  -3.9771  -3.9378  -3.8790
    -3.8399  -3.7384  -3.6848  -3.6536  -3.6401  -3.5412  -3.5278  -3.4652

          k = 0.0000 0.0000-1.8663 ( 35892 PWs)   bands (ev):

   -21.0089 -20.9976 -20.9306 -20.9306 -20.9118 -20.9118 -20.5807 -20.5807
   -20.5753 -20.5753 -20.4339 -20.4280  -8.8024  -8.5746  -8.5746  -8.5529
    -8.5529  -8.3511  -8.0944  -7.9445  -7.7659  -7.7659  -7.7331  -7.7331
    -7.1081  -6.9209  -6.9162  -6.9162  -6.8676  -6.8676  -5.8377  -5.8377
    -5.5856  -5.5856  -5.4384  -4.9680  -4.1354  -3.9764  -3.9764  -3.9037
    -3.9037  -3.6993  -3.6762  -3.6103  -3.6103  -3.5510  -3.5510  -3.4455

          k = 0.2996-0.3460 0.3111 ( 35869 PWs)   bands (ev):

   -21.1110 -21.0059 -20.9311 -20.9135 -20.8600 -20.8088 -20.6606 -20.5926
   -20.5772 -20.5229 -20.4754 -20.4029  -8.7251  -8.6645  -8.5953  -8.5502
    -8.4715  -8.4317  -8.0890  -7.9837  -7.8865  -7.7403  -7.6556  -7.6494
    -7.4421  -7.1531  -7.0848  -6.7666  -6.5501  -6.3391  -6.1947  -5.8272
    -5.6896  -5.4770  -5.3746  -5.0532  -4.0101  -3.9258  -3.8976  -3.8188
    -3.7852  -3.7505  -3.6934  -3.6876  -3.6417  -3.5656  -3.5426  -3.4730

     highest occupied level (ev):    -3.4455

!    total energy              =    -417.73059995 Ry
     estimated scf accuracy    <          3.2E-09 Ry

     The total energy is the sum of the following terms:
     one-electron contribution =    -313.64161953 Ry
     hartree contribution      =     188.97419518 Ry
     xc contribution           =    -103.99695407 Ry
     ewald contribution        =    -189.06622154 Ry

     convergence has been achieved in  19 iterations

     Forces acting on atoms (cartesian axes, Ry/au):

     atom    1 type  2   force =    -0.06097041    0.14464286    0.08594985
     atom    2 type  2   force =     0.06097041   -0.14464286   -0.08594985
     atom    3 type  2   force =    -0.09477919   -0.12512336    0.08594985
     atom    4 type  2   force =     0.09477919    0.12512336   -0.08594985
     atom    5 type  2   force =     0.15574960   -0.01951950    0.08594985
     atom    6 type  2   force =    -0.15574960    0.01951950   -0.08594985
     atom    7 type  2   force =    -0.09603001    0.06964631   -0.06394259
     atom    8 type  2   force =     0.09603001   -0.06964631    0.06394259
     atom    9 type  2   force =    -0.01230047   -0.11798759   -0.06394259
     atom   10 type  2   force =     0.01230047    0.11798759    0.06394259
     atom   11 type  2   force =     0.10833048    0.04834127   -0.06394259
     atom   12 type  2   force =    -0.10833048   -0.04834127    0.06394259
     atom   13 type  1   force =     0.03400557   -0.09015473   -0.02525048
     atom   14 type  1   force =    -0.03400557    0.09015473    0.02525048
     atom   15 type  1   force =     0.06107350    0.07452706   -0.02525048
     atom   16 type  1   force =    -0.06107350   -0.07452706    0.02525048
     atom   17 type  1   force =    -0.09507908    0.01562768   -0.02525048
     atom   18 type  1   force =     0.09507908   -0.01562768    0.02525048
     atom   19 type  1   force =     0.02612798   -0.05994147   -0.06896934
     atom   20 type  1   force =    -0.02612798    0.05994147    0.06896934
     atom   21 type  1   force =     0.03884685    0.05259823   -0.06896934
     atom   22 type  1   force =    -0.03884685   -0.05259823    0.06896934
     atom   23 type  1   force =    -0.06497482    0.00734325   -0.06896934
     atom   24 type  1   force =     0.06497482   -0.00734325    0.06896934
     atom   25 type  1   force =    -0.03608303   -0.08055683    0.01648603
     atom   26 type  1   force =     0.03608303    0.08055683   -0.01648603
     atom   27 type  1   force =     0.08780578    0.00902959    0.01648603
     atom   28 type  1   force =    -0.08780578   -0.00902959   -0.01648603
     atom   29 type  1   force =    -0.05172275    0.07152724    0.01648603
     atom   30 type  1   force =     0.05172275   -0.07152724   -0.01648603
     atom   31 type  1   force =    -0.07866537    0.03431994    0.05514675
     atom   32 type  1   force =     0.07866537   -0.03431994   -0.05514675
     atom   33 type  1   force =     0.00961075   -0.08528618    0.05514675
     atom   34 type  1   force =    -0.00961075    0.08528618   -0.05514675
     atom   35 type  1   force =     0.06905462    0.05096624    0.05514675
     atom   36 type  1   force =    -0.06905462   -0.05096624   -0.05514675

     Total force =     0.725033     Total SCF correction =     0.000036


     Computing stress (Cartesian axis) and pressure

          total   stress  (Ry/bohr**3)                   (kbar)     P=     -115.70
  -0.00086311   0.00000000   0.00000000         -126.97        0.00        0.00
  -0.00000000  -0.00086311  -0.00000000           -0.00     -126.97       -0.00
  -0.00000000  -0.00000000  -0.00063330           -0.00       -0.00      -93.16


     BFGS Geometry Optimization
     Energy error            =      0.0E+00 Ry
     Gradient error          =      1.6E-01 Ry/Bohr

     number of scf cycles    =   1
     number of bfgs steps    =   0

     energy             new  =    -417.7305999473 Ry

     new trust radius        =       0.1789590049 bohr
     new conv_thr            =       0.0000001000 Ry


ATOMIC_POSITIONS (crystal)
O                0.2742990053        0.0372096157        0.8599615552
O                0.7257009947        0.9627903953        0.1400384148
O                0.8599615552        0.2742990053        0.0372096157
O                0.1400384148        0.7257009947        0.9627903953
O                0.0372096157        0.8599615552        0.2742990053
O                0.9627903953        0.1400384148        0.7257009947
O                0.4677143589        0.7479987126        0.3290580478
O                0.5322856411        0.2520012874        0.6709419222
O                0.3290580478        0.4677143589        0.7479987126
O                0.6709419222        0.5322856411        0.2520012874
O                0.7479987126        0.3290580478        0.4677143589
O                0.2520012874        0.6709419222        0.5322856411
H                0.1662859070        0.0630149320        0.8086853996
H                0.8337140790        0.9369850600        0.1913146004
H                0.8086853996        0.1662859070        0.0630149320
H                0.1913146004        0.8337140790        0.9369850600
H                0.0630149320        0.8086853996        0.1662859070
H                0.9369850600        0.1913146004        0.8337140790
H                0.4098469355        0.1968781368        0.9918488463
H                0.5901530645        0.8031218782        0.0081511327
H                0.9918488463        0.4098469355        0.1968781368
H                0.0081511327        0.5901530645        0.8031218782
H                0.1968781368        0.9918488463        0.4098469355
H                0.8031218782        0.0081511327        0.5901530645
H                0.7207074483        0.3987520744        0.3994668490
H                0.2792925517        0.6012478956        0.6005331810
H                0.3994668490        0.7207074483        0.3987520744
H                0.6005331810        0.2792925517        0.6012478956
H                0.3987520744        0.3994668490        0.7207074483
H                0.6012478956        0.6005331810        0.2792925517
H                0.7416124740        0.2088932733        0.3666282544
H                0.2583875260        0.7911067117        0.6333717456
H                0.3666282544        0.7416124740        0.2088932733
H                0.6333717456        0.2583875260        0.7911067117
H                0.2088932733        0.3666282544        0.7416124740
H                0.7911067117        0.6333717456        0.2583875260



     Writing config-only to output data dir ./iceII/iceII.save/ :
     XML data file
     NEW-OLD atomic charge density approx. for the potential

     negative rho (up, down):  8.155E-07 0.000E+00

     total cpu time spent up to now is       27.0 secs

     per-process dynamical memory:    22.7 Mb

     Self-consistent Calculation

     iteration #  1     ecut=    90.00 Ry     beta= 0.70
     Davidson diagonalization with overlap
     ethr =  1.00E-06,  avg # of iterations = 11.0

     negative rho (up, down):  3.165E-07 0.000E+00

     total cpu time spent up to now is       30.1 secs

     total energy              =    -417.93034205 Ry
     estimated scf accuracy    <       0.20049021 Ry

     iteration #  2     ecut=    90.00 Ry     beta= 0.70
     Davidson diagonalization with overlap
     ethr =  2.09E-04,  avg # of iterations =  3.0

     negative rho (up, down):  2.514E-07 0.000E+00

     total cpu time spent up to now is       31.5 secs

     total energy              =    -417.98519606 Ry
     estimated scf accuracy    <       0.12128903 Ry

     iteration #  3     ecut=    90.00 Ry     beta= 0.70
     Davidson diagonalization with overlap
     ethr =  1.26E-04,  avg # of iterations =  2.0

     negative rho (up, down):  3.229E-07 0.000E+00

     total cpu time spent up to now is       32.5 secs

     total energy              =    -418.00533978 Ry
     estimated scf accuracy    <       0.00307854 Ry

     iteration #  4     ecut=    90.00 Ry     beta= 0.70
     Davidson diagonalization with overlap
     ethr =  3.21E-06,  avg # of iterations =  4.2

     negative rho (up, down):  4.544E-07 0.000E+00

     total cpu time spent up to now is       34.1 secs

     total energy              =    -418.00778153 Ry
     estimated scf accuracy    <       0.00493732 Ry

     iteration #  5     ecut=    90.00 Ry     beta= 0.70
     Davidson diagonalization with overlap
     ethr =  3.21E-06,  avg # of iterations =  2.2

     negative rho (up, down):  5.321E-07 0.000E+00

     total cpu time spent up to now is       35.3 secs

     total energy              =    -418.00847761 Ry
     estimated scf accuracy    <       0.00011746 Ry

     iteration #  6     ecut=    90.00 Ry     beta= 0.70
     Davidson diagonalization with overlap
     ethr =  1.22E-07,  avg # of iterations =  4.0

     negative rho (up, down):  5.261E-07 0.000E+00

     total cpu time spent up to now is       36.8 secs

     total energy              =    -418.00858405 Ry
     estimated scf accuracy    <       0.00020433 Ry

     iteration #  7     ecut=    90.00 Ry     beta= 0.70
     Davidson diagonalization with overlap
     ethr =  1.22E-07,  avg # of iterations =  2.0

     negative rho (up, down):  5.081E-07 0.000E+00

     total cpu time spent up to now is       37.9 secs

     total energy              =    -418.00858157 Ry
     estimated scf accuracy    <       0.00003610 Ry

     iteration #  8     ecut=    90.00 Ry     beta= 0.70
     Davidson diagonalization with overlap
     ethr =  3.76E-08,  avg # of iterations =  3.0

     negative rho (up, down):  5.080E-07 0.000E+00

     total cpu time spent up to now is       39.1 secs

     End of self-consistent calculation

          k = 0.0000 0.0000 0.0000 ( 35851 PWs)   bands (ev):

   -22.0813 -21.8454 -21.8454 -21.6869 -21.6869 -21.6626 -21.6427 -21.6370
   -21.6370 -21.4538 -21.4538 -21.2952  -9.7461  -9.6191  -9.5845  -9.5845
    -9.5447  -9.5447  -9.1431  -9.1431  -9.0691  -9.0691  -9.0616  -8.9752
    -7.5594  -6.8130  -6.8130  -6.2806  -6.2806  -6.2744  -6.2744  -6.0757
    -6.0249  -5.4608  -5.4608  -4.9410  -4.1203  -4.1160  -4.1160  -3.9530
    -3.9530  -3.9227  -3.8216  -3.7958  -3.7958  -3.7820  -3.7198  -3.7198

          k =-0.1498-0.0865 0.3111 ( 35897 PWs)   bands (ev):

   -22.0399 -21.8619 -21.8471 -21.7508 -21.7272 -21.7167 -21.6116 -21.5908
   -21.5640 -21.4590 -21.4376 -21.3239  -9.7207  -9.6290  -9.6022  -9.5987
    -9.5429  -9.5117  -9.1463  -9.1286  -9.0812  -9.0383  -9.0337  -9.0014
    -7.4372  -6.9158  -6.8443  -6.5553  -6.3621  -6.2291  -6.1392  -5.9744
    -5.9226  -5.4625  -5.4004  -5.0359  -4.1871  -4.1371  -4.1103  -3.9814
    -3.9638  -3.9523  -3.8929  -3.8305  -3.7771  -3.7446  -3.7181  -3.6830

          k = 0.2996 0.1730-0.6221 ( 35856 PWs)   bands (ev):

   -21.9588 -21.9055 -21.8650 -21.7887 -21.7633 -21.7394 -21.5933 -21.5606
   -21.5058 -21.4567 -21.4242 -21.3715  -9.6780  -9.6558  -9.6235  -9.5882
    -9.5440  -9.5003  -9.1370  -9.1170  -9.0665  -9.0578  -9.0115  -9.0033
    -7.2063  -7.0813  -6.8923  -6.7189  -6.3869  -6.2975  -6.0859  -5.9424
    -5.6577  -5.5170  -5.3509  -5.1672  -4.2485  -4.1470  -4.0866  -4.0441
    -3.9945  -3.9808  -3.8843  -3.8444  -3.8340  -3.7143  -3.7027  -3.6500

          k =-0.1498 0.0865 0.6221 ( 35903 PWs)   bands (ev):

   -21.9649 -21.8835 -21.8763 -21.7906 -21.7666 -21.7448 -21.5825 -21.5551
   -21.5177 -21.4486 -21.4338 -21.3685  -9.6788  -9.6486  -9.6374  -9.5721
    -9.5532  -9.4995  -9.1351  -9.1193  -9.0799  -9.0354  -9.0182  -9.0054
    -7.2302  -6.9982  -6.9810  -6.6258  -6.4642  -6.3414  -6.0254  -5.8919
    -5.7493  -5.4310  -5.4002  -5.1675  -4.2344  -4.1743  -4.0758  -4.0459
    -4.0026  -3.9384  -3.9197  -3.8512  -3.8152  -3.7143  -3.7112  -3.6463

          k = 0.2996 0.3460-0.3111 ( 35869 PWs)   bands (ev):

   -21.9872 -21.9134 -21.8572 -21.7783 -21.7500 -21.7252 -21.5810 -21.5750
   -21.5246 -21.4541 -21.4261 -21.3583  -9.6949  -9.6663  -9.6137  -9.5809
    -9.5456  -9.4940  -9.1728  -9.1520  -9.1044  -9.0252  -9.0008  -8.9933
    -7.2456  -7.0363  -6.8465  -6.6608  -6.5837  -6.2568  -5.9823  -5.8950
    -5.7166  -5.5192  -5.3759  -5.1428  -4.1907  -4.1395  -4.0963  -4.0450
    -3.9616  -3.9258  -3.8888  -3.8621  -3.7985  -3.7490  -3.7161  -3.6349

          k = 0.1498 0.2595 0.0000 ( 35827 PWs)   bands (ev):

   -22.0513 -21.8826 -21.8530 -21.7412 -21.7067 -21.6590 -21.6476 -21.5953
   -21.5814 -21.4572 -21.4352 -21.3173  -9.7309  -9.6414  -9.6008  -9.5975
    -9.5262  -9.5146  -9.1858  -9.1615  -9.0719  -9.0617  -9.0266  -8.9769
    -7.4425  -6.8877  -6.8023  -6.5811  -6.4778  -6.1988  -6.0785  -5.9374
    -5.8891  -5.4990  -5.4312  -5.0089  -4.1273  -4.1118  -4.1089  -4.0047
    -3.9529  -3.9256  -3.8372  -3.8185  -3.8111  -3.7738  -3.6962  -3.6866

          k = 0.2996-0.1730-1.2442 ( 35856 PWs)   bands (ev):

   -21.9739 -21.9708 -21.8601 -21.7649 -21.7180 -21.6570 -21.6429 -21.5763
   -21.5485 -21.4618 -21.3922 -21.3613  -9.6993  -9.6811  -9.6064  -9.6030
    -9.5130  -9.4962  -9.2146  -9.1778  -9.0781  -9.0571  -8.9919  -8.9879
    -7.1692  -7.1392  -6.8083  -6.7342  -6.4350  -6.3142  -6.0010  -5.8358
    -5.7200  -5.6000  -5.3103  -5.1477  -4.1329  -4.1062  -4.1051  -4.0461
    -3.9569  -3.9007  -3.8752  -3.8476  -3.8056  -3.7703  -3.6742  -3.6668

          k = 0.0000 0.0000 0.9332 ( 35893 PWs)   bands (ev):

   -21.9252 -21.9238 -21.9238 -21.7790 -21.7454 -21.7454 -21.5482 -21.5482
   -21.5448 -21.4255 -21.4255 -21.3955  -9.6738  -9.6738  -9.6441  -9.5409
    -9.5409  -9.5251  -9.1802  -9.1407  -9.1407  -8.9968  -8.9968  -8.9873
    -7.0726  -7.0604  -7.0604  -6.6518  -6.4645  -6.4645  -5.8313  -5.7863
    -5.7863  -5.4115  -5.4115  -5.2744  -4.1546  -4.1546  -4.0865  -4.0461
    -3.9428  -3.9428  -3.9128  -3.8411  -3.8411  -3.7340  -3.7340  -3.6154

          k = 0.4494 0.2595 0.0000 ( 35850 PWs)   bands (ev):

   -21.9967 -21.9166 -21.9038 -21.7398 -21.7183 -21.6886 -21.6085 -21.5886
   -21.5585 -21.4386 -21.4154 -21.3544  -9.7042  -9.6642  -9.6408  -9.5692
    -9.5338  -9.4871  -9.2218  -9.1567  -9.1121  -9.0240  -9.0072  -8.9852
    -7.2428  -6.9880  -6.9217  -6.6872  -6.4681  -6.2871  -5.9539  -5.9174
    -5.7490  -5.4800  -5.3876  -5.1323  -4.1273  -4.1123  -4.1010  -4.0489
    -3.9650  -3.9087  -3.8725  -3.8374  -3.7996  -3.7548  -3.7068  -3.6531

          k = 0.2996 0.1730 0.3111 ( 35848 PWs)   bands (ev):

   -22.0132 -21.8904 -21.8453 -21.7797 -21.7367 -21.7078 -21.6142 -21.5882
   -21.5232 -21.4722 -21.4205 -21.3388  -9.7081  -9.6444  -9.6175  -9.5902
    -9.5519  -9.4801  -9.1832  -9.1160  -9.0776  -9.0608  -9.0151  -9.0015
    -7.3330  -6.9431  -6.8158  -6.6886  -6.4871  -6.2458  -6.0831  -5.9335
    -5.7632  -5.5113  -5.3801  -5.0648  -4.2039  -4.1442  -4.1109  -4.0229
    -3.9859  -3.9321  -3.8843  -3.8327  -3.7678  -3.7485  -3.6964  -3.6794

          k = 0.4494-0.2595-0.9332 ( 35861 PWs)   bands (ev):

   -21.9564 -21.9353 -21.8714 -21.7872 -21.7422 -21.7067 -21.6145 -21.5815
   -21.5006 -21.4581 -21.4195 -21.3567  -9.6814  -9.6704  -9.6340  -9.5833
    -9.5504  -9.4597  -9.2051  -9.1226  -9.0748  -9.0671  -9.0074  -9.0017
    -7.1481  -7.0274  -6.8204  -6.8015  -6.5474  -6.2865  -6.0741  -5.8685
    -5.5865  -5.5543  -5.4057  -5.1021  -4.2131  -4.1533  -4.1253  -4.0348
    -3.9956  -3.9670  -3.8447  -3.8102  -3.7850  -3.7473  -3.6976  -3.6630

          k = 0.2996-0.3460-0.6221 ( 35862 PWs)   bands (ev):

   -21.9485 -21.8873 -21.8704 -21.8158 -21.7626 -21.7485 -21.5882 -21.5692
   -21.4797 -21.4585 -21.4415 -21.3624  -9.6843  -9.6388  -9.6227  -9.5903
    -9.5763  -9.4637  -9.1504  -9.1191  -9.0599  -9.0540  -9.0205  -9.0160
    -7.1452  -6.9995  -6.8789  -6.8018  -6.4713  -6.4254  -5.9734  -5.9064
    -5.5822  -5.5363  -5.4428  -5.1043  -4.2718  -4.1570  -4.1275  -4.0539
    -4.0318  -3.9048  -3.8916  -3.8388  -3.8181  -3.7116  -3.7059  -3.6451

          k = 0.0000 0.0000-1.8663 ( 35892 PWs)   bands (ev):

   -21.9404 -21.8653 -21.8653 -21.8212 -21.7816 -21.7816 -21.5673 -21.5673
   -21.4631 -21.4631 -21.4615 -21.3548  -9.6873  -9.6222  -9.6222  -9.5949
    -9.5949  -9.4406  -9.1616  -9.1228  -9.0472  -9.0472  -9.0339  -9.0339
    -7.1031  -6.9261  -6.7647  -6.7647  -6.6451  -6.6451  -5.8434  -5.8434
    -5.5785  -5.5785  -5.4752  -5.0618  -4.2953  -4.1529  -4.1529  -4.0694
    -4.0694  -3.9183  -3.8508  -3.7876  -3.7876  -3.7342  -3.7342  -3.6332

          k = 0.2996-0.3460 0.3111 ( 35869 PWs)   bands (ev):

   -21.9882 -21.9063 -21.8662 -21.7822 -21.7371 -21.7282 -21.5983 -21.5604
   -21.5219 -21.4637 -21.4178 -21.3600  -9.6991  -9.6532  -9.6209  -9.5929
    -9.5290  -9.5002  -9.1779  -9.1489  -9.1017  -9.0221  -9.0072  -8.9909
    -7.2527  -6.9703  -6.9340  -6.6850  -6.4734  -6.3034  -6.0748  -5.8058
    -5.6998  -5.5216  -5.4072  -5.1337  -4.1920  -4.1368  -4.1017  -4.0344
    -3.9615  -3.9281  -3.8813  -3.8787  -3.8077  -3.7270  -3.7186  -3.6404

     highest occupied level (ev):    -3.6154

!    total energy              =    -418.00859226 Ry
     estimated scf accuracy    <       0.00000008 Ry

     The total energy is the sum of the following terms:
     one-electron contribution =    -330.63618168 Ry
     hartree contribution      =     196.70910399 Ry
     xc contribution           =    -105.76258057 Ry
     ewald contribution        =    -178.31893399 Ry

     convergence has been achieved in   8 iterations

     Forces acting on atoms (cartesian axes, Ry/au):

     atom    1 type  2   force =    -0.00198346   -0.00621804   -0.00804787
     atom    2 type  2   force =     0.00198346    0.00621804    0.00804787
     atom    3 type  2   force =     0.00637671    0.00139130   -0.00804787
     atom    4 type  2   force =    -0.00637671   -0.00139130    0.00804787
     atom    5 type  2   force =    -0.00439325    0.00482674   -0.00804787
     atom    6 type  2   force =     0.00439325   -0.00482674    0.00804787
     atom    7 type  2   force =     0.00814363   -0.00887217    0.00405816
     atom    8 type  2   force =    -0.00814363    0.00887217   -0.00405816
     atom    9 type  2   force =     0.00361170    0.01148868    0.00405816
     atom   10 type  2   force =    -0.00361170   -0.01148868   -0.00405816
     atom   11 type  2   force =    -0.01175534   -0.00261651    0.00405816
     atom   12 type  2   force =     0.01175534    0.00261651   -0.00405816
     atom   13 type  1   force =    -0.01292446    0.01604542   -0.03428504
     atom   14 type  1   force =     0.01292446   -0.01604542    0.03428504
     atom   15 type  1   force =    -0.00743351   -0.01921562   -0.03428504
     atom   16 type  1   force =     0.00743351    0.01921562    0.03428504
     atom   17 type  1   force =     0.02035798    0.00317020   -0.03428504
     atom   18 type  1   force =    -0.02035798   -0.00317020    0.03428504
     atom   19 type  1   force =     0.01683178   -0.01284665    0.03784534
     atom   20 type  1   force =    -0.01683178    0.01284665   -0.03784534
     atom   21 type  1   force =     0.00270963    0.02100008    0.03784534
     atom   22 type  1   force =    -0.00270963   -0.02100008   -0.03784534
     atom   23 type  1   force =    -0.01954141   -0.00815343    0.03784534
     atom   24 type  1   force =     0.01954141    0.00815343   -0.03784534
     atom   25 type  1   force =     0.00839465    0.00737191   -0.00041568
     atom   26 type  1   force =    -0.00839465   -0.00737191    0.00041568
     atom   27 type  1   force =    -0.01058159    0.00358403   -0.00041568
     atom   28 type  1   force =     0.01058159   -0.00358403    0.00041568
     atom   29 type  1   force =     0.00218693   -0.01095594   -0.00041568
     atom   30 type  1   force =    -0.00218693    0.01095594    0.00041568
     atom   31 type  1   force =     0.00091761   -0.00287703   -0.00171823
     atom   32 type  1   force =    -0.00091761    0.00287703    0.00171823
     atom   33 type  1   force =     0.00203277    0.00223319   -0.00171823
     atom   34 type  1   force =    -0.00203277   -0.00223319    0.00171823
     atom   35 type  1   force =    -0.00295038    0.00064384   -0.00171823
     atom   36 type  1   force =     0.00295038   -0.00064384    0.00171823

     Total force =     0.152706     Total SCF correction =     0.000337


     Computing stress (Cartesian axis) and pressure

          total   stress  (Ry/bohr**3)                   (kbar)     P=       -1.53
  -0.00006803   0.00000000  -0.00000000          -10.01        0.00       -0.00
  -0.00000000  -0.00006803  -0.00000000           -0.00      -10.01       -0.00
  -0.00000000  -0.00000000   0.00010495           -0.00       -0.00       15.44

     Energy error            =      2.8E-01 Ry
     Gradient error          =      3.8E-02 Ry/Bohr

     number of scf cycles    =   2
     number of bfgs steps    =   1

     energy             old  =    -417.7305999473 Ry
     energy             new  =    -418.0085922563 Ry

     CASE: energy            _new < energy            _old

     new trust radius        =       0.0393172391 bohr
     new conv_thr            =       0.0000000378 Ry


ATOMIC_POSITIONS (crystal)
O                0.2738057795        0.0367996863        0.8597639622
O                0.7261942205        0.9632003247        0.1402360078
O                0.8597639622        0.2738057795        0.0367996863
O                0.1402360078        0.7261942205        0.9632003247
O                0.0367996863        0.8597639622        0.2738057795
O                0.9632003247        0.1402360078        0.7261942205
O                0.4681432970        0.7478676914        0.3291523278
O                0.5318567030        0.2521323086        0.6708476422
O                0.3291523278        0.4681432970        0.7478676914
O                0.6708476422        0.5318567030        0.2521323086
O                0.7478676914        0.3291523278        0.4681432970
O                0.2521323086        0.6708476422        0.5318567030
H                0.1630126818        0.0609463067        0.8062438250
H                0.8369873042        0.9390536853        0.1937561750
H                0.8062438250        0.1630126818        0.0609463067
H                0.1937561750        0.8369873042        0.9390536853
H                0.0609463067        0.8062438250        0.1630126818
H                0.9390536853        0.1937561750        0.8369873042
H                0.4133938736        0.1988722174        0.9941339819
H                0.5866061264        0.8011277976        0.0058659971
H                0.9941339819        0.4133938736        0.1988722174
H                0.0058659971        0.5866061264        0.8011277976
H                0.1988722174        0.9941339819        0.4133938736
H                0.8011277976        0.0058659971        0.5866061264
H                0.7208804409        0.3989491104        0.3991351952
H                0.2791195591        0.6010508596        0.6008648348
H                0.3991351952        0.7208804409        0.3989491104
H                0.6008648348        0.2791195591        0.6010508596
H                0.3989491104        0.3991351952        0.7208804409
H                0.6010508596        0.6008648348        0.2791195591
H                0.7415976876        0.2088442115        0.3667479655
H                0.2584023124        0.7911557735        0.6332520345
H                0.3667479655        0.7415976876        0.2088442115
H                0.6332520345        0.2584023124        0.7911557735
H                0.2088442115        0.3667479655        0.7415976876
H                0.7911557735        0.6332520345        0.2584023124



     Writing config-only to output data dir ./iceII/iceII.save/ :
     XML data file
     NEW-OLD atomic charge density approx. for the potential

     negative rho (up, down):  5.758E-07 0.000E+00

     total cpu time spent up to now is       40.9 secs

     per-process dynamical memory:    21.2 Mb

     Self-consistent Calculation

     iteration #  1     ecut=    90.00 Ry     beta= 0.70
     Davidson diagonalization with overlap
     ethr =  1.00E-06,  avg # of iterations =  4.6

     negative rho (up, down):  4.718E-07 0.000E+00

     total cpu time spent up to now is       42.5 secs

     total energy              =    -418.02175068 Ry
     estimated scf accuracy    <       0.00202830 Ry

     iteration #  2     ecut=    90.00 Ry     beta= 0.70
     Davidson diagonalization with overlap
     ethr =  2.11E-06,  avg # of iterations =  3.0

     negative rho (up, down):  4.939E-07 0.000E+00

     total cpu time spent up to now is       43.8 secs

     total energy              =    -418.02224902 Ry
     estimated scf accuracy    <       0.00099800 Ry

     iteration #  3     ecut=    90.00 Ry     beta= 0.70
     Davidson diagonalization with overlap
     ethr =  1.04E-06,  avg # of iterations =  2.1

     negative rho (up, down):  5.098E-07 0.000E+00

     total cpu time spent up to now is       44.8 secs

     total energy              =    -418.02243113 Ry
     estimated scf accuracy    <       0.00002414 Ry

     iteration #  4     ecut=    90.00 Ry     beta= 0.70
     Davidson diagonalization with overlap
     ethr =  2.51E-08,  avg # of iterations =  4.9

     negative rho (up, down):  5.025E-07 0.000E+00

     total cpu time spent up to now is       46.5 secs

     total energy              =    -418.02244979 Ry
     estimated scf accuracy    <       0.00003947 Ry

     iteration #  5     ecut=    90.00 Ry     beta= 0.70
     Davidson diagonalization with overlap
     ethr =  2.51E-08,  avg # of iterations =  2.0

     negative rho (up, down):  4.960E-07 0.000E+00

     total cpu time spent up to now is       47.5 secs

     total energy              =    -418.02244977 Ry
     estimated scf accuracy    <       0.00000655 Ry

     iteration #  6     ecut=    90.00 Ry     beta= 0.70
     Davidson diagonalization with overlap
     ethr =  6.82E-09,  avg # of iterations =  3.6

     negative rho (up, down):  4.982E-07 0.000E+00

     total cpu time spent up to now is       48.9 secs

     total energy              =    -418.02245252 Ry
     estimated scf accuracy    <       0.00000207 Ry

     iteration #  7     ecut=    90.00 Ry     beta= 0.70
     Davidson diagonalization with overlap
     ethr =  2.15E-09,  avg # of iterations =  2.0

     negative rho (up, down):  4.992E-07 0.000E+00

     total cpu time spent up to now is       49.9 secs

     total energy              =    -418.02245264 Ry
     estimated scf accuracy    <       0.00000028 Ry

     iteration #  8     ecut=    90.00 Ry     beta= 0.70
     Davidson diagonalization with overlap
     ethr =  2.96E-10,  avg # of iterations =  3.1

     negative rho (up, down):  4.998E-07 0.000E+00

     total cpu time spent up to now is       51.0 secs

     End of self-consistent calculation

          k = 0.0000 0.0000 0.0000 ( 35851 PWs)   bands (ev):

   -21.9610 -21.6950 -21.6950 -21.5556 -21.5556 -21.5462 -21.5462 -21.5370
   -21.5232 -21.3527 -21.3527 -21.1881  -9.7034  -9.5783  -9.5433  -9.5433
    -9.5017  -9.5017  -9.0810  -9.0810  -8.9967  -8.9916  -8.9916  -8.8949
    -7.5322  -6.7255  -6.7255  -6.2878  -6.2878  -6.2081  -6.2081  -5.9928
    -5.9858  -5.4318  -5.4318  -4.9081  -4.1124  -4.1124  -4.0775  -3.9164
    -3.9164  -3.8809  -3.8135  -3.7721  -3.7430  -3.7430  -3.7101  -3.7101

          k =-0.1498-0.0865 0.3111 ( 35897 PWs)   bands (ev):

   -21.9168 -21.7168 -21.6889 -21.6426 -21.6266 -21.5857 -21.5005 -21.4737
   -21.4453 -21.3582 -21.3361 -21.2196  -9.6785  -9.5872  -9.5618  -9.5573
    -9.5008  -9.4698  -9.0803  -9.0645  -9.0047  -8.9675  -8.9580  -8.9250
    -7.4009  -6.8479  -6.7637  -6.5211  -6.3749  -6.1711  -6.0692  -5.9299
    -5.8492  -5.4318  -5.3732  -5.0134  -4.1788  -4.1324  -4.0725  -3.9468
    -3.9370  -3.9161  -3.8818  -3.7912  -3.7571  -3.7057  -3.6987  -3.6602

          k = 0.2996 0.1730-0.6221 ( 35856 PWs)   bands (ev):

   -21.8144 -21.7910 -21.7075 -21.6898 -21.6373 -21.6213 -21.4717 -21.4503
   -21.3827 -21.3517 -21.3102 -21.2855  -9.6366  -9.6140  -9.5821  -9.5478
    -9.5036  -9.4581  -9.0667  -9.0449  -8.9955  -8.9874  -8.9360  -8.9278
    -7.1372  -7.0441  -6.8194  -6.7044  -6.3619  -6.2905  -5.9858  -5.8596
    -5.5825  -5.4903  -5.3286  -5.1694  -4.2391  -4.1422  -4.0698  -3.9942
    -3.9669  -3.9535  -3.8627  -3.8354  -3.7967  -3.6888  -3.6641  -3.6246

          k =-0.1498 0.0865 0.6221 ( 35903 PWs)   bands (ev):

   -21.8295 -21.7471 -21.7411 -21.6737 -21.6566 -21.6201 -21.4692 -21.4255
   -21.4042 -21.3416 -21.3289 -21.2759  -9.6374  -9.6070  -9.5958  -9.5327
    -9.5115  -9.4576  -9.0651  -9.0469  -9.0109  -8.9623  -8.9435  -8.9299
    -7.1686  -6.9463  -6.9306  -6.5904  -6.4465  -6.3177  -5.9467  -5.7942
    -5.6881  -5.4012  -5.3756  -5.1694  -4.2275  -4.1634  -4.0607  -3.9948
    -3.9774  -3.9149  -3.8999  -3.8182  -3.7980  -3.6918  -3.6698  -3.6197

          k = 0.2996 0.3460-0.3111 ( 35869 PWs)   bands (ev):

   -21.8594 -21.7665 -21.7200 -21.6775 -21.6365 -21.5974 -21.4776 -21.4315
   -21.3833 -21.3792 -21.3189 -21.2629  -9.6527  -9.6246  -9.5731  -9.5387
    -9.5047  -9.4524  -9.1105  -9.0858  -9.0308  -8.9510  -8.9247  -8.9157
    -7.2020  -6.9700  -6.7797  -6.6248  -6.5795  -6.2119  -5.8781  -5.8298
    -5.6798  -5.4854  -5.3528  -5.1352  -4.1806  -4.1259  -4.0764  -4.0059
    -3.9261  -3.8978  -3.8592  -3.8380  -3.7898  -3.7287  -3.6727  -3.6082

          k = 0.1498 0.2595 0.0000 ( 35827 PWs)   bands (ev):

   -21.9289 -21.7379 -21.7064 -21.6215 -21.6015 -21.5547 -21.5188 -21.4765
   -21.4510 -21.3600 -21.3381 -21.2128  -9.6882  -9.5999  -9.5595  -9.5557
    -9.4842  -9.4727  -9.1261  -9.0976  -9.0004  -8.9856  -8.9529  -8.8971
    -7.4113  -6.8027  -6.7267  -6.5561  -6.4621  -6.1415  -6.0131  -5.8748
    -5.8501  -5.4728  -5.4084  -4.9805  -4.1111  -4.1029  -4.0857  -3.9670
    -3.9137  -3.8841  -3.8196  -3.8076  -3.7762  -3.7476  -3.6710  -3.6620

          k = 0.2996-0.1730-1.2442 ( 35856 PWs)   bands (ev):

   -21.8498 -21.8348 -21.7156 -21.6501 -21.6025 -21.5674 -21.4900 -21.4640
   -21.4023 -21.3768 -21.2864 -21.2681  -9.6567  -9.6391  -9.5643  -9.5620
    -9.4716  -9.4551  -9.1566  -9.1127  -9.0069  -8.9817  -8.9153  -8.9091
    -7.1130  -7.1030  -6.7393  -6.7028  -6.4078  -6.2430  -5.9180  -5.7924
    -5.6392  -5.6087  -5.2756  -5.1372  -4.1118  -4.0945  -4.0890  -4.0093
    -3.9148  -3.8636  -3.8509  -3.8294  -3.7835  -3.7545  -3.6492  -3.6325

          k = 0.0000 0.0000 0.9332 ( 35893 PWs)   bands (ev):

   -21.7940 -21.7940 -21.7665 -21.7065 -21.6163 -21.6163 -21.4344 -21.4344
   -21.3773 -21.3251 -21.3251 -21.3208  -9.6318  -9.6318  -9.6034  -9.4983
    -9.4983  -9.4859  -9.1193  -9.0711  -9.0711  -8.9216  -8.9216  -8.9073
    -7.0184  -7.0184  -6.9735  -6.6804  -6.4133  -6.4133  -5.7194  -5.7194
    -5.7036  -5.3961  -5.3961  -5.2921  -4.1417  -4.1417  -4.0657  -4.0223
    -3.9044  -3.9044  -3.8805  -3.8253  -3.8253  -3.7031  -3.7031  -3.5890

          k = 0.4494 0.2595 0.0000 ( 35850 PWs)   bands (ev):

   -21.8699 -21.7740 -21.7714 -21.6497 -21.5769 -21.5635 -21.4961 -21.4831
   -21.4056 -21.3424 -21.3189 -21.2565  -9.6616  -9.6221  -9.5993  -9.5276
    -9.4920  -9.4463  -9.1638  -9.0908  -9.0421  -8.9455  -8.9329  -8.9068
    -7.2017  -6.9161  -6.8719  -6.6814  -6.4043  -6.2106  -5.9088  -5.8781
    -5.6643  -5.4610  -5.3658  -5.1163  -4.1028  -4.1004  -4.0892  -4.0100
    -3.9278  -3.8805  -3.8394  -3.8171  -3.7727  -3.7376  -3.6868  -3.6181

          k = 0.2996 0.1730 0.3111 ( 35848 PWs)   bands (ev):

   -21.8872 -21.7442 -21.6937 -21.6806 -21.6190 -21.5946 -21.4822 -21.4711
   -21.4175 -21.3614 -21.3209 -21.2382  -9.6659  -9.6023  -9.5761  -9.5495
    -9.5108  -9.4383  -9.1209  -9.0493  -9.0008  -8.9882  -8.9408  -8.9249
    -7.2931  -6.8713  -6.7745  -6.6144  -6.4865  -6.1999  -5.9997  -5.8708
    -5.7421  -5.4606  -5.3549  -5.0482  -4.1976  -4.1252  -4.0868  -3.9888
    -3.9462  -3.9026  -3.8618  -3.8114  -3.7595  -3.7253  -3.6666  -3.6380

          k = 0.4494-0.2595-0.9332 ( 35861 PWs)   bands (ev):

   -21.8140 -21.8081 -21.7308 -21.6937 -21.6164 -21.5775 -21.5020 -21.4587
   -21.3729 -21.3552 -21.3184 -21.2629  -9.6396  -9.6280  -9.5919  -9.5426
    -9.5099  -9.4183  -9.1445  -9.0541  -9.0007  -8.9926  -8.9321  -8.9256
    -7.0892  -6.9858  -6.7996  -6.7354  -6.5013  -6.2086  -6.0317  -5.8229
    -5.5470  -5.4937  -5.3791  -5.0942  -4.2072  -4.1289  -4.1045  -3.9958
    -3.9604  -3.9343  -3.8255  -3.7920  -3.7772  -3.7328  -3.6693  -3.6110

          k = 0.2996-0.3460-0.6221 ( 35862 PWs)   bands (ev):

   -21.7960 -21.7702 -21.7225 -21.7167 -21.6403 -21.6323 -21.4608 -21.4497
   -21.3716 -21.3618 -21.3175 -21.2738  -9.6424  -9.5973  -9.5811  -9.5496
    -9.5357  -9.4223  -9.0830  -9.0465  -8.9876  -8.9823  -8.9455  -8.9412
    -7.0673  -6.9763  -6.8146  -6.7698  -6.4293  -6.3994  -5.8899  -5.8338
    -5.5530  -5.5136  -5.3817  -5.1069  -4.2652  -4.1410  -4.1075  -4.0147
    -3.9918  -3.8935  -3.8593  -3.8189  -3.8065  -3.6917  -3.6769  -3.5980

          k = 0.0000 0.0000-1.8663 ( 35892 PWs)   bands (ev):

   -21.7766 -21.7476 -21.7190 -21.7190 -21.6729 -21.6729 -21.4225 -21.4225
   -21.3908 -21.3908 -21.3154 -21.2630  -9.6451  -9.5808  -9.5808  -9.5541
    -9.5541  -9.3997  -9.0960  -9.0506  -8.9725  -8.9725  -8.9610  -8.9610
    -7.0181  -6.9379  -6.6692  -6.6692  -6.6351  -6.6351  -5.7563  -5.7563
    -5.5941  -5.5941  -5.3670  -5.0646  -4.2875  -4.1333  -4.1333  -4.0316
    -4.0316  -3.8669  -3.8591  -3.7816  -3.7816  -3.7047  -3.7047  -3.5772

          k = 0.2996-0.3460 0.3111 ( 35869 PWs)   bands (ev):

   -21.8588 -21.7718 -21.7055 -21.6880 -21.6354 -21.5986 -21.4734 -21.4295
   -21.4067 -21.3554 -21.3247 -21.2627  -9.6571  -9.6111  -9.5799  -9.5511
    -9.4891  -9.4578  -9.1152  -9.0829  -9.0282  -8.9477  -8.9319  -8.9128
    -7.2067  -6.9230  -6.8580  -6.6394  -6.4863  -6.2500  -5.9794  -5.7352
    -5.6295  -5.5122  -5.3859  -5.1238  -4.1839  -4.1125  -4.0905  -3.9950
    -3.9278  -3.8989  -3.8614  -3.8382  -3.8051  -3.7101  -3.6727  -3.6131

     highest occupied level (ev):    -3.5772

!    total energy              =    -418.02245269 Ry
     estimated scf accuracy    <          9.7E-09 Ry

     The total energy is the sum of the following terms:
     one-electron contribution =    -328.60232526 Ry
     hartree contribution      =     195.78867424 Ry
     xc contribution           =    -105.58160868 Ry
     ewald contribution        =    -179.62719300 Ry

     convergence has been achieved in   8 iterations

     Forces acting on atoms (cartesian axes, Ry/au):

     atom    1 type  2   force =    -0.00610259    0.01046706    0.01276257
     atom    2 type  2   force =     0.00610259   -0.01046706   -0.01276257
     atom    3 type  2   force =    -0.00601345   -0.01051853    0.01276257
     atom    4 type  2   force =     0.00601345    0.01051853   -0.01276257
     atom    5 type  2   force =     0.01211604    0.00005146    0.01276257
     atom    6 type  2   force =    -0.01211604   -0.00005146   -0.01276257
     atom    7 type  2   force =     0.00109518   -0.00663986    0.00119621
     atom    8 type  2   force =    -0.00109518    0.00663986   -0.00119621
     atom    9 type  2   force =     0.00520270    0.00426839    0.00119621
     atom   10 type  2   force =    -0.00520270   -0.00426839   -0.00119621
     atom   11 type  2   force =    -0.00629788    0.00237147    0.00119621
     atom   12 type  2   force =     0.00629788   -0.00237147   -0.00119621
     atom   13 type  1   force =    -0.00482017   -0.00060460   -0.02059526
     atom   14 type  1   force =     0.00482017    0.00060460    0.02059526
     atom   15 type  1   force =     0.00293368   -0.00387209   -0.02059526
     atom   16 type  1   force =    -0.00293368    0.00387209    0.02059526
     atom   17 type  1   force =     0.00188649    0.00447669   -0.02059526
     atom   18 type  1   force =    -0.00188649   -0.00447669    0.02059526
     atom   19 type  1   force =     0.01274399   -0.01294989    0.00357768
     atom   20 type  1   force =    -0.01274399    0.01294989   -0.00357768
     atom   21 type  1   force =     0.00484294    0.01751157    0.00357768
     atom   22 type  1   force =    -0.00484294   -0.01751157   -0.00357768
     atom   23 type  1   force =    -0.01758693   -0.00456167    0.00357768
     atom   24 type  1   force =     0.01758693    0.00456167   -0.00357768
     atom   25 type  1   force =     0.00512533    0.00070029    0.00090927
     atom   26 type  1   force =    -0.00512533   -0.00070029   -0.00090927
     atom   27 type  1   force =    -0.00316913    0.00408852    0.00090927
     atom   28 type  1   force =     0.00316913   -0.00408852   -0.00090927
     atom   29 type  1   force =    -0.00195620   -0.00478881    0.00090927
     atom   30 type  1   force =     0.00195620    0.00478881   -0.00090927
     atom   31 type  1   force =    -0.00156545   -0.00189097    0.00025128
     atom   32 type  1   force =     0.00156545    0.00189097   -0.00025128
     atom   33 type  1   force =     0.00242035   -0.00041024    0.00025128
     atom   34 type  1   force =    -0.00242035    0.00041024   -0.00025128
     atom   35 type  1   force =    -0.00085490    0.00230120    0.00025128
     atom   36 type  1   force =     0.00085490   -0.00230120   -0.00025128

     Total force =     0.084170     Total SCF correction =     0.000076


     Computing stress (Cartesian axis) and pressure

          total   stress  (Ry/bohr**3)                   (kbar)     P=      -16.16
  -0.00013242   0.00000000   0.00000000          -19.48        0.00        0.00
  -0.00000000  -0.00013242  -0.00000000           -0.00      -19.48       -0.00
  -0.00000000  -0.00000000  -0.00006473           -0.00       -0.00       -9.52

     Energy error            =      1.4E-02 Ry
     Gradient error          =      2.1E-02 Ry/Bohr

     number of scf cycles    =   3
     number of bfgs steps    =   2

     energy             old  =    -418.0085922563 Ry
     energy             new  =    -418.0224526932 Ry

     CASE: energy            _new < energy            _old

     new trust radius        =       0.0576393647 bohr
     new conv_thr            =       0.0000000206 Ry


ATOMIC_POSITIONS (crystal)
O                0.2743837871        0.0392208112        0.8614074389
O                0.7256162129        0.9607791998        0.1385925311
O                0.8614074389        0.2743837871        0.0392208112
O                0.1385925311        0.7256162129        0.9607791998
O                0.0392208112        0.8614074389        0.2743837871
O                0.9607791998        0.1385925311        0.7256162129
O                0.4686232357        0.7474109628        0.3294601447
O                0.5313767643        0.2525890372        0.6705398253
O                0.3294601447        0.4686232357        0.7474109628
O                0.6705398253        0.5313767643        0.2525890372
O                0.7474109628        0.3294601447        0.4686232357
O                0.2525890372        0.6705398253        0.5313767643
H                0.1579460373        0.0567379614        0.8022619679
H                0.8420539487        0.9432620306        0.1977380321
H                0.8022619679        0.1579460373        0.0567379614
H                0.1977380321        0.8420539487        0.9432620306
H                0.0567379614        0.8022619679        0.1579460373
H                0.9432620306        0.1977380321        0.8420539487
H                0.4173997902        0.1995508710        0.9956776383
H                0.5826002098        0.8004491440        0.0043223407
H                0.9956776383        0.4173997902        0.1995508710
H                0.0043223407        0.5826002098        0.8004491440
H                0.1995508710        0.9956776383        0.4173997902
H                0.8004491440        0.0043223407        0.5826002098
H                0.7214451873        0.3991896049        0.3988027310
H                0.2785548127        0.6008103651        0.6011972990
H                0.3988027310        0.7214451873        0.3991896049
H                0.6011972990        0.2785548127        0.6008103651
H                0.3991896049        0.3988027310        0.7214451873
H                0.6008103651        0.6011972990        0.2785548127
H                0.7416063068        0.2088601941        0.3671928150
H                0.2583936932        0.7911397909        0.6328071850
H                0.3671928150        0.7416063068        0.2088601941
H                0.6328071850        0.2583936932        0.7911397909
H                0.2088601941        0.3671928150        0.7416063068
H                0.7911397909        0.6328071850        0.2583936932



     Writing config-only to output data dir ./iceII/iceII.save/ :
     XML data file
     NEW-OLD atomic charge density approx. for the potential

     negative rho (up, down):  5.566E-07 0.000E+00

     total cpu time spent up to now is       52.9 secs

     per-process dynamical memory:    21.2 Mb

     Self-consistent Calculation

     iteration #  1     ecut=    90.00 Ry     beta= 0.70
     Davidson diagonalization with overlap
     ethr =  1.00E-06,  avg # of iterations =  7.0

     negative rho (up, down):  5.246E-07 0.000E+00

     total cpu time spent up to now is       54.8 secs

     total energy              =    -418.03202452 Ry
     estimated scf accuracy    <       0.00130070 Ry

     iteration #  2     ecut=    90.00 Ry     beta= 0.70
     Davidson diagonalization with overlap
     ethr =  1.35E-06,  avg # of iterations =  2.1

     negative rho (up, down):  5.361E-07 0.000E+00

     total cpu time spent up to now is       55.9 secs

     total energy              =    -418.03225800 Ry
     estimated scf accuracy    <       0.00019022 Ry

     iteration #  3     ecut=    90.00 Ry     beta= 0.70
     Davidson diagonalization with overlap
     ethr =  1.98E-07,  avg # of iterations =  2.2

     negative rho (up, down):  5.447E-07 0.000E+00

     total cpu time spent up to now is       57.0 secs

     total energy              =    -418.03230188 Ry
     estimated scf accuracy    <       0.00002086 Ry

     iteration #  4     ecut=    90.00 Ry     beta= 0.70
     Davidson diagonalization with overlap
     ethr =  2.17E-08,  avg # of iterations =  2.1

     negative rho (up, down):  5.449E-07 0.000E+00

     total cpu time spent up to now is       58.0 secs

     total energy              =    -418.03230453 Ry
     estimated scf accuracy    <       0.00000111 Ry

     iteration #  5     ecut=    90.00 Ry     beta= 0.70
     Davidson diagonalization with overlap
     ethr =  1.16E-09,  avg # of iterations =  3.3

     negative rho (up, down):  5.451E-07 0.000E+00

     total cpu time spent up to now is       59.2 secs

     total energy              =    -418.03230491 Ry
     estimated scf accuracy    <       0.00000019 Ry

     iteration #  6     ecut=    90.00 Ry     beta= 0.70
     Davidson diagonalization with overlap
     ethr =  1.98E-10,  avg # of iterations =  3.0

     negative rho (up, down):  5.449E-07 0.000E+00

     total cpu time spent up to now is       60.4 secs

     End of self-consistent calculation

          k = 0.0000 0.0000 0.0000 ( 35851 PWs)   bands (ev):

   -21.9120 -21.6580 -21.6580 -21.5036 -21.5036 -21.4680 -21.4677 -21.4677
   -21.4646 -21.2643 -21.2643 -21.1099  -9.6514  -9.5402  -9.5011  -9.5011
    -9.4975  -9.4975  -9.1979  -9.1979  -9.1621  -9.1591  -9.1591  -9.0698
    -7.4435  -6.6050  -6.6050  -6.2574  -6.2574  -6.0938  -6.0938  -5.9216
    -5.8634  -5.3611  -5.3611  -4.8468  -4.1039  -4.1039  -4.0646  -3.9063
    -3.9063  -3.8623  -3.8050  -3.7534  -3.7180  -3.7180  -3.6986  -3.6986

          k =-0.1498-0.0865 0.3111 ( 35897 PWs)   bands (ev):

   -21.8697 -21.6780 -21.6607 -21.5747 -21.5434 -21.5256 -21.4388 -21.4115
   -21.3865 -21.2687 -21.2487 -21.1380  -9.6278  -9.5542  -9.5271  -9.5183
    -9.4837  -9.4459  -9.2193  -9.1997  -9.1730  -9.1247  -9.1137  -9.0925
    -7.3120  -6.7479  -6.6465  -6.4507  -6.3405  -6.0987  -5.9199  -5.8715
    -5.7143  -5.3635  -5.3074  -4.9612  -4.1651  -4.1216  -4.0600  -3.9364
    -3.9280  -3.8941  -3.8750  -3.7715  -3.7442  -3.6957  -3.6726  -3.6458

          k = 0.2996 0.1730-0.6221 ( 35856 PWs)   bands (ev):

   -21.7869 -21.7309 -21.6768 -21.6139 -21.5739 -21.5467 -21.4209 -21.3832
   -21.3289 -21.2653 -21.2350 -21.1848  -9.5880  -9.5738  -9.5413  -9.5209
    -9.4785  -9.4278  -9.2167  -9.2050  -9.1560  -9.1428  -9.0914  -9.0814
    -7.0121  -6.9883  -6.6850  -6.6714  -6.2798  -6.2617  -5.8067  -5.7630
    -5.4564  -5.4180  -5.2664  -5.1565  -4.2212  -4.1306  -4.0582  -3.9744
    -3.9518  -3.9445  -3.8493  -3.8349  -3.7745  -3.6804  -3.6376  -3.6113

          k =-0.1498 0.0865 0.6221 ( 35903 PWs)   bands (ev):

   -21.7935 -21.7055 -21.6933 -21.6110 -21.5798 -21.5541 -21.4091 -21.3755
   -21.3393 -21.2602 -21.2451 -21.1806  -9.5889  -9.5653  -9.5579  -9.5084
    -9.4813  -9.4281  -9.2151  -9.2070  -9.1720  -9.1146  -9.0990  -9.0861
    -7.0697  -6.8601  -6.8376  -6.5156  -6.3899  -6.2538  -5.8196  -5.6368
    -5.5878  -5.3482  -5.2928  -5.1555  -4.2100  -4.1492  -4.0513  -3.9706
    -3.9685  -3.9059  -3.8898  -3.8066  -3.7838  -3.6782  -3.6488  -3.6040

          k = 0.2996 0.3460-0.3111 ( 35869 PWs)   bands (ev):

   -21.8149 -21.7255 -21.6877 -21.6029 -21.5562 -21.5382 -21.4208 -21.3770
   -21.3357 -21.2794 -21.2325 -21.1735  -9.6046  -9.5815  -9.5300  -9.5060
    -9.4824  -9.4260  -9.2591  -9.2422  -9.1955  -9.1050  -9.0842  -9.0728
    -7.1113  -6.8470  -6.7115  -6.5544  -6.5052  -6.1308  -5.7624  -5.6646
    -5.6397  -5.3983  -5.2950  -5.0969  -4.1666  -4.1148  -4.0655  -3.9929
    -3.9109  -3.8802  -3.8503  -3.8238  -3.7824  -3.7158  -3.6466  -3.5920

          k = 0.1498 0.2595 0.0000 ( 35827 PWs)   bands (ev):

   -21.8804 -21.6992 -21.6684 -21.5588 -21.5321 -21.4785 -21.4668 -21.4103
   -21.3952 -21.2713 -21.2480 -21.1325  -9.6369  -9.5604  -9.5261  -9.5160
    -9.4638  -9.4572  -9.2669  -9.2371  -9.1685  -9.1386  -9.1070  -9.0670
    -7.3214  -6.6638  -6.6421  -6.4795  -6.4114  -6.0435  -5.9116  -5.7838
    -5.7608  -5.4007  -5.3456  -4.9203  -4.1033  -4.0939  -4.0738  -3.9554
    -3.9008  -3.8625  -3.8159  -3.7904  -3.7596  -3.7317  -3.6522  -3.6420

          k = 0.2996-0.1730-1.2442 ( 35856 PWs)   bands (ev):

   -21.8000 -21.7932 -21.6776 -21.5852 -21.5392 -21.4863 -21.4487 -21.3934
   -21.3505 -21.2823 -21.2088 -21.1760  -9.6084  -9.5914  -9.5327  -9.5185
    -9.4432  -9.4322  -9.3105  -9.2686  -9.1764  -9.1294  -9.0776  -9.0671
    -7.0155  -7.0060  -6.6394  -6.6355  -6.3335  -6.1349  -5.7906  -5.7212
    -5.5781  -5.5137  -5.2081  -5.0883  -4.1034  -4.0830  -4.0803  -3.9979
    -3.8975  -3.8396  -3.8356  -3.8276  -3.7713  -3.7406  -3.6296  -3.6108

          k = 0.0000 0.0000 0.9332 ( 35893 PWs)   bands (ev):

   -21.7487 -21.7463 -21.7463 -21.6028 -21.5598 -21.5598 -21.3671 -21.3671
   -21.3538 -21.2412 -21.2412 -21.2100  -9.5870  -9.5870  -9.5545  -9.4689
    -9.4689  -9.4667  -9.2772  -9.2298  -9.2298  -9.0759  -9.0759  -9.0646
    -6.9280  -6.9280  -6.8077  -6.6935  -6.3306  -6.3306  -5.6058  -5.6058
    -5.4976  -5.3519  -5.3519  -5.3004  -4.1288  -4.1288  -4.0566  -4.0134
    -3.8839  -3.8839  -3.8646  -3.8215  -3.8215  -3.6812  -3.6812  -3.5734

          k = 0.4494 0.2595 0.0000 ( 35850 PWs)   bands (ev):

   -21.8227 -21.7355 -21.7255 -21.5689 -21.5332 -21.5036 -21.4269 -21.4047
   -21.3624 -21.2577 -21.2309 -21.1695  -9.6121  -9.5776  -9.5562  -9.4938
    -9.4663  -9.4208  -9.3179  -9.2450  -9.2065  -9.1044  -9.0855  -9.0698
    -7.1078  -6.7934  -6.7799  -6.6438  -6.3045  -6.0985  -5.8283  -5.7998
    -5.5375  -5.3998  -5.3089  -5.0629  -4.0962  -4.0890  -4.0783  -3.9983
    -3.9116  -3.8653  -3.8246  -3.8074  -3.7577  -3.7230  -3.6698  -3.5954

          k = 0.2996 0.1730 0.3111 ( 35848 PWs)   bands (ev):

   -21.8412 -21.7060 -21.6655 -21.6065 -21.5471 -21.5196 -21.4362 -21.4089
   -21.3424 -21.2860 -21.2327 -21.1520  -9.6159  -9.5648  -9.5396  -9.5062
    -9.4890  -9.4138  -9.2657  -9.1954  -9.1640  -9.1539  -9.0956  -9.0883
    -7.2036  -6.7664  -6.7067  -6.4878  -6.4378  -6.1236  -5.8487  -5.7829
    -5.6941  -5.3583  -5.2937  -5.0005  -4.1832  -4.1126  -4.0746  -3.9743
    -3.9330  -3.8886  -3.8519  -3.7961  -3.7522  -3.7112  -3.6541  -3.6106

          k = 0.4494-0.2595-0.9332 ( 35861 PWs)   bands (ev):

   -21.7762 -21.7611 -21.6933 -21.6168 -21.5527 -21.5136 -21.4390 -21.3952
   -21.3115 -21.2805 -21.2380 -21.1661  -9.5921  -9.5828  -9.5525  -9.5038
    -9.4780  -9.3883  -9.2956  -9.2167  -9.1701  -9.1491  -9.0922  -9.0826
    -6.9946  -6.8986  -6.7344  -6.6450  -6.3918  -6.0934  -5.9417  -5.7543
    -5.4927  -5.3619  -5.3145  -5.0539  -4.1921  -4.1143  -4.0908  -3.9812
    -3.9447  -3.9231  -3.8154  -3.7835  -3.7681  -3.7217  -3.6542  -3.5825

          k = 0.2996-0.3460-0.6221 ( 35862 PWs)   bands (ev):

   -21.7716 -21.7136 -21.6887 -21.6446 -21.5708 -21.5550 -21.4111 -21.3895
   -21.3006 -21.2742 -21.2575 -21.1698  -9.5953  -9.5538  -9.5384  -9.5193
    -9.5049  -9.3908  -9.2288  -9.2145  -9.1503  -9.1401  -9.1034  -9.0978
    -6.9532  -6.9229  -6.7187  -6.6937  -6.3413  -6.3133  -5.7606  -5.7274
    -5.4880  -5.4683  -5.2381  -5.1031  -4.2437  -4.1271  -4.0938  -3.9981
    -3.9751  -3.8901  -3.8464  -3.8105  -3.7935  -3.6817  -3.6628  -3.5723

          k = 0.0000 0.0000-1.8663 ( 35892 PWs)   bands (ev):

   -21.7548 -21.6948 -21.6948 -21.6536 -21.5877 -21.5877 -21.3798 -21.3798
   -21.2881 -21.2881 -21.2795 -21.1581  -9.5974  -9.5369  -9.5369  -9.5188
    -9.5188  -9.3637  -9.2402  -9.2243  -9.1379  -9.1379  -9.1191  -9.1191
    -6.9450  -6.8597  -6.6162  -6.6162  -6.4918  -6.4918  -5.6049  -5.6049
    -5.5993  -5.5993  -5.1994  -5.0630  -4.2613  -4.1185  -4.1185  -4.0157
    -4.0157  -3.8629  -3.8461  -3.7762  -3.7762  -3.6911  -3.6911  -3.5486

          k = 0.2996-0.3460 0.3111 ( 35869 PWs)   bands (ev):

   -21.8136 -21.7348 -21.6753 -21.6024 -21.5652 -21.5373 -21.4023 -21.3924
   -21.3405 -21.2686 -21.2388 -21.1728  -9.6076  -9.5718  -9.5366  -9.5161
    -9.4667  -9.4316  -9.2670  -9.2368  -9.1925  -9.1011  -9.0892  -9.0723
    -7.1100  -6.8555  -6.7221  -6.5328  -6.4839  -6.1633  -5.8242  -5.6180
    -5.5674  -5.4250  -5.3307  -5.0842  -4.1701  -4.1000  -4.0798  -3.9837
    -3.9118  -3.8819  -3.8521  -3.8198  -3.8004  -3.6994  -3.6461  -3.5965

     highest occupied level (ev):    -3.5486

!    total energy              =    -418.03230495 Ry
     estimated scf accuracy    <       0.00000001 Ry

     The total energy is the sum of the following terms:
     one-electron contribution =    -327.48475384 Ry
     hartree contribution      =     195.27548201 Ry
     xc contribution           =    -105.51724055 Ry
     ewald contribution        =    -180.30579257 Ry

     convergence has been achieved in   6 iterations

     Forces acting on atoms (cartesian axes, Ry/au):

     atom    1 type  2   force =    -0.00488684    0.00581413    0.00050204
     atom    2 type  2   force =     0.00488684   -0.00581413   -0.00050204
     atom    3 type  2   force =    -0.00259176   -0.00713919    0.00050204
     atom    4 type  2   force =     0.00259176    0.00713919   -0.00050204
     atom    5 type  2   force =     0.00747860    0.00132506    0.00050204
     atom    6 type  2   force =    -0.00747860   -0.00132506   -0.00050204
     atom    7 type  2   force =    -0.00148270    0.00077231   -0.00420923
     atom    8 type  2   force =     0.00148270   -0.00077231    0.00420923
     atom    9 type  2   force =     0.00007251   -0.00167021   -0.00420923
     atom   10 type  2   force =    -0.00007251    0.00167021    0.00420923
     atom   11 type  2   force =     0.00141019    0.00089790   -0.00420923
     atom   12 type  2   force =    -0.00141019   -0.00089790    0.00420923
     atom   13 type  1   force =    -0.00005712   -0.00807039   -0.00182564
     atom   14 type  1   force =     0.00005712    0.00807039    0.00182564
     atom   15 type  1   force =     0.00701772    0.00398573   -0.00182564
     atom   16 type  1   force =    -0.00701772   -0.00398573    0.00182564
     atom   17 type  1   force =    -0.00696060    0.00408466   -0.00182564
     atom   18 type  1   force =     0.00696060   -0.00408466    0.00182564
     atom   19 type  1   force =     0.00627246   -0.00039301   -0.00248094
     atom   20 type  1   force =    -0.00627246    0.00039301    0.00248094
     atom   21 type  1   force =    -0.00279587    0.00562862   -0.00248094
     atom   22 type  1   force =     0.00279587   -0.00562862    0.00248094
     atom   23 type  1   force =    -0.00347659   -0.00523561   -0.00248094
     atom   24 type  1   force =     0.00347659    0.00523561    0.00248094
     atom   25 type  1   force =     0.00224944   -0.00193367    0.00227707
     atom   26 type  1   force =    -0.00224944    0.00193367   -0.00227707
     atom   27 type  1   force =     0.00054989    0.00291491    0.00227707
     atom   28 type  1   force =    -0.00054989   -0.00291491   -0.00227707
     atom   29 type  1   force =    -0.00279933   -0.00098124    0.00227707
     atom   30 type  1   force =     0.00279933    0.00098124   -0.00227707
     atom   31 type  1   force =    -0.00610191    0.00101391    0.00371178
     atom   32 type  1   force =     0.00610191   -0.00101391   -0.00371178
     atom   33 type  1   force =     0.00217289   -0.00579136    0.00371178
     atom   34 type  1   force =    -0.00217289    0.00579136   -0.00371178
     atom   35 type  1   force =     0.00392902    0.00477745    0.00371178
     atom   36 type  1   force =    -0.00392902   -0.00477745   -0.00371178

     Total force =     0.039390     Total SCF correction =     0.000150


     Computing stress (Cartesian axis) and pressure

          total   stress  (Ry/bohr**3)                   (kbar)     P=      -22.60
  -0.00017145  -0.00000000  -0.00000000          -25.22       -0.00       -0.00
   0.00000000  -0.00017145  -0.00000000            0.00      -25.22       -0.00
   0.00000000  -0.00000000  -0.00011803            0.00       -0.00      -17.36

     Energy error            =      9.9E-03 Ry
     Gradient error          =      8.1E-03 Ry/Bohr

     number of scf cycles    =   4
     number of bfgs steps    =   3

     energy             old  =    -418.0224526932 Ry
     energy             new  =    -418.0323049483 Ry

     CASE: energy            _new < energy            _old

     new trust radius        =       0.0167230634 bohr
[...]
H                0.1831384074        0.9751306144        0.4109215017
H                0.8168616076        0.0248693646        0.5890784983
H                0.7312785121        0.4047833932        0.4111635745
H                0.2687214879        0.5952165768        0.5888364555
H                0.4111635745        0.7312785121        0.4047833932
H                0.5888364555        0.2687214879        0.5952165768
H                0.4047833932        0.4111635745        0.7312785121
H                0.5952165768        0.5888364555        0.2687214879
H                0.7475092196        0.2134813447        0.3805581983
H                0.2524907804        0.7865186403        0.6194418017
H                0.3805581983        0.7475092196        0.2134813447
H                0.6194418017        0.2524907804        0.7865186403
H                0.2134813447        0.3805581983        0.7475092196
H                0.7865186403        0.6194418017        0.2524907804



     Writing config-only to output data dir ./iceII/iceII.save/ :
     XML data file
     NEW-OLD atomic charge density approx. for the potential

     negative rho (up, down):  1.040E-06 0.000E+00

     total cpu time spent up to now is      314.5 secs

     per-process dynamical memory:    23.6 Mb

     Self-consistent Calculation

     iteration #  1     ecut=    90.00 Ry     beta= 0.70
     Davidson diagonalization with overlap
     ethr =  1.00E-06,  avg # of iterations =  3.0

     Threshold (ethr) on eigenvalues was too large:
     Diagonalizing with lowered threshold

     Davidson diagonalization with overlap
     ethr =  1.07E-08,  avg # of iterations =  3.6

     negative rho (up, down):  1.040E-06 0.000E+00

     total cpu time spent up to now is      316.6 secs

     total energy              =    -418.04153424 Ry
     estimated scf accuracy    <       0.00001402 Ry

     iteration #  2     ecut=    90.00 Ry     beta= 0.70
     Davidson diagonalization with overlap
     ethr =  1.46E-08,  avg # of iterations =  2.0

     negative rho (up, down):  1.036E-06 0.000E+00

     total cpu time spent up to now is      317.7 secs

     total energy              =    -418.04153675 Ry
     estimated scf accuracy    <       0.00000099 Ry

     iteration #  3     ecut=    90.00 Ry     beta= 0.70
     Davidson diagonalization with overlap
     ethr =  1.04E-09,  avg # of iterations =  2.1

     negative rho (up, down):  1.034E-06 0.000E+00

     total cpu time spent up to now is      318.9 secs

     total energy              =    -418.04153703 Ry
     estimated scf accuracy    <       0.00000018 Ry

     iteration #  4     ecut=    90.00 Ry     beta= 0.70
     Davidson diagonalization with overlap
     ethr =  1.83E-10,  avg # of iterations =  2.0

     negative rho (up, down):  1.033E-06 0.000E+00

     total cpu time spent up to now is      319.9 secs

     total energy              =    -418.04153706 Ry
     estimated scf accuracy    <          8.8E-09 Ry

     iteration #  5     ecut=    90.00 Ry     beta= 0.70
     Davidson diagonalization with overlap
     ethr =  9.20E-12,  avg # of iterations =  3.8

     negative rho (up, down):  1.033E-06 0.000E+00

     total cpu time spent up to now is      321.2 secs

     total energy              =    -418.04153706 Ry
     estimated scf accuracy    <          6.1E-09 Ry

     iteration #  6     ecut=    90.00 Ry     beta= 0.70
     Davidson diagonalization with overlap
     ethr =  6.35E-12,  avg # of iterations =  2.1

     negative rho (up, down):  1.033E-06 0.000E+00

     total cpu time spent up to now is      322.3 secs

     End of self-consistent calculation

          k = 0.0000 0.0000 0.0000 ( 35851 PWs)   bands (ev):

   -21.9125 -21.6403 -21.6403 -21.5125 -21.5125 -21.4982 -21.4838 -21.4838
   -21.4800 -21.3089 -21.3089 -21.1246  -9.5514  -9.4911  -9.4771  -9.4771
    -9.4392  -9.4392  -9.2354  -9.2354  -9.2207  -9.2207  -9.2200  -9.2099
    -7.3818  -6.6312  -6.6312  -6.2069  -6.2069  -6.0395  -6.0395  -5.9747
    -5.8504  -5.3519  -5.3519  -4.7834  -4.0729  -4.0729  -4.0363  -3.9250
    -3.9250  -3.8906  -3.8026  -3.7872  -3.7872  -3.7734  -3.7152  -3.7152

          k =-0.1498-0.0865 0.3111 ( 35897 PWs)   bands (ev):

   -21.8687 -21.6635 -21.6345 -21.5963 -21.5729 -21.5345 -21.4583 -21.4272
   -21.3945 -21.3122 -21.2881 -21.1582  -9.5337  -9.4987  -9.4806  -9.4705
    -9.4367  -9.4133  -9.2668  -9.2512  -9.2405  -9.2084  -9.1860  -9.1749
    -7.2666  -6.7543  -6.6604  -6.4257  -6.2665  -6.0890  -5.9045  -5.8565
    -5.6961  -5.3526  -5.2994  -4.8982  -4.1273  -4.0800  -4.0391  -3.9598
    -3.9581  -3.9268  -3.8671  -3.7948  -3.7698  -3.7445  -3.7166  -3.6981

          k = 0.2996 0.1730-0.6221 ( 35856 PWs)   bands (ev):

   -21.7616 -21.7499 -21.6500 -21.6412 -21.5802 -21.5694 -21.4292 -21.4137
   -21.3316 -21.3027 -21.2517 -21.2306  -9.5103  -9.5049  -9.4762  -9.4742
    -9.4357  -9.3859  -9.2817  -9.2746  -9.2412  -9.2118  -9.1592  -9.1486
    -7.0122  -6.9658  -6.6598  -6.6558  -6.2382  -6.2101  -5.8088  -5.7759
    -5.4329  -5.3872  -5.2458  -5.1050  -4.1805  -4.0873  -4.0228  -4.0161
    -3.9727  -3.9676  -3.8878  -3.8111  -3.8023  -3.7223  -3.6960  -3.6818

          k =-0.1498 0.0865 0.6221 ( 35903 PWs)   bands (ev):

   -21.7825 -21.6964 -21.6906 -21.6210 -21.6053 -21.5656 -21.4286 -21.3822
   -21.3568 -21.2885 -21.2766 -21.2178  -9.5131  -9.4943  -9.4893  -9.4731
    -9.4295  -9.3866  -9.2771  -9.2740  -9.2622  -9.1845  -9.1673  -9.1534
    -7.0616  -6.8429  -6.8187  -6.4974  -6.3520  -6.2088  -5.8243  -5.6319
    -5.5611  -5.3286  -5.2712  -5.1013  -4.1708  -4.1057  -4.0150  -4.0107
    -3.9803  -3.9494  -3.9086  -3.8039  -3.7934  -3.7308  -3.7049  -3.6727

          k = 0.2996 0.3460-0.3111 ( 35869 PWs)   bands (ev):

   -21.8092 -21.7124 -21.6689 -21.6290 -21.5913 -21.5478 -21.4359 -21.3787
   -21.3390 -21.3230 -21.2662 -21.2074  -9.5179  -9.5139  -9.4719  -9.4631
    -9.4280  -9.4010  -9.3084  -9.2908  -9.2645  -9.1856  -9.1761  -9.1504
    -7.0680  -6.8360  -6.7139  -6.5285  -6.4745  -6.1072  -5.7805  -5.6649
    -5.5885  -5.3521  -5.2781  -5.0610  -4.1332  -4.0765  -4.0368  -3.9973
    -3.9501  -3.9228  -3.8666  -3.8419  -3.7780  -3.7656  -3.6948  -3.6499

          k = 0.1498 0.2595 0.0000 ( 35827 PWs)   bands (ev):

   -21.8796 -21.6812 -21.6492 -21.5821 -21.5579 -21.5129 -21.4657 -21.4251
   -21.3937 -21.3136 -21.2930 -21.1523  -9.5400  -9.4984  -9.4808  -9.4700
    -9.4334  -9.4256  -9.2891  -9.2749  -9.2410  -9.2012  -9.1971  -9.1768
    -7.2636  -6.6746  -6.6273  -6.4360  -6.4272  -6.0194  -5.8883  -5.7726
    -5.7313  -5.3743  -5.3400  -4.8703  -4.0743  -4.0604  -4.0450  -3.9565
    -3.9196  -3.9088  -3.8376  -3.8199  -3.8021  -3.7602  -3.6862  -3.6751

          k = 0.2996-0.1730-1.2442 ( 35856 PWs)   bands (ev):

   -21.8007 -21.7790 -21.6545 -21.6153 -21.5552 -21.5322 -21.4273 -21.4224
   -21.3391 -21.3322 -21.2303 -21.2178  -9.5200  -9.5114  -9.4800  -9.4663
    -9.4232  -9.4139  -9.3261  -9.3029  -9.2509  -9.1948  -9.1876  -9.1620
    -6.9705  -6.9434  -6.6922  -6.5658  -6.3782  -6.1257  -5.7452  -5.7163
    -5.5758  -5.4419  -5.1742  -5.0772  -4.0748  -4.0514  -4.0499  -3.9852
    -3.9089  -3.9033  -3.8865  -3.8418  -3.8108  -3.7533  -3.6656  -3.6487

          k = 0.0000 0.0000 0.9332 ( 35893 PWs)   bands (ev):

   -21.7422 -21.7422 -21.7042 -21.6745 -21.5673 -21.5673 -21.3897 -21.3897
   -21.3179 -21.2734 -21.2703 -21.2703  -9.5129  -9.5129  -9.4843  -9.4305
    -9.4241  -9.4241  -9.3418  -9.2856  -9.2856  -9.1623  -9.1623  -9.1424
    -6.8847  -6.8847  -6.8458  -6.6213  -6.3344  -6.3344  -5.6017  -5.6017
    -5.4543  -5.3208  -5.3208  -5.2641  -4.0927  -4.0927  -4.0203  -4.0012
    -3.9364  -3.9364  -3.9162  -3.8098  -3.8098  -3.7309  -3.7309  -3.6324

          k = 0.4494 0.2595 0.0000 ( 35850 PWs)   bands (ev):

   -21.8190 -21.7178 -21.7157 -21.6162 -21.5305 -21.5179 -21.4498 -21.4325
   -21.3417 -21.2924 -21.2707 -21.2018  -9.5222  -9.5031  -9.4929  -9.4523
    -9.4350  -9.4084  -9.3334  -9.2881  -9.2654  -9.1900  -9.1774  -9.1707
    -7.0532  -6.7457  -6.7268  -6.6805  -6.3433  -6.1045  -5.8202  -5.7392
    -5.4803  -5.3756  -5.2990  -5.0383  -4.0710  -4.0534  -4.0476  -3.9747
    -3.9493  -3.9073  -3.8636  -3.8355  -3.8121  -3.7355  -3.6892  -3.6409

          k = 0.2996 0.1730 0.3111 ( 35848 PWs)   bands (ev):

   -21.8381 -21.6882 -21.6436 -21.6287 -21.5790 -21.5427 -21.4410 -21.4140
   -21.3731 -21.3081 -21.2722 -21.1802  -9.5266  -9.5024  -9.4853  -9.4533
    -9.4393  -9.3942  -9.2918  -9.2619  -9.2304  -9.2255  -9.1990  -9.1641
    -7.1594  -6.7509  -6.7220  -6.4688  -6.4019  -6.0951  -5.8551  -5.7265
    -5.6935  -5.3219  -5.2852  -4.9594  -4.1519  -4.0710  -4.0458  -3.9999
    -3.9651  -3.9064  -3.8638  -3.8265  -3.7649  -3.7581  -3.6878  -3.6739

          k = 0.4494-0.2595-0.9332 ( 35861 PWs)   bands (ev):

   -21.7589 -21.7580 -21.6752 -21.6529 -21.5744 -21.5237 -21.4621 -21.4036
   -21.3264 -21.2969 -21.2643 -21.2123  -9.5189  -9.5022  -9.4883  -9.4480
    -9.4299  -9.3759  -9.3080  -9.2839  -9.2513  -9.2207  -9.1902  -9.1689
    -6.9489  -6.8578  -6.7710  -6.5873  -6.4112  -6.0837  -5.9273  -5.6938
    -5.4918  -5.3045  -5.2823  -5.0529  -4.1635  -4.0792  -4.0589  -4.0090
    -3.9817  -3.9086  -3.8515  -3.8300  -3.7760  -3.7520  -3.6892  -3.6450

          k = 0.2996-0.3460-0.6221 ( 35862 PWs)   bands (ev):

   -21.7407 -21.7284 -21.6690 -21.6674 -21.5872 -21.5823 -21.4163 -21.4083
   -21.3195 -21.3103 -21.2602 -21.2221  -9.5210  -9.4815  -9.4715  -9.4661
    -9.4522  -9.3560  -9.2847  -9.2807  -9.2422  -9.2180  -9.1759  -9.1686
    -6.9414  -6.9208  -6.6981  -6.6706  -6.2934  -6.2699  -5.7691  -5.7325
    -5.4488  -5.4256  -5.1968  -5.0919  -4.2085  -4.0876  -4.0585  -4.0389
    -4.0089  -3.9141  -3.8399  -3.8301  -3.8025  -3.7248  -3.7151  -3.6477

          k = 0.0000 0.0000-1.8663 ( 35892 PWs)   bands (ev):

   -21.7174 -21.7059 -21.6616 -21.6616 -21.6335 -21.6335 -21.3681 -21.3681
   -21.3454 -21.3454 -21.2591 -21.2119  -9.5232  -9.4645  -9.4645  -9.4614
    -9.4614  -9.3320  -9.2912  -9.2793  -9.2335  -9.2335  -9.1940  -9.1940
    -6.9438  -6.8578  -6.5645  -6.5645  -6.4856  -6.4856  -5.5817  -5.5817
    -5.5669  -5.5669  -5.1490  -5.0722  -4.2263  -4.0808  -4.0808  -4.0599
    -4.0599  -3.8726  -3.8428  -3.7723  -3.7723  -3.7575  -3.7575  -3.6227

          k = 0.2996-0.3460 0.3111 ( 35869 PWs)   bands (ev):

   -21.8089 -21.7158 -21.6588 -21.6381 -21.5893 -21.5480 -21.4333 -21.3752
   -21.3599 -21.3005 -21.2741 -21.2070  -9.5243  -9.5029  -9.4788  -9.4553
    -9.4359  -9.3990  -9.3103  -9.2899  -9.2639  -9.1853  -9.1713  -9.1547
    -7.0687  -6.8318  -6.7352  -6.5045  -6.4551  -6.1434  -5.8301  -5.6069
    -5.5294  -5.4003  -5.3001  -5.0478  -4.1367  -4.0660  -4.0471  -3.9891
    -3.9479  -3.9174  -3.8810  -3.8460  -3.7911  -3.7415  -3.6972  -3.6524

     highest occupied level (ev):    -3.6227

!    total energy              =    -418.04153706 Ry
     estimated scf accuracy    <          4.5E-10 Ry

     The total energy is the sum of the following terms:
     one-electron contribution =    -328.73293559 Ry
     hartree contribution      =     195.91331991 Ry
     xc contribution           =    -105.55479235 Ry
     ewald contribution        =    -179.66712903 Ry

     convergence has been achieved in   6 iterations

     Forces acting on atoms (cartesian axes, Ry/au):

     atom    1 type  2   force =    -0.00015785   -0.00056517    0.00019254
     atom    2 type  2   force =     0.00015785    0.00056517   -0.00019254
     atom    3 type  2   force =     0.00056838    0.00014589    0.00019254
     atom    4 type  2   force =    -0.00056838   -0.00014589   -0.00019254
     atom    5 type  2   force =    -0.00041053    0.00041928    0.00019254
     atom    6 type  2   force =     0.00041053   -0.00041928   -0.00019254
     atom    7 type  2   force =     0.00012752    0.00014628    0.00073218
     atom    8 type  2   force =    -0.00012752   -0.00014628   -0.00073218
     atom    9 type  2   force =    -0.00019044    0.00003730    0.00073218
     atom   10 type  2   force =     0.00019044   -0.00003730   -0.00073218
     atom   11 type  2   force =     0.00006292   -0.00018358    0.00073218
     atom   12 type  2   force =    -0.00006292    0.00018358   -0.00073218
     atom   13 type  1   force =     0.00007395    0.00024712    0.00088719
     atom   14 type  1   force =    -0.00007395   -0.00024712   -0.00088719
     atom   15 type  1   force =    -0.00025099   -0.00005952    0.00088719
     atom   16 type  1   force =     0.00025099    0.00005952   -0.00088719
     atom   17 type  1   force =     0.00017704   -0.00018760    0.00088719
     atom   18 type  1   force =    -0.00017704    0.00018760   -0.00088719
     atom   19 type  1   force =     0.00032807   -0.00011390    0.00021884
     atom   20 type  1   force =    -0.00032807    0.00011390   -0.00021884
     atom   21 type  1   force =    -0.00006539    0.00034107    0.00021884
     atom   22 type  1   force =     0.00006539   -0.00034107   -0.00021884
     atom   23 type  1   force =    -0.00026268   -0.00022716    0.00021884
     atom   24 type  1   force =     0.00026268    0.00022716   -0.00021884
     atom   25 type  1   force =     0.00009164    0.00040882   -0.00007417
     atom   26 type  1   force =    -0.00009164   -0.00040882    0.00007417
     atom   27 type  1   force =    -0.00039987   -0.00012505   -0.00007417
     atom   28 type  1   force =     0.00039987    0.00012505    0.00007417
     atom   29 type  1   force =     0.00030823   -0.00028377   -0.00007417
     atom   30 type  1   force =    -0.00030823    0.00028377    0.00007417
     atom   31 type  1   force =    -0.00075783    0.00003971    0.00045859
     atom   32 type  1   force =     0.00075783   -0.00003971   -0.00045859
     atom   33 type  1   force =     0.00034453   -0.00067616    0.00045859
     atom   34 type  1   force =    -0.00034453    0.00067616   -0.00045859
     atom   35 type  1   force =     0.00041330    0.00063645    0.00045859
     atom   36 type  1   force =    -0.00041330   -0.00063645   -0.00045859

     Total force =     0.004203     Total SCF correction =     0.000036


     Computing stress (Cartesian axis) and pressure

          total   stress  (Ry/bohr**3)                   (kbar)     P=      -19.62
  -0.00013700   0.00000000   0.00000000          -20.15        0.00        0.00
  -0.00000000  -0.00013700  -0.00000000           -0.00      -20.15       -0.00
   0.00000000  -0.00000000  -0.00012611            0.00       -0.00      -18.55

     Energy error            =      3.2E-05 Ry
     Gradient error          =      8.9E-04 Ry/Bohr

     bfgs converged in  29 scf cycles and  28 bfgs steps
     (criteria: energy <  1.0E-04 Ry, force <  1.0E-03 Ry/Bohr)

     End of BFGS Geometry Optimization

     Final energy             =    -418.0415370620 Ry

     File ./iceII/iceII.bfgs deleted, as requested
Begin final coordinates

ATOMIC_POSITIONS (crystal)
O                0.2667450752        0.0218414439        0.8520119842
O                0.7332549248        0.9781585671        0.1479879858
O                0.8520119842        0.2667450752        0.0218414439
O                0.1479879858        0.7332549248        0.9781585671
O                0.0218414439        0.8520119842        0.2667450752
O                0.9781585671        0.1479879858        0.7332549248
O                0.4803729667        0.7521218509        0.3334633325
O                0.5196270333        0.2478781491        0.6665366375
O                0.3334633325        0.4803729667        0.7521218509
O                0.6665366375        0.5196270333        0.2478781491
O                0.7521218509        0.3334633325        0.4803729667
O                0.2478781491        0.6665366375        0.5196270333
H                0.1470892504        0.0347411542        0.7925793575
H                0.8529107356        0.9652588378        0.2074206425
H                0.7925793575        0.1470892504        0.0347411542
H                0.2074206425        0.8529107356        0.9652588378
H                0.0347411542        0.7925793575        0.1470892504
H                0.9652588378        0.2074206425        0.8529107356
H                0.4109215017        0.1831384074        0.9751306144
H                0.5890784983        0.8168616076        0.0248693646
H                0.9751306144        0.4109215017        0.1831384074
H                0.0248693646        0.5890784983        0.8168616076
H                0.1831384074        0.9751306144        0.4109215017
H                0.8168616076        0.0248693646        0.5890784983
H                0.7312785121        0.4047833932        0.4111635745
H                0.2687214879        0.5952165768        0.5888364555
H                0.4111635745        0.7312785121        0.4047833932
H                0.5888364555        0.2687214879        0.5952165768
H                0.4047833932        0.4111635745        0.7312785121
H                0.5952165768        0.5888364555        0.2687214879
H                0.7475092196        0.2134813447        0.3805581983
H                0.2524907804        0.7865186403        0.6194418017
H                0.3805581983        0.7475092196        0.2134813447
H                0.6194418017        0.2524907804        0.7865186403
H                0.2134813447        0.3805581983        0.7475092196
H                0.7865186403        0.6194418017        0.2524907804
End final coordinates



     Writing all to output data dir ./iceII/iceII.save/ :
     XML data file, charge density, pseudopotentials, collected wavefunctions

     init_run     :      2.98s CPU      3.09s WALL (       1 calls)
     electrons    :    257.86s CPU    269.08s WALL (      29 calls)
     update_pot   :      5.18s CPU      6.15s WALL (      28 calls)
     forces       :      4.76s CPU      4.79s WALL (      29 calls)
     stress       :     37.12s CPU     38.00s WALL (      29 calls)

     Called by init_run:
     wfcinit      :      0.38s CPU      0.40s WALL (       1 calls)
     potinit      :      1.70s CPU      1.77s WALL (       1 calls)
     hinit0       :      0.68s CPU      0.69s WALL (       1 calls)

     Called by electrons:
     c_bands      :    189.65s CPU    191.79s WALL (     221 calls)
     sum_band     :     26.60s CPU     26.84s WALL (     221 calls)
     v_of_rho     :     44.98s CPU     52.23s WALL (     241 calls)
     newd         :      1.65s CPU      1.73s WALL (     241 calls)
     mix_rho      :      0.85s CPU      0.86s WALL (     221 calls)
     vdW_kernel   :      1.51s CPU      1.52s WALL (       1 calls)

     Called by c_bands:
     init_us_2    :      3.80s CPU      3.94s WALL (    2004 calls)
     cegterg      :    182.86s CPU    184.47s WALL (     884 calls)

     Called by *egterg:
     cdiaghg      :     13.00s CPU     13.02s WALL (    3339 calls)
     h_psi        :    135.85s CPU    137.03s WALL (    3491 calls)
     s_psi        :      6.42s CPU      6.60s WALL (    3491 calls)
     g_psi        :      0.42s CPU      0.42s WALL (    2603 calls)

     Called by h_psi:
     h_psi:calbec :     10.58s CPU     10.61s WALL (    3491 calls)
     vloc_psi     :    117.72s CPU    118.77s WALL (    3491 calls)
     add_vuspsi   :      6.42s CPU      6.44s WALL (    3491 calls)

     General routines
     calbec       :     15.23s CPU     15.29s WALL (    4955 calls)
     fft          :     24.66s CPU     28.45s WALL (   16246 calls)
     ffts         :      0.32s CPU      0.32s WALL (     221 calls)
     fftw         :    122.81s CPU    123.89s WALL (  308812 calls)

     Parallel routines

     PWSCF        :   5m10.05s CPU   5m24.58s WALL


   This run was terminated on:  16:26: 5   1Apr2026            

=------------------------------------------------------------------------------=
   JOB DONE.
=------------------------------------------------------------------------------=
