
     Program PWSCF v.7.3.1 starts on 26Mar2026 at 14:42:20 

     This program is part of the open-source Quantum ESPRESSO suite
     for quantum simulation of materials; please cite
         "P. Giannozzi et al., J. Phys.:Condens. Matter 21 395502 (2009);
         "P. Giannozzi et al., J. Phys.:Condens. Matter 29 465901 (2017);
         "P. Giannozzi et al., J. Chem. Phys. 152 154105 (2020);
          URL http://www.quantum-espresso.org", 
     in publications or presentations arising from this work. More details at
     http://www.quantum-espresso.org/quote

     Parallel version (MPI), running on   128 processors

     MPI processes distributed on     1 nodes
     242904 MiB available memory on the printing compute node when the environment starts

     Waiting for input...
     Reading input from standard input

     Current dimensions of program PWSCF are:
     Max number of different atomic species (ntypx) = 10
     Max number of k-points (npk) =  40000
     Max angular momentum in pseudopotentials (lmaxx) =  4

     IMPORTANT: XC functional enforced from input :
     Exchange-correlation= VDW-DF2
                           (   1   4  13   0   2   0   0)
     Any further DFT definition will be discarded
     Please, verify this is what you really want


     K-points division:     npool     =       4
     R & G space division:  proc/nbgrp/npool/nimage =      32
     Subspace diagonalization in iterative solution of the eigenvalue problem:
     a serial algorithm will be used


     Parallelization info
     --------------------
     sticks:   dense  smooth     PW     G-vecs:    dense   smooth      PW
     Min         155     155     46                 6031     6031     974
     Max         156     156     47                 6035     6035     977
     Sum        4973    4973   1473               193055   193055   31213

     Using Slab Decomposition



     bravais-lattice index     =            5
     lattice parameter (alat)  =      13.7317  a.u.
     unit-cell volume          =    1672.8936 (a.u.)^3
     number of atoms/cell      =           36
     number of atomic types    =            2
     number of electrons       =        96.00
     number of Kohn-Sham states=           48
     kinetic-energy cutoff     =      90.0000  Ry
     charge density cutoff     =     360.0000  Ry
     scf convergence threshold =      1.0E-07
     mixing beta               =       0.7000
     number of iterations used =            8  plain     mixing
     Exchange-correlation= VDW-DF2
                           (   1   4  13   0   2   0   0)

     celldm(1)=  13.731732  celldm(2)=   0.000000  celldm(3)=   0.000000
     celldm(4)=  -0.392337  celldm(5)=   0.000000  celldm(6)=   0.000000

     crystal axes: (cart. coord. in units of alat)
               a(1) = (   0.834367  -0.481722   0.267909 )  
               a(2) = (   0.000000   0.963444   0.267909 )  
               a(3) = (  -0.834367  -0.481722   0.267909 )  

     reciprocal axes: (cart. coord. in units 2 pi/alat)
               b(1) = (  0.599257 -0.345981  1.244203 )  
               b(2) = (  0.000000  0.691962  1.244203 )  
               b(3) = ( -0.599257 -0.345981  1.244203 )  


     PseudoPot. # 1 for H  read from file:
     ./H.pbe-van_ak.UPF
     MD5 check sum: 077eb6d537518a38cb46c6de387227b7
     Pseudo is Ultrasoft, Zval =  1.0
     Generated by new atomic code, or converted to UPF format
     Using radial grid of  615 points,  1 beta functions with: 
                l(1) =   0
     Q(r) pseudized with  8 coefficients,  rinner =    0.800

     PseudoPot. # 2 for O  read from file:
     ./O.pbe-van_ak.UPF
     MD5 check sum: 78c19812648e8988a0fe644b0f25305e
     Pseudo is Ultrasoft, Zval =  6.0
     Generated by new atomic code, or converted to UPF format
     Using radial grid of  737 points,  4 beta functions with: 
                l(1) =   0
                l(2) =   0
                l(3) =   1
                l(4) =   1
     Q(r) pseudized with  8 coefficients,  rinner =    0.800   0.800   0.800


     atomic species   valence    mass     pseudopotential
     H                 1.00     1.00800     H ( 1.00)
     O                 6.00    16.00000     O ( 1.00)

      6 Sym. Ops., with inversion, found



   Cartesian axes

     site n.     atom                  positions (alat units)
         1        O      tau(   1) = (  -0.4881587  -0.5153728   0.3102004  )
         2        O      tau(   2) = (   0.4881587   0.5153729   0.4935268  )
         3        O      tau(   3) = (   0.6904053  -0.1650714   0.3102004  )
         4        O      tau(   4) = (  -0.6904053   0.1650714   0.4935268  )
         5        O      tau(   5) = (  -0.2022466   0.6804442   0.3102004  )
         6        O      tau(   6) = (   0.2022466  -0.6804442   0.4935268  )
         7        O      tau(   7) = (   0.1208629   0.3351200   0.4137471  )
         8        O      tau(   8) = (  -0.1208629  -0.3351200   0.3899800  )
         9        O      tau(   9) = (  -0.3506539  -0.0628897   0.4137471  )
        10        O      tau(  10) = (   0.3506539   0.0628897   0.3899800  )
        11        O      tau(  11) = (   0.2297910  -0.2722304   0.4137471  )
        12        O      tau(  12) = (  -0.2297910   0.2722304   0.3899800  )
        13        H      tau(  13) = (  -0.5430428  -0.4102686   0.2622098  )
        14        H      tau(  14) = (   0.5430428   0.4102686   0.5415173  )
        15        H      tau(  15) = (   0.6268245  -0.2651546   0.2622098  )
        16        H      tau(  16) = (  -0.6268245   0.2651546   0.5415173  )
        17        H      tau(  17) = (  -0.0837816   0.6754232   0.2622098  )
        18        H      tau(  18) = (   0.0837817  -0.6754232   0.5415173  )
        19        H      tau(  19) = (  -0.4681736  -0.4859583   0.4327384  )
        20        H      tau(  20) = (   0.4681736   0.4859583   0.3709887  )
        21        H      tau(  21) = (   0.6549390  -0.1624711   0.4327384  )
        22        H      tau(  22) = (  -0.6549390   0.1624711   0.3709887  )
        23        H      tau(  23) = (  -0.1867654   0.6484294   0.4327384  )
        24        H      tau(  24) = (   0.1867654  -0.6484294   0.3709887  )
        25        H      tau(  25) = (   0.2718867  -0.1516220   0.4118766  )
        26        H      tau(  26) = (  -0.2718867   0.1516219   0.3918506  )
        27        H      tau(  27) = (  -0.0046349   0.3112717   0.4118766  )
        28        H      tau(  28) = (   0.0046349  -0.3112717   0.3918506  )
        29        H      tau(  29) = (  -0.2672518  -0.1596498   0.4118766  )
        30        H      tau(  30) = (   0.2672518   0.1596498   0.3918506  )
        31        H      tau(  31) = (   0.3136186  -0.3416266   0.3473301  )
        32        H      tau(  32) = (  -0.3136186   0.3416266   0.4563970  )
        33        H      tau(  33) = (   0.1390481   0.4424150   0.3473301  )
        34        H      tau(  34) = (  -0.1390480  -0.4424150   0.4563970  )
        35        H      tau(  35) = (  -0.4526667  -0.1007884   0.3473301  )
        36        H      tau(  36) = (   0.4526666   0.1007884   0.4563970  )

     number of k points=    14
                       cart. coord. in units 2pi/alat
        k(    1) = (   0.0000000   0.0000000   0.0000000), wk =   0.0312500
        k(    2) = (  -0.1498141  -0.0864952   0.3110508), wk =   0.1875000
        k(    3) = (   0.2996283   0.1729905  -0.6221017), wk =   0.0937500
        k(    4) = (  -0.1498141   0.0864952   0.6221017), wk =   0.1875000
        k(    5) = (   0.2996283   0.3459809  -0.3110508), wk =   0.1875000
        k(    6) = (   0.1498141   0.2594857   0.0000000), wk =   0.1875000
        k(    7) = (   0.2996283  -0.1729905  -1.2442034), wk =   0.0937500
        k(    8) = (   0.0000000   0.0000000   0.9331525), wk =   0.0625000
        k(    9) = (   0.4494424   0.2594857   0.0000000), wk =   0.1875000
        k(   10) = (   0.2996283   0.1729905   0.3110508), wk =   0.1875000
        k(   11) = (   0.4494424  -0.2594857  -0.9331525), wk =   0.1875000
        k(   12) = (   0.2996283  -0.3459809  -0.6221017), wk =   0.1875000
        k(   13) = (   0.0000000   0.0000000  -1.8663050), wk =   0.0312500
        k(   14) = (   0.2996283  -0.3459809   0.3110508), wk =   0.1875000

     Dense  grid:   193055 G-vectors     FFT dimensions: (  90,  90,  90)

     Estimated max dynamical RAM per process >      13.19 MB

     Estimated total dynamical RAM >       1.51 GB

     Initial potential from superposition of free atoms

     starting charge      95.9998, renormalised to      96.0000


     %%%%%%%%%%%%%%%%%%%%%%%%%%%%%%%%%%%%%%%%%%%%%%%%%%%%%%%%%%%%%%%%%%%%%%%%
     %                                                                      %
     % You are using vdW-DF, which was implemented by the Thonhauser group. %
     % Please cite the following two papers that made this development      %
     % possible and the two reviews that describe the various versions:     %
     %                                                                      %
     %   T. Thonhauser et al., PRL 115, 136402 (2015).                      %
     %   T. Thonhauser et al., PRB 76, 125112 (2007).                       %
     %   K. Berland et al., Rep. Prog. Phys. 78, 066501 (2015).             %
     %   D.C. Langreth et al., J. Phys.: Condens. Matter 21, 084203 (2009). %
     %                                                                      %
     % If you are calculating stress with vdW-DF, please also cite:         %
     %                                                                      %
     %   R. Sabatini et al., J. Phys.: Condens. Matter 24, 424209 (2012).   %
     %                                                                      %
     %%%%%%%%%%%%%%%%%%%%%%%%%%%%%%%%%%%%%%%%%%%%%%%%%%%%%%%%%%%%%%%%%%%%%%%%

     %%%%%%%%%%%%%%%%%%%%%%%%%%%%%%%%%%%%%%%%%%%%%%%%%%%%%%%%%%%%%%%%%%%%%%%%
     %                                                                      %
     %  vdW-DF NEWS:                                                        %
     %                                                                      %
     %  * vdW-DF3 is now available. DOI: 10.1021/acs.jctc.0c00471           %
     %    use with input_dft = 'vdW-DF3-opt1' or 'vdW-DF3-opt2'             %
     %                                                                      %
     %  * Unscreened and range-separated hybrid vdW-DF-cx functionals       %
     %    DOI: 10.1063/1.4986522 and 10.1088/1361-648X/ac2ad2               %
     %    use with input_dft = 'vdW-DF-cx0'    and 'vdW-DF-ahcx'            %
     %  * Unscreened and range-separated hybrid vdW-DF2-b86r functionals    %
     %    DOI: 10.1063/1.4986522 and DOI: 10.1103/PhysRevX.12.041003        %
     %    use with input_dft = 'vdW-DF2-br0' and 'vdW-DF2-ahbr'             %
     %                                                                      %
     %%%%%%%%%%%%%%%%%%%%%%%%%%%%%%%%%%%%%%%%%%%%%%%%%%%%%%%%%%%%%%%%%%%%%%%%


     Starting wfcs are   72 randomized atomic wfcs

     total cpu time spent up to now is        2.8 secs

     per-process dynamical memory:    18.0 Mb

     Self-consistent Calculation

     iteration #  1     ecut=    90.00 Ry     beta= 0.70
     Davidson diagonalization with overlap
     ethr =  1.00E-02,  avg # of iterations =  2.0

     total cpu time spent up to now is        3.7 secs

     total energy              =    -415.57214176 Ry
     estimated scf accuracy    <       5.29773673 Ry

     iteration #  2     ecut=    90.00 Ry     beta= 0.70
     Davidson diagonalization with overlap
     ethr =  5.52E-03,  avg # of iterations =  3.0

     total cpu time spent up to now is        4.7 secs

     total energy              =    -417.36049698 Ry
     estimated scf accuracy    <       2.67320392 Ry

     iteration #  3     ecut=    90.00 Ry     beta= 0.70
     Davidson diagonalization with overlap
     ethr =  2.78E-03,  avg # of iterations =  2.0

     total cpu time spent up to now is        5.5 secs

     total energy              =    -417.70948356 Ry
     estimated scf accuracy    <       0.10265211 Ry

     iteration #  4     ecut=    90.00 Ry     beta= 0.70
     Davidson diagonalization with overlap
     ethr =  1.07E-04,  avg # of iterations =  4.0

     total cpu time spent up to now is        6.7 secs

     total energy              =    -417.78155764 Ry
     estimated scf accuracy    <       0.13250187 Ry

     iteration #  5     ecut=    90.00 Ry     beta= 0.70
     Davidson diagonalization with overlap
     ethr =  1.07E-04,  avg # of iterations =  2.0

     total cpu time spent up to now is        7.5 secs

     total energy              =    -417.78926863 Ry
     estimated scf accuracy    <       0.01661523 Ry

     iteration #  6     ecut=    90.00 Ry     beta= 0.70
     Davidson diagonalization with overlap
     ethr =  1.73E-05,  avg # of iterations =  2.0

     total cpu time spent up to now is        8.3 secs

     total energy              =    -417.79015276 Ry
     estimated scf accuracy    <       0.00318479 Ry

     iteration #  7     ecut=    90.00 Ry     beta= 0.70
     Davidson diagonalization with overlap
     ethr =  3.32E-06,  avg # of iterations =  3.0

     total cpu time spent up to now is        9.3 secs

     total energy              =    -417.79161964 Ry
     estimated scf accuracy    <       0.00019124 Ry

     iteration #  8     ecut=    90.00 Ry     beta= 0.70
     Davidson diagonalization with overlap
     ethr =  1.99E-07,  avg # of iterations =  2.6

     total cpu time spent up to now is       10.1 secs

     total energy              =    -417.79156199 Ry
     estimated scf accuracy    <       0.00020882 Ry

     iteration #  9     ecut=    90.00 Ry     beta= 0.70
     Davidson diagonalization with overlap
     ethr =  1.99E-07,  avg # of iterations =  2.0

     total cpu time spent up to now is       10.9 secs

     total energy              =    -417.79157765 Ry
     estimated scf accuracy    <       0.00002205 Ry

     iteration # 10     ecut=    90.00 Ry     beta= 0.70
     Davidson diagonalization with overlap
     ethr =  2.30E-08,  avg # of iterations =  2.4

     total cpu time spent up to now is       11.8 secs

     total energy              =    -417.79158123 Ry
     estimated scf accuracy    <       0.00000334 Ry

     iteration # 11     ecut=    90.00 Ry     beta= 0.70
     Davidson diagonalization with overlap
     ethr =  3.48E-09,  avg # of iterations =  2.9

     total cpu time spent up to now is       12.7 secs

     total energy              =    -417.79158191 Ry
     estimated scf accuracy    <       0.00000028 Ry

     iteration # 12     ecut=    90.00 Ry     beta= 0.70
     Davidson diagonalization with overlap
     ethr =  2.89E-10,  avg # of iterations =  4.0

     total cpu time spent up to now is       13.7 secs

     End of self-consistent calculation

          k = 0.0000 0.0000 0.0000 ( 24113 PWs)   bands (ev):

   -21.1801 -20.4863 -20.4863 -20.2141 -20.2141 -20.1617 -20.1617 -20.1603
   -20.1373 -19.7290 -19.7290 -19.2900  -8.5079  -8.4395  -8.4395  -8.3791
    -8.2537  -8.2537  -7.9133  -7.9079  -7.9079  -7.8687  -7.8259  -7.8259
    -6.4982  -5.1987  -5.1987  -4.4285  -4.4285  -4.2455  -4.2455  -4.0134
    -3.9343  -3.1208  -3.1208  -2.3540  -2.2200  -2.2200  -2.1553  -1.9847
    -1.9847  -1.9380  -1.8268  -1.8268  -1.7564  -1.6056  -1.5772  -1.5772

          k =-0.1498-0.0865 0.3111 ( 24135 PWs)   bands (ev):

   -21.0750 -20.5468 -20.4717 -20.4082 -20.3618 -20.2608 -20.0880 -20.0303
   -19.9380 -19.7372 -19.6776 -19.3717  -8.4610  -8.4431  -8.4169  -8.3625
    -8.2421  -8.2096  -7.9978  -7.9625  -7.9367  -7.8250  -7.7473  -7.7335
    -6.2852  -5.3914  -5.2242  -4.8263  -4.5240  -4.2499  -4.0692  -3.8820
    -3.7281  -3.1128  -3.0445  -2.5017  -2.3320  -2.2478  -2.1769  -2.0841
    -2.0561  -1.9710  -1.8491  -1.7964  -1.7138  -1.6827  -1.6076  -1.5766

          k = 0.2996 0.1730-0.6221 ( 24144 PWs)   bands (ev):

   -20.8053 -20.7919 -20.5262 -20.4954 -20.3520 -20.3474 -20.0182 -20.0150
   -19.7546 -19.7354 -19.5746 -19.5681  -8.4492  -8.4244  -8.3693  -8.3406
    -8.2395  -8.1856  -8.0166  -8.0145  -7.9499  -7.8107  -7.6802  -7.6624
    -5.8759  -5.7056  -5.2046  -5.1972  -4.5292  -4.4350  -3.9178  -3.8007
    -3.2666  -3.2578  -3.0155  -2.7485  -2.4107  -2.2927  -2.1720  -2.1575
    -2.0881  -1.9886  -1.9305  -1.7952  -1.7849  -1.6687  -1.5859  -1.5743

          k =-0.1498 0.0865 0.6221 ( 24096 PWs)   bands (ev):

   -20.8617 -20.6596 -20.6261 -20.4473 -20.4202 -20.3286 -20.0297 -19.9127
   -19.8465 -19.6779 -19.6559 -19.5180  -8.4403  -8.4219  -8.3917  -8.3448
    -8.2305  -8.1575  -8.0224  -8.0139  -7.9898  -7.7526  -7.7090  -7.6694
    -5.9104  -5.5583  -5.4844  -4.9305  -4.6580  -4.4582  -3.9027  -3.6498
    -3.5039  -3.1136  -3.0053  -2.7889  -2.4055  -2.3223  -2.1543  -2.1386
    -2.0487  -2.0226  -1.9358  -1.8044  -1.7641  -1.6753  -1.6138  -1.5515

          k = 0.2996 0.3460-0.3111 ( 24118 PWs)   bands (ev):

   -20.9353 -20.6955 -20.5525 -20.5011 -20.3769 -20.2981 -20.0159 -19.8724
   -19.8476 -19.7307 -19.6440 -19.4950  -8.4497  -8.4307  -8.3935  -8.3302
    -8.2457  -8.2163  -8.1008  -8.0358  -7.9975  -7.7859  -7.7346  -7.6809
    -5.9280  -5.5321  -5.2690  -4.9867  -4.8856  -4.2512  -3.8038  -3.7139
    -3.4873  -3.2017  -2.9911  -2.6965  -2.3129  -2.2684  -2.1862  -2.1186
    -2.0532  -1.9529  -1.8969  -1.8373  -1.7260  -1.7220  -1.5994  -1.4897

          k = 0.1498 0.2595 0.0000 ( 24127 PWs)   bands (ev):

   -21.1038 -20.6090 -20.5199 -20.3615 -20.3240 -20.2166 -20.0853 -19.9922
   -19.9354 -19.7441 -19.6979 -19.3583  -8.4812  -8.4361  -8.4285  -8.3615
    -8.2631  -8.2493  -8.0451  -7.9903  -7.9477  -7.8533  -7.8031  -7.7394
    -6.2639  -5.2644  -5.1145  -4.8702  -4.8195  -4.1347  -3.9071  -3.7976
    -3.7500  -3.1666  -3.1169  -2.4173  -2.2230  -2.2030  -2.1904  -2.0712
    -2.0011  -1.9563  -1.8624  -1.8438  -1.7171  -1.6688  -1.5516  -1.5220

          k = 0.2996-0.1730-1.2442 ( 24140 PWs)   bands (ev):

   -20.9280 -20.8476 -20.5466 -20.4271 -20.3220 -20.2416 -19.9975 -19.9696
   -19.8038 -19.7938 -19.5383 -19.5300  -8.4576  -8.4181  -8.3951  -8.3341
    -8.2801  -8.2721  -8.1502  -8.0497  -7.9804  -7.8089  -7.8034  -7.7192
    -5.7142  -5.6951  -5.2258  -5.0618  -4.7670  -4.2906  -3.6951  -3.6697
    -3.4805  -3.3356  -2.9173  -2.6738  -2.2391  -2.2055  -2.1525  -2.1288
    -2.0258  -1.9590  -1.8982  -1.8071  -1.7750  -1.6858  -1.5056  -1.4988

          k = 0.0000 0.0000 0.9332 ( 24152 PWs)   bands (ev):

   -20.7803 -20.7803 -20.6463 -20.6003 -20.3191 -20.3191 -19.9045 -19.9045
   -19.7265 -19.6874 -19.6483 -19.6483  -8.4320  -8.4320  -8.4090  -8.2734
    -8.2734  -8.2631  -8.1401  -8.0443  -8.0443  -7.7012  -7.7012  -7.6692
    -5.6178  -5.6178  -5.5860  -5.0260  -4.6458  -4.6458  -3.5372  -3.5372
    -3.4985  -3.0729  -3.0729  -2.9673  -2.2620  -2.2620  -2.1390  -2.1018
    -2.0085  -2.0085  -1.9289  -1.8044  -1.8044  -1.6724  -1.6724  -1.4552

          k = 0.4494 0.2595 0.0000 ( 24129 PWs)   bands (ev):

   -20.9625 -20.7231 -20.6872 -20.4289 -20.2387 -20.2197 -20.0401 -20.0246
   -19.7930 -19.6942 -19.6522 -19.4818  -8.4446  -8.4210  -8.4114  -8.3289
    -8.2979  -8.2401  -8.1500  -8.0549  -8.0079  -7.8014  -7.7844  -7.7245
    -5.8760  -5.3820  -5.3011  -5.1733  -4.7178  -4.3011  -3.7898  -3.6922
    -3.3944  -3.1842  -3.0742  -2.6406  -2.2206  -2.2046  -2.1761  -2.1218
    -2.0313  -1.9718  -1.8821  -1.8416  -1.7458  -1.6488  -1.5647  -1.4732

          k = 0.2996 0.1730 0.3111 ( 24086 PWs)   bands (ev):

   -21.0026 -20.6123 -20.5028 -20.4834 -20.3859 -20.2780 -20.0421 -19.9727
   -19.9004 -19.7124 -19.6453 -19.4273  -8.4514  -8.4316  -8.3971  -8.3312
    -8.2534  -8.1905  -8.0533  -7.9846  -7.9347  -7.8770  -7.8109  -7.7050
    -6.0712  -5.3370  -5.2973  -4.9437  -4.7843  -4.2286  -3.9404  -3.7119
    -3.6647  -3.1237  -3.0304  -2.5331  -2.3523  -2.2568  -2.2252  -2.1402
    -2.0945  -1.9343  -1.9049  -1.8037  -1.6902  -1.6831  -1.5791  -1.5434

          k = 0.4494-0.2595-0.9332 ( 24138 PWs)   bands (ev):

   -20.8255 -20.7865 -20.6060 -20.5107 -20.3615 -20.2396 -20.0952 -19.9485
   -19.7737 -19.6797 -19.6201 -19.5160  -8.4331  -8.4068  -8.3888  -8.2952
    -8.2429  -8.2062  -8.0887  -8.0307  -7.9842  -7.8881  -7.8005  -7.7312
    -5.6802  -5.5307  -5.3488  -5.0768  -4.8267  -4.2992  -3.9631  -3.6345
    -3.3499  -3.1262  -3.0603  -2.6428  -2.3489  -2.2861  -2.2445  -2.1657
    -2.1349  -1.9880  -1.8455  -1.8198  -1.7145  -1.6638  -1.5551  -1.5143

          k = 0.2996-0.3460-0.6221 ( 24122 PWs)   bands (ev):

   -20.7500 -20.7321 -20.5826 -20.5568 -20.3906 -20.3876 -19.9862 -19.9804
   -19.7484 -19.7364 -19.5705 -19.5606  -8.4373  -8.3884  -8.3562  -8.3098
    -8.2776  -8.1094  -8.0670  -8.0370  -7.9470  -7.8512  -7.7347  -7.7175
    -5.6830  -5.6283  -5.2857  -5.2095  -4.6246  -4.5657  -3.7934  -3.6864
    -3.3177  -3.2867  -2.9813  -2.7155  -2.4248  -2.3078  -2.2504  -2.2324
    -2.1196  -1.9997  -1.8505  -1.8245  -1.7586  -1.6386  -1.6172  -1.5134

          k = 0.0000 0.0000-1.8663 ( 24090 PWs)   bands (ev):

   -20.6753 -20.6261 -20.5550 -20.5550 -20.5513 -20.5513 -19.8597 -19.8597
   -19.8263 -19.8263 -19.5590 -19.5351  -8.4305  -8.3222  -8.3222  -8.3018
    -8.3018  -8.1300  -8.0649  -8.0289  -7.9146  -7.9146  -7.7922  -7.7922
    -5.6654  -5.4578  -5.0612  -5.0612  -4.9281  -4.9281  -3.4722  -3.4722
    -3.4574  -3.4574  -2.9595  -2.6941  -2.3612  -2.3144  -2.3144  -2.2908
    -2.2908  -1.9369  -1.8588  -1.7361  -1.7361  -1.6583  -1.6583  -1.4634

          k = 0.2996-0.3460 0.3111 ( 24118 PWs)   bands (ev):

   -20.9357 -20.6911 -20.5651 -20.4939 -20.3757 -20.2962 -20.0147 -19.8854
   -19.8421 -19.7268 -19.6407 -19.4975  -8.4476  -8.4251  -8.4008  -8.3055
    -8.2664  -8.2249  -8.1153  -8.0243  -7.9937  -7.7747  -7.7287  -7.6951
    -5.9319  -5.4804  -5.3661  -4.9539  -4.8068  -4.3407  -3.9324  -3.5240
    -3.4044  -3.2265  -3.1351  -2.6448  -2.3287  -2.2432  -2.1659  -2.1130
    -2.0696  -1.9681  -1.8986  -1.8572  -1.7453  -1.6752  -1.6023  -1.4961

     highest occupied level (ev):    -1.4552

!    total energy              =    -417.79158207 Ry
     estimated scf accuracy    <       0.00000004 Ry

     The total energy is the sum of the following terms:
     one-electron contribution =    -268.76204906 Ry
     hartree contribution      =     173.04099800 Ry
     xc contribution           =    -107.88158869 Ry
     ewald contribution        =    -214.18894233 Ry

     convergence has been achieved in  12 iterations

     Forces acting on atoms (cartesian axes, Ry/au):

     atom    1 type  2   force =     0.03551939   -0.12565616   -0.07123343
     atom    2 type  2   force =    -0.03551939    0.12565616    0.07123343
     atom    3 type  2   force =     0.09106173    0.09358877   -0.07123343
     atom    4 type  2   force =    -0.09106173   -0.09358877    0.07123343
     atom    5 type  2   force =    -0.12658112    0.03206738   -0.07123343
     atom    6 type  2   force =     0.12658112   -0.03206738    0.07123343
     atom    7 type  2   force =     0.10025640   -0.07656972    0.06016221
     atom    8 type  2   force =    -0.10025640    0.07656972   -0.06016221
     atom    9 type  2   force =     0.01618312    0.12510945    0.06016221
     atom   10 type  2   force =    -0.01618312   -0.12510945   -0.06016221
     atom   11 type  2   force =    -0.11643953   -0.04853973    0.06016221
     atom   12 type  2   force =     0.11643953    0.04853973   -0.06016221
     atom   13 type  1   force =    -0.05500939    0.10163694   -0.05614820
     atom   14 type  1   force =     0.05500939   -0.10163694    0.05614820
     atom   15 type  1   force =    -0.06051548   -0.09845799   -0.05614820
     atom   16 type  1   force =     0.06051548    0.09845799    0.05614820
     atom   17 type  1   force =     0.11552486   -0.00317894   -0.05614820
     atom   18 type  1   force =    -0.11552486    0.00317894    0.05614820
     atom   19 type  1   force =     0.02423165    0.02345790    0.12618437
     atom   20 type  1   force =    -0.02423165   -0.02345790   -0.12618437
     atom   21 type  1   force =    -0.03243096    0.00925627    0.12618437
     atom   22 type  1   force =     0.03243096   -0.00925627   -0.12618437
     atom   23 type  1   force =     0.00819932   -0.03271417    0.12618437
     atom   24 type  1   force =    -0.00819932    0.03271417   -0.12618437
     atom   25 type  1   force =     0.03741622    0.12292095    0.00197184
     atom   26 type  1   force =    -0.03741622   -0.12292095   -0.00197184
     atom   27 type  1   force =    -0.12516078   -0.02905708    0.00197184
     atom   28 type  1   force =     0.12516078    0.02905708   -0.00197184
     atom   29 type  1   force =     0.08774456   -0.09386387    0.00197184
     atom   30 type  1   force =    -0.08774456    0.09386387   -0.00197184
     atom   31 type  1   force =     0.08281847   -0.07671419   -0.06705102
     atom   32 type  1   force =    -0.08281847    0.07671419    0.06705102
     atom   33 type  1   force =     0.02502720    0.11007999   -0.06705102
     atom   34 type  1   force =    -0.02502720   -0.11007999    0.06705102
     atom   35 type  1   force =    -0.10784567   -0.03336580   -0.06705102
     atom   36 type  1   force =     0.10784567    0.03336580    0.06705102

     Total force =     0.808632     Total SCF correction =     0.000110


     Computing stress (Cartesian axis) and pressure

          total   stress  (Ry/bohr**3)                   (kbar)     P=      238.57
   0.00163350   0.00000000   0.00000000          240.30        0.00        0.00
  -0.00000000   0.00163350   0.00000000           -0.00      240.30        0.00
   0.00000000   0.00000000   0.00159825            0.00        0.00      235.11


     Writing all to output data dir ./iceII/iceII.save/ :
     XML data file, charge density, pseudopotentials, collected wavefunctions

     init_run     :      2.44s CPU      2.54s WALL (       1 calls)
     electrons    :     10.68s CPU     10.99s WALL (       1 calls)
     forces       :      0.09s CPU      0.11s WALL (       1 calls)
     stress       :      0.83s CPU      0.86s WALL (       1 calls)

     Called by init_run:
     wfcinit      :      0.32s CPU      0.33s WALL (       1 calls)
     potinit      :      1.61s CPU      1.66s WALL (       1 calls)
     hinit0       :      0.39s CPU      0.40s WALL (       1 calls)

     Called by electrons:
     c_bands      :      8.12s CPU      8.21s WALL (      12 calls)
     sum_band     :      1.15s CPU      1.18s WALL (      12 calls)
     v_of_rho     :      2.88s CPU      3.09s WALL (      13 calls)
     newd         :      0.05s CPU      0.05s WALL (      13 calls)
     mix_rho      :      0.03s CPU      0.03s WALL (      12 calls)
     vdW_kernel   :      1.50s CPU      1.52s WALL (       1 calls)

     Called by c_bands:
     init_us_2    :      0.11s CPU      0.12s WALL (     108 calls)
     cegterg      :      7.85s CPU      7.92s WALL (      48 calls)

     Called by *egterg:
     cdiaghg      :      0.67s CPU      0.68s WALL (     178 calls)
     h_psi        :      6.29s CPU      6.35s WALL (     182 calls)
     s_psi        :      0.23s CPU      0.23s WALL (     182 calls)
     g_psi        :      0.01s CPU      0.01s WALL (     130 calls)

     Called by h_psi:
     h_psi:calbec :      0.41s CPU      0.41s WALL (     182 calls)
     vloc_psi     :      5.60s CPU      5.66s WALL (     182 calls)
     add_vuspsi   :      0.25s CPU      0.25s WALL (     182 calls)

     General routines
     calbec       :      0.54s CPU      0.54s WALL (     250 calls)
     fft          :      1.03s CPU      1.07s WALL (     845 calls)
     ffts         :      0.01s CPU      0.01s WALL (      12 calls)
     fftw         :      5.86s CPU      5.92s WALL (   16660 calls)

     Parallel routines

     PWSCF        :     14.30s CPU     15.15s WALL


   This run was terminated on:  14:42:35  26Mar2026            

=------------------------------------------------------------------------------=
   JOB DONE.
=------------------------------------------------------------------------------=
