
     Program PWSCF v.7.3.1 starts on  1Apr2026 at 13:53: 2 

     This program is part of the open-source Quantum ESPRESSO suite
     for quantum simulation of materials; please cite
         "P. Giannozzi et al., J. Phys.:Condens. Matter 21 395502 (2009);
         "P. Giannozzi et al., J. Phys.:Condens. Matter 29 465901 (2017);
         "P. Giannozzi et al., J. Chem. Phys. 152 154105 (2020);
          URL http://www.quantum-espresso.org", 
     in publications or presentations arising from this work. More details at
     http://www.quantum-espresso.org/quote

     Parallel version (MPI), running on   128 processors

     MPI processes distributed on     1 nodes
     242883 MiB available memory on the printing compute node when the environment starts

     Waiting for input...
     Reading input from standard input

     Current dimensions of program PWSCF are:
     Max number of different atomic species (ntypx) = 10
     Max number of k-points (npk) =  40000
     Max angular momentum in pseudopotentials (lmaxx) =  4

     IMPORTANT: XC functional enforced from input :
     Exchange-correlation= VDW-DF2
                           (   1   4  13   0   2   0   0)
     Any further DFT definition will be discarded
     Please, verify this is what you really want


     K-points division:     npool     =       4
     R & G space division:  proc/nbgrp/npool/nimage =      32
     Subspace diagonalization in iterative solution of the eigenvalue problem:
     a serial algorithm will be used


     Parallelization info
     --------------------
     sticks:   dense  smooth     PW     G-vecs:    dense   smooth      PW
     Min         156     156     46                 6089     6089     982
     Max         157     157     47                 6092     6092     985
     Sum        5001    5001   1477               194891   194891   31483

     Using Slab Decomposition



     bravais-lattice index     =            5
     lattice parameter (alat)  =      13.7758  a.u.
     unit-cell volume          =    1689.0654 (a.u.)^3
     number of atoms/cell      =           36
     number of atomic types    =            2
     number of electrons       =        96.00
     number of Kohn-Sham states=           48
     kinetic-energy cutoff     =      90.0000  Ry
     charge density cutoff     =     360.0000  Ry
     scf convergence threshold =      1.0E-07
     mixing beta               =       0.7000
     number of iterations used =            8  plain     mixing
     energy convergence thresh.=      1.0E-04
     force convergence thresh. =      1.0E-03
     Exchange-correlation= VDW-DF2
                           (   1   4  13   0   2   0   0)
     nstep                     =           50


     celldm(1)=  13.775838  celldm(2)=   0.000000  celldm(3)=   0.000000
     celldm(4)=  -0.392337  celldm(5)=   0.000000  celldm(6)=   0.000000

     crystal axes: (cart. coord. in units of alat)
               a(1) = (   0.834367  -0.481722   0.267909 )  
               a(2) = (   0.000000   0.963444   0.267909 )  
               a(3) = (  -0.834367  -0.481722   0.267909 )  

     reciprocal axes: (cart. coord. in units 2 pi/alat)
               b(1) = (  0.599257 -0.345981  1.244203 )  
               b(2) = (  0.000000  0.691962  1.244203 )  
               b(3) = ( -0.599257 -0.345981  1.244203 )  


     PseudoPot. # 1 for H  read from file:
     ./H.pbe-van_ak.UPF
     MD5 check sum: 077eb6d537518a38cb46c6de387227b7
     Pseudo is Ultrasoft, Zval =  1.0
     Generated by new atomic code, or converted to UPF format
     Using radial grid of  615 points,  1 beta functions with: 
                l(1) =   0
     Q(r) pseudized with  8 coefficients,  rinner =    0.800

     PseudoPot. # 2 for O  read from file:
     ./O.pbe-van_ak.UPF
     MD5 check sum: 78c19812648e8988a0fe644b0f25305e
     Pseudo is Ultrasoft, Zval =  6.0
     Generated by new atomic code, or converted to UPF format
     Using radial grid of  737 points,  4 beta functions with: 
                l(1) =   0
                l(2) =   0
                l(3) =   1
                l(4) =   1
     Q(r) pseudized with  8 coefficients,  rinner =    0.800   0.800   0.800


     atomic species   valence    mass     pseudopotential
     H                 1.00     1.00800     H ( 1.00)
     O                 6.00    16.00000     O ( 1.00)

      6 Sym. Ops., with inversion, found



   Cartesian axes

     site n.     atom                  positions (alat units)
         1        O      tau(   1) = (  -0.4847673  -0.5197781   0.3083633  )
         2        O      tau(   2) = (   0.4847673   0.5197782   0.4953638  )
         3        O      tau(   3) = (   0.6925247  -0.1599317   0.3083633  )
         4        O      tau(   4) = (  -0.6925248   0.1599317   0.4953638  )
         5        O      tau(   5) = (  -0.2077574   0.6797099   0.3083633  )
         6        O      tau(   6) = (   0.2077574  -0.6797099   0.4953638  )
         7        O      tau(   7) = (   0.1218176   0.3323883   0.4179381  )
         8        O      tau(   8) = (  -0.1218176  -0.3323883   0.3857890  )
         9        O      tau(   9) = (  -0.3487655  -0.0606970   0.4179381  )
        10        O      tau(  10) = (   0.3487655   0.0606970   0.3857890  )
        11        O      tau(  11) = (   0.2269479  -0.2716913   0.4179381  )
        12        O      tau(  12) = (  -0.2269479   0.2716912   0.3857890  )
        13        H      tau(  13) = (  -0.5381668  -0.4032014   0.2796970  )
        14        H      tau(  14) = (   0.5381668   0.4032014   0.5240301  )
        15        H      tau(  15) = (   0.6182661  -0.2644654   0.2796970  )
        16        H      tau(  16) = (  -0.6182661   0.2644654   0.5240301  )
        17        H      tau(  17) = (  -0.0800993   0.6676668   0.2796970  )
        18        H      tau(  18) = (   0.0800993  -0.6676668   0.5240301  )
        19        H      tau(  19) = (  -0.4872704  -0.4817221   0.4326731  )
        20        H      tau(  20) = (   0.4872704   0.4817221   0.3710540  )
        21        H      tau(  21) = (   0.6608188  -0.1811275   0.4326731  )
        22        H      tau(  22) = (  -0.6608188   0.1811275   0.3710540  )
        23        H      tau(  23) = (  -0.1735484   0.6628496   0.4326731  )
        24        H      tau(  24) = (   0.1735484  -0.6628496   0.3710540  )
        25        H      tau(  25) = (   0.2703349  -0.1502973   0.4058822  )
        26        H      tau(  26) = (  -0.2703350   0.1502973   0.3978449  )
        27        H      tau(  27) = (  -0.0050062   0.3092656   0.4058822  )
        28        H      tau(  28) = (   0.0050062  -0.3092656   0.3978449  )
        29        H      tau(  29) = (  -0.2653287  -0.1589683   0.4058822  )
        30        H      tau(  30) = (   0.2653287   0.1589683   0.3978449  )
        31        H      tau(  31) = (   0.3178939  -0.3347969   0.3493534  )
        32        H      tau(  32) = (  -0.3178939   0.3347969   0.4543737  )
        33        H      tau(  33) = (   0.1309957   0.4427026   0.3493534  )
        34        H      tau(  34) = (  -0.1309956  -0.4427026   0.4543737  )
        35        H      tau(  35) = (  -0.4488895  -0.1079057   0.3493534  )
        36        H      tau(  36) = (   0.4488895   0.1079057   0.4543737  )

     number of k points=    14
                       cart. coord. in units 2pi/alat
        k(    1) = (   0.0000000   0.0000000   0.0000000), wk =   0.0312500
        k(    2) = (  -0.1498141  -0.0864952   0.3110508), wk =   0.1875000
        k(    3) = (   0.2996283   0.1729905  -0.6221017), wk =   0.0937500
        k(    4) = (  -0.1498141   0.0864952   0.6221017), wk =   0.1875000
        k(    5) = (   0.2996283   0.3459809  -0.3110508), wk =   0.1875000
        k(    6) = (   0.1498141   0.2594857   0.0000000), wk =   0.1875000
        k(    7) = (   0.2996283  -0.1729905  -1.2442034), wk =   0.0937500
        k(    8) = (   0.0000000   0.0000000   0.9331525), wk =   0.0625000
        k(    9) = (   0.4494424   0.2594857   0.0000000), wk =   0.1875000
        k(   10) = (   0.2996283   0.1729905   0.3110508), wk =   0.1875000
        k(   11) = (   0.4494424  -0.2594857  -0.9331525), wk =   0.1875000
        k(   12) = (   0.2996283  -0.3459809  -0.6221017), wk =   0.1875000
        k(   13) = (   0.0000000   0.0000000  -1.8663050), wk =   0.0312500
        k(   14) = (   0.2996283  -0.3459809   0.3110508), wk =   0.1875000

     Dense  grid:   194891 G-vectors     FFT dimensions: (  90,  90,  90)

     Estimated max dynamical RAM per process >      13.29 MB

     Estimated total dynamical RAM >       1.52 GB

     Initial potential from superposition of free atoms

     starting charge      95.9998, renormalised to      96.0000


     %%%%%%%%%%%%%%%%%%%%%%%%%%%%%%%%%%%%%%%%%%%%%%%%%%%%%%%%%%%%%%%%%%%%%%%%
     %                                                                      %
     % You are using vdW-DF, which was implemented by the Thonhauser group. %
     % Please cite the following two papers that made this development      %
     % possible and the two reviews that describe the various versions:     %
     %                                                                      %
     %   T. Thonhauser et al., PRL 115, 136402 (2015).                      %
     %   T. Thonhauser et al., PRB 76, 125112 (2007).                       %
     %   K. Berland et al., Rep. Prog. Phys. 78, 066501 (2015).             %
     %   D.C. Langreth et al., J. Phys.: Condens. Matter 21, 084203 (2009). %
     %                                                                      %
     % If you are calculating stress with vdW-DF, please also cite:         %
     %                                                                      %
     %   R. Sabatini et al., J. Phys.: Condens. Matter 24, 424209 (2012).   %
     %                                                                      %
     %%%%%%%%%%%%%%%%%%%%%%%%%%%%%%%%%%%%%%%%%%%%%%%%%%%%%%%%%%%%%%%%%%%%%%%%

     %%%%%%%%%%%%%%%%%%%%%%%%%%%%%%%%%%%%%%%%%%%%%%%%%%%%%%%%%%%%%%%%%%%%%%%%
     %                                                                      %
     %  vdW-DF NEWS:                                                        %
     %                                                                      %
     %  * vdW-DF3 is now available. DOI: 10.1021/acs.jctc.0c00471           %
     %    use with input_dft = 'vdW-DF3-opt1' or 'vdW-DF3-opt2'             %
     %                                                                      %
     %  * Unscreened and range-separated hybrid vdW-DF-cx functionals       %
     %    DOI: 10.1063/1.4986522 and 10.1088/1361-648X/ac2ad2               %
     %    use with input_dft = 'vdW-DF-cx0'    and 'vdW-DF-ahcx'            %
     %  * Unscreened and range-separated hybrid vdW-DF2-b86r functionals    %
     %    DOI: 10.1063/1.4986522 and DOI: 10.1103/PhysRevX.12.041003        %
     %    use with input_dft = 'vdW-DF2-br0' and 'vdW-DF2-ahbr'             %
     %                                                                      %
     %%%%%%%%%%%%%%%%%%%%%%%%%%%%%%%%%%%%%%%%%%%%%%%%%%%%%%%%%%%%%%%%%%%%%%%%


     Starting wfcs are   72 randomized atomic wfcs

     total cpu time spent up to now is        2.7 secs

     per-process dynamical memory:    18.2 Mb

     Self-consistent Calculation

     iteration #  1     ecut=    90.00 Ry     beta= 0.70
     Davidson diagonalization with overlap
     ethr =  1.00E-02,  avg # of iterations =  2.0

     total cpu time spent up to now is        3.6 secs

     total energy              =    -415.64223500 Ry
     estimated scf accuracy    <       4.97726880 Ry

     iteration #  2     ecut=    90.00 Ry     beta= 0.70
     Davidson diagonalization with overlap
     ethr =  5.18E-03,  avg # of iterations =  3.0

     total cpu time spent up to now is        4.7 secs

     total energy              =    -417.33005055 Ry
     estimated scf accuracy    <       2.63618570 Ry

     iteration #  3     ecut=    90.00 Ry     beta= 0.70
     Davidson diagonalization with overlap
     ethr =  2.75E-03,  avg # of iterations =  2.0

     total cpu time spent up to now is        5.5 secs

     total energy              =    -417.66768436 Ry
     estimated scf accuracy    <       0.10834457 Ry

     iteration #  4     ecut=    90.00 Ry     beta= 0.70
     Davidson diagonalization with overlap
     ethr =  1.13E-04,  avg # of iterations =  4.0

     total cpu time spent up to now is        6.6 secs

     total energy              =    -417.74515042 Ry
     estimated scf accuracy    <       0.13368746 Ry

     iteration #  5     ecut=    90.00 Ry     beta= 0.70
     Davidson diagonalization with overlap
     ethr =  1.13E-04,  avg # of iterations =  2.0

     total cpu time spent up to now is        7.4 secs

     total energy              =    -417.75062459 Ry
     estimated scf accuracy    <       0.02001186 Ry

     iteration #  6     ecut=    90.00 Ry     beta= 0.70
     Davidson diagonalization with overlap
     ethr =  2.08E-05,  avg # of iterations =  2.0

     total cpu time spent up to now is        8.2 secs

     total energy              =    -417.75186399 Ry
     estimated scf accuracy    <       0.00388170 Ry

     iteration #  7     ecut=    90.00 Ry     beta= 0.70
     Davidson diagonalization with overlap
     ethr =  4.04E-06,  avg # of iterations =  2.4

     total cpu time spent up to now is        9.1 secs

     total energy              =    -417.75305707 Ry
     estimated scf accuracy    <       0.00002199 Ry

     iteration #  8     ecut=    90.00 Ry     beta= 0.70
     Davidson diagonalization with overlap
     ethr =  2.29E-08,  avg # of iterations =  5.5

     total cpu time spent up to now is       10.6 secs

     total energy              =    -417.75310512 Ry
     estimated scf accuracy    <       0.00018457 Ry

     iteration #  9     ecut=    90.00 Ry     beta= 0.70
     Davidson diagonalization with overlap
     ethr =  2.29E-08,  avg # of iterations =  3.0

     total cpu time spent up to now is       11.5 secs

     total energy              =    -417.75309446 Ry
     estimated scf accuracy    <       0.00004890 Ry

     iteration # 10     ecut=    90.00 Ry     beta= 0.70
     Davidson diagonalization with overlap
     ethr =  2.29E-08,  avg # of iterations =  3.0

     total cpu time spent up to now is       12.5 secs

     total energy              =    -417.75310143 Ry
     estimated scf accuracy    <       0.00000299 Ry

     iteration # 11     ecut=    90.00 Ry     beta= 0.70
     Davidson diagonalization with overlap
     ethr =  3.11E-09,  avg # of iterations =  3.0

     total cpu time spent up to now is       13.4 secs

     total energy              =    -417.75310215 Ry
     estimated scf accuracy    <       0.00000022 Ry

     iteration # 12     ecut=    90.00 Ry     beta= 0.70
     Davidson diagonalization with overlap
     ethr =  2.33E-10,  avg # of iterations =  4.0

     total cpu time spent up to now is       14.4 secs

     total energy              =    -417.75310230 Ry
     estimated scf accuracy    <       0.00000013 Ry

     iteration # 13     ecut=    90.00 Ry     beta= 0.70
     Davidson diagonalization with overlap
     ethr =  1.40E-10,  avg # of iterations =  2.0

     total cpu time spent up to now is       15.2 secs

     End of self-consistent calculation

          k = 0.0000 0.0000 0.0000 ( 24335 PWs)   bands (ev):

   -21.1890 -20.5184 -20.5184 -20.2059 -20.2059 -20.1836 -20.1836 -20.1513
   -20.1365 -19.7124 -19.7124 -19.2711  -8.2853  -8.0366  -7.9851  -7.9851
    -7.8226  -7.8226  -7.3809  -7.2145  -7.2145  -6.9819  -6.9819  -6.7874
    -6.7433  -5.5669  -5.5669  -4.8264  -4.8264  -4.7531  -4.7531  -4.4116
    -4.1387  -3.4237  -3.4237  -2.7050  -2.2486  -2.2486  -2.1203  -2.0247
    -1.9576  -1.9576  -1.7984  -1.7984  -1.7293  -1.7111  -1.6423  -1.6423

          k =-0.1498-0.0865 0.3111 ( 24345 PWs)   bands (ev):

   -21.0836 -20.5743 -20.5020 -20.4111 -20.3857 -20.2791 -20.0738 -20.0163
   -19.9355 -19.7238 -19.6636 -19.3558  -8.2139  -8.1116  -8.0220  -7.9598
    -7.8086  -7.7365  -7.4074  -7.1990  -7.1556  -7.0202  -6.8407  -6.8051
    -6.5259  -5.7429  -5.5692  -5.2501  -4.8607  -4.6791  -4.5386  -4.2560
    -4.1886  -3.4135  -3.3426  -2.8480  -2.4194  -2.3225  -2.1592  -2.0816
    -2.0094  -1.9528  -1.9031  -1.8323  -1.7342  -1.6944  -1.6344  -1.5761

          k = 0.2996 0.1730-0.6221 ( 24380 PWs)   bands (ev):

   -20.8156 -20.7966 -20.5598 -20.5141 -20.3873 -20.3709 -20.0042 -19.9769
   -19.7435 -19.7255 -19.5851 -19.5407  -8.1652  -8.1062  -8.0143  -7.9688
    -7.8253  -7.7410  -7.3515  -7.1982  -7.1342  -7.0310  -6.7263  -6.7232
    -6.1941  -6.0277  -5.6228  -5.4645  -4.8606  -4.7634  -4.5157  -4.3385
    -3.6854  -3.6099  -3.2703  -3.0365  -2.5723  -2.3613  -2.1870  -2.1665
    -2.0662  -2.0248  -1.9133  -1.8279  -1.8193  -1.6461  -1.6198  -1.5198

          k =-0.1498 0.0865 0.6221 ( 24364 PWs)   bands (ev):

   -20.8674 -20.6713 -20.6475 -20.4742 -20.4468 -20.3572 -20.0061 -19.8902
   -19.8361 -19.6695 -19.6454 -19.5086  -8.1771  -8.0769  -8.0604  -7.9313
    -7.8377  -7.7177  -7.3462  -7.2616  -7.1840  -6.8804  -6.7918  -6.7203
    -6.2025  -5.9408  -5.8136  -5.2469  -5.0229  -4.8108  -4.4288  -4.1932
    -3.9593  -3.3885  -3.3282  -3.0661  -2.5406  -2.4208  -2.1807  -2.1075
    -2.0707  -2.0089  -1.9441  -1.8410  -1.8011  -1.6555  -1.6292  -1.5108

          k = 0.2996 0.3460-0.3111 ( 24347 PWs)   bands (ev):

   -20.9461 -20.7191 -20.5496 -20.5349 -20.3924 -20.3127 -20.0012 -19.8692
   -19.8484 -19.7173 -19.6366 -19.4753  -8.1934  -8.1600  -7.9781  -7.9465
    -7.8670  -7.7473  -7.4164  -7.3393  -7.1758  -6.8406  -6.8082  -6.7040
    -6.3582  -5.9671  -5.6796  -5.2772  -5.2202  -4.5866  -4.3972  -4.0833
    -3.8117  -3.5666  -3.3243  -3.0206  -2.4000  -2.3168  -2.2026  -2.1192
    -2.0336  -1.9625  -1.8987  -1.8704  -1.7559  -1.7127  -1.6285  -1.4876

          k = 0.1498 0.2595 0.0000 ( 24331 PWs)   bands (ev):

   -21.1137 -20.6369 -20.5527 -20.3588 -20.3227 -20.2079 -20.1037 -19.9975
   -19.9467 -19.7309 -19.6764 -19.3389  -8.2605  -8.1330  -8.0091  -7.9441
    -7.7922  -7.7788  -7.5085  -7.3186  -7.0808  -6.9828  -6.8758  -6.7336
    -6.6952  -5.7002  -5.5327  -5.2502  -5.1299  -4.5390  -4.3582  -4.2463
    -4.0017  -3.5037  -3.4127  -2.7814  -2.2544  -2.2196  -2.1703  -2.0777
    -2.0191  -1.9804  -1.8228  -1.7959  -1.7568  -1.7328  -1.5954  -1.5738

          k = 0.2996-0.1730-1.2442 ( 24374 PWs)   bands (ev):

   -20.9351 -20.8724 -20.5808 -20.4213 -20.3287 -20.2283 -20.0308 -19.9637
   -19.8201 -19.7777 -19.5256 -19.5007  -8.2333  -8.1794  -8.0020  -7.9691
    -7.7749  -7.7522  -7.5344  -7.4263  -7.0778  -7.0086  -6.7773  -6.7151
    -6.2320  -6.1936  -5.6202  -5.3954  -5.0256  -4.6694  -4.1906  -3.9259
    -3.8013  -3.7797  -3.2358  -3.0150  -2.2841  -2.2054  -2.1667  -2.1373
    -2.0283  -1.9204  -1.9189  -1.8092  -1.8059  -1.7253  -1.5455  -1.5331

          k = 0.0000 0.0000 0.9332 ( 24374 PWs)   bands (ev):

   -20.7933 -20.7933 -20.6808 -20.5947 -20.3383 -20.3383 -19.8966 -19.8966
   -19.7437 -19.6547 -19.6364 -19.6364  -8.1592  -8.1592  -7.9892  -7.8904
    -7.8610  -7.8610  -7.4282  -7.2987  -7.2987  -6.7219  -6.7219  -6.6681
    -6.1003  -6.1003  -6.0923  -5.2954  -4.9160  -4.9160  -4.1470  -3.9294
    -3.9294  -3.4007  -3.4007  -3.2490  -2.3220  -2.3220  -2.1824  -2.0642
    -2.0020  -2.0020  -1.9136  -1.8466  -1.8466  -1.6914  -1.6914  -1.4561

          k = 0.4494 0.2595 0.0000 ( 24371 PWs)   bands (ev):

   -20.9740 -20.7381 -20.7201 -20.4203 -20.2518 -20.2183 -20.0492 -20.0269
   -19.8209 -19.6783 -19.6271 -19.4602  -8.2224  -8.1694  -8.0759  -7.8880
    -7.8151  -7.7451  -7.5488  -7.3606  -7.2029  -6.8732  -6.7982  -6.7482
    -6.3751  -5.9116  -5.8139  -5.3409  -5.0171  -4.6749  -4.1302  -4.0939
    -3.8481  -3.5204  -3.3771  -2.9873  -2.2546  -2.2433  -2.1502  -2.1399
    -2.0390  -1.9563  -1.8729  -1.8396  -1.7621  -1.6950  -1.6145  -1.5088

          k = 0.2996 0.1730 0.3111 ( 24340 PWs)   bands (ev):

   -21.0126 -20.6444 -20.5251 -20.4944 -20.3836 -20.2991 -20.0238 -19.9923
   -19.8772 -19.7139 -19.6273 -19.4090  -8.2191  -8.1475  -8.0481  -7.8917
    -7.8615  -7.6689  -7.4630  -7.2849  -7.0674  -6.9785  -6.9063  -6.7743
    -6.3951  -5.7281  -5.5228  -5.4215  -5.1787  -4.7131  -4.3610  -4.1113
    -3.9639  -3.4740  -3.3487  -2.8785  -2.4265  -2.3443  -2.2311  -2.1726
    -2.0348  -1.9844  -1.8782  -1.8259  -1.7125  -1.6666  -1.5851  -1.5699

          k = 0.4494-0.2595-0.9332 ( 24354 PWs)   bands (ev):

   -20.8328 -20.8139 -20.6277 -20.5192 -20.3642 -20.2619 -20.0781 -19.9625
   -19.7542 -19.6881 -19.6092 -19.4889  -8.2490  -8.1283  -8.0783  -7.8887
    -7.8308  -7.6505  -7.5319  -7.2545  -7.0953  -7.0267  -6.8287  -6.7794
    -6.0497  -5.9999  -5.6024  -5.4555  -5.2260  -4.8242  -4.2981  -3.9754
    -3.6532  -3.5624  -3.3829  -2.9703  -2.4105  -2.3690  -2.3224  -2.1754
    -2.1282  -2.0143  -1.8077  -1.7763  -1.7249  -1.6810  -1.5878  -1.5222

          k = 0.2996-0.3460-0.6221 ( 24354 PWs)   bands (ev):

   -20.7658 -20.7388 -20.6055 -20.5751 -20.4150 -20.4075 -19.9758 -19.9576
   -19.7431 -19.7260 -19.5802 -19.5277  -8.2619  -8.0272  -7.9932  -7.9585
    -7.9106  -7.6493  -7.3813  -7.2770  -7.0505  -7.0031  -6.7907  -6.7836
    -6.0065  -5.8623  -5.6545  -5.5260  -5.1239  -5.0733  -4.2033  -4.1201
    -3.6608  -3.6195  -3.3620  -2.9520  -2.6098  -2.3977  -2.3149  -2.2283
    -2.1434  -1.9647  -1.8745  -1.8155  -1.7777  -1.6257  -1.6007  -1.4963

          k = 0.0000 0.0000-1.8663 ( 24294 PWs)   bands (ev):

   -20.7092 -20.6472 -20.5714 -20.5714 -20.5514 -20.5514 -19.8741 -19.8741
   -19.7992 -19.7992 -19.5579 -19.5094  -8.3229  -7.9633  -7.9633  -7.9573
    -7.9573  -7.6248  -7.4342  -7.2880  -6.9318  -6.9318  -6.8974  -6.8974
    -5.7706  -5.6266  -5.5315  -5.5315  -5.4725  -5.4725  -3.9273  -3.9273
    -3.7148  -3.7148  -3.3611  -2.8911  -2.6469  -2.4075  -2.4075  -2.2852
    -2.2852  -1.8905  -1.8773  -1.7204  -1.7204  -1.6436  -1.6436  -1.4610

          k = 0.2996-0.3460 0.3111 ( 24347 PWs)   bands (ev):

   -20.9465 -20.7139 -20.5760 -20.5158 -20.3878 -20.3118 -20.0061 -19.8926
   -19.8055 -19.7465 -19.6212 -19.4791  -8.2130  -8.1196  -8.0158  -7.9327
    -7.8498  -7.7513  -7.4804  -7.2945  -7.1520  -6.8893  -6.7612  -6.7294
    -6.3417  -5.8835  -5.8058  -5.3165  -5.0671  -4.6696  -4.4837  -3.9702
    -3.7722  -3.5548  -3.4332  -2.9802  -2.4152  -2.2746  -2.2180  -2.1132
    -2.0544  -1.9672  -1.9038  -1.8656  -1.7782  -1.6725  -1.6282  -1.4992

     highest occupied level (ev):    -1.4561

!    total energy              =    -417.75310231 Ry
     estimated scf accuracy    <       0.00000001 Ry

     The total energy is the sum of the following terms:
     one-electron contribution =    -267.53016809 Ry
     hartree contribution      =     172.32312467 Ry
     xc contribution           =    -107.45044289 Ry
     ewald contribution        =    -215.09561599 Ry

     convergence has been achieved in  13 iterations

     Forces acting on atoms (cartesian axes, Ry/au):

     atom    1 type  2   force =     0.00779170   -0.04012078   -0.04078962
     atom    2 type  2   force =    -0.00779170    0.04012078    0.04078962
     atom    3 type  2   force =     0.03084976    0.02680820   -0.04078962
     atom    4 type  2   force =    -0.03084976   -0.02680820    0.04078962
     atom    5 type  2   force =    -0.03864146    0.01331258   -0.04078962
     atom    6 type  2   force =     0.03864146   -0.01331258    0.04078962
     atom    7 type  2   force =     0.05535314   -0.03129396    0.03006880
     atom    8 type  2   force =    -0.05535314    0.03129396   -0.03006880
     atom    9 type  2   force =    -0.00057520    0.06358420    0.03006880
     atom   10 type  2   force =     0.00057520   -0.06358420   -0.03006880
     atom   11 type  2   force =    -0.05477793   -0.03229024    0.03006880
     atom   12 type  2   force =     0.05477793    0.03229024   -0.03006880
     atom   13 type  1   force =    -0.03726870    0.05891414   -0.08870982
     atom   14 type  1   force =     0.03726870   -0.05891414    0.08870982
     atom   15 type  1   force =    -0.03238679   -0.06173271   -0.08870982
     atom   16 type  1   force =     0.03238679    0.06173271    0.08870982
     atom   17 type  1   force =     0.06965549    0.00281857   -0.08870982
     atom   18 type  1   force =    -0.06965549   -0.00281857    0.08870982
     atom   19 type  1   force =     0.03493035   -0.02692160    0.11582274
     atom   20 type  1   force =    -0.03493035    0.02692160   -0.11582274
     atom   21 type  1   force =     0.00584961    0.04371137    0.11582274
     atom   22 type  1   force =    -0.00584961   -0.04371137   -0.11582274
     atom   23 type  1   force =    -0.04077996   -0.01678977    0.11582274
     atom   24 type  1   force =     0.04077996    0.01678977   -0.11582274
     atom   25 type  1   force =     0.01477416    0.09988513    0.00793746
     atom   26 type  1   force =    -0.01477416   -0.09988513   -0.00793746
     atom   27 type  1   force =    -0.09389014   -0.03714777    0.00793746
     atom   28 type  1   force =     0.09389014    0.03714777   -0.00793746
     atom   29 type  1   force =     0.07911598   -0.06273737    0.00793746
     atom   30 type  1   force =    -0.07911598    0.06273737   -0.00793746
     atom   31 type  1   force =     0.04045297   -0.06939976   -0.03835981
     atom   32 type  1   force =    -0.04045297    0.06939976    0.03835981
     atom   33 type  1   force =     0.03987547    0.06973317   -0.03835981
     atom   34 type  1   force =    -0.03987547   -0.06973317    0.03835981
     atom   35 type  1   force =    -0.08032843   -0.00033342   -0.03835981
     atom   36 type  1   force =     0.08032843    0.00033342    0.03835981

     Total force =     0.572118     Total SCF correction =     0.000120


     Computing stress (Cartesian axis) and pressure

          total   stress  (Ry/bohr**3)                   (kbar)     P=      191.21
   0.00124236   0.00000000   0.00000000          182.76        0.00        0.00
  -0.00000000   0.00124236   0.00000000           -0.00      182.76        0.00
  -0.00000000   0.00000000   0.00141474           -0.00        0.00      208.12


     BFGS Geometry Optimization
     Energy error            =      0.0E+00 Ry
     Gradient error          =      1.2E-01 Ry/Bohr

     number of scf cycles    =   1
     number of bfgs steps    =   0

     energy             new  =    -417.7531023075 Ry

     new trust radius        =       0.1239346940 bohr
     new conv_thr            =       0.0000001000 Ry


ATOMIC_POSITIONS (crystal)
O                0.2706625520        0.0183006998        0.8509846351
O                0.7293374480        0.9816993112        0.1490153349
O                0.8509846351        0.2706625520        0.0183006998
O                0.1490153349        0.7293374480        0.9816993112
O                0.0183006998        0.8509846351        0.2706625520
O                0.9816993112        0.1490153349        0.7293374480
O                0.4839095748        0.7511438490        0.3330937927
O                0.5160904252        0.2488561510        0.6669061773
O                0.3330937927        0.4839095748        0.7511438490
O                0.6669061773        0.5160904252        0.2488561510
O                0.7511438490        0.3330937927        0.4839095748
O                0.2488561510        0.6669061773        0.5160904252
H                0.1538870902        0.0639471857        0.8021295030
H                0.8461128958        0.9360528063        0.1978704970
H                0.8021295030        0.1538870902        0.0639471857
H                0.1978704970        0.8461128958        0.9360528063
H                0.0639471857        0.8021295030        0.1538870902
H                0.9360528063        0.1978704970        0.8461128958
H                0.4256564698        0.2141085779        1.0066174817
H                0.5743435302        0.7858914371       -0.0066175027
H                1.0066174817        0.4256564698        0.2141085779
H               -0.0066175027        0.5743435302        0.7858914371
H                0.2141085779        1.0066174817        0.4256564698
H                0.7858914371       -0.0066175027        0.5743435302
H                0.7178509397        0.4067341286        0.3925656002
H                0.2821490603        0.5932658414        0.6074344298
H                0.3925656002        0.7178509397        0.4067341286
H                0.6074344298        0.2821490603        0.5932658414
H                0.4067341286        0.3925656002        0.7178509397
H                0.5932658414        0.6074344298        0.2821490603
H                0.7410381283        0.1960494627        0.3565186926
H                0.2589618717        0.8039505223        0.6434813074
H                0.3565186926        0.7410381283        0.1960494627
H                0.6434813074        0.2589618717        0.8039505223
H                0.1960494627        0.3565186926        0.7410381283
H                0.8039505223        0.6434813074        0.2589618717



     Writing config-only to output data dir ./iceII/iceII.save/ :
     XML data file
     NEW-OLD atomic charge density approx. for the potential

     total cpu time spent up to now is       16.5 secs

     per-process dynamical memory:    17.9 Mb

     Self-consistent Calculation

     iteration #  1     ecut=    90.00 Ry     beta= 0.70
     Davidson diagonalization with overlap
     ethr =  1.00E-06,  avg # of iterations =  9.0

     total cpu time spent up to now is       18.5 secs

     total energy              =    -417.85728250 Ry
     estimated scf accuracy    <       0.06602143 Ry

     iteration #  2     ecut=    90.00 Ry     beta= 0.70
     Davidson diagonalization with overlap
     ethr =  6.88E-05,  avg # of iterations =  3.0

     total cpu time spent up to now is       19.5 secs

     total energy              =    -417.87675643 Ry
     estimated scf accuracy    <       0.01936075 Ry

     iteration #  3     ecut=    90.00 Ry     beta= 0.70
     Davidson diagonalization with overlap
     ethr =  2.02E-05,  avg # of iterations =  2.0

     total cpu time spent up to now is       20.3 secs

     total energy              =    -417.87922849 Ry
     estimated scf accuracy    <       0.00064655 Ry

     iteration #  4     ecut=    90.00 Ry     beta= 0.70
     Davidson diagonalization with overlap
     ethr =  6.73E-07,  avg # of iterations =  4.2

     total cpu time spent up to now is       21.4 secs

     total energy              =    -417.87965778 Ry
     estimated scf accuracy    <       0.00057757 Ry

     iteration #  5     ecut=    90.00 Ry     beta= 0.70
     Davidson diagonalization with overlap
     ethr =  6.02E-07,  avg # of iterations =  2.0

     total cpu time spent up to now is       22.3 secs

     total energy              =    -417.87972246 Ry
     estimated scf accuracy    <       0.00004406 Ry

     iteration #  6     ecut=    90.00 Ry     beta= 0.70
     Davidson diagonalization with overlap
     ethr =  4.59E-08,  avg # of iterations =  4.0

     total cpu time spent up to now is       23.5 secs

     total energy              =    -417.87974108 Ry
     estimated scf accuracy    <       0.00006340 Ry

     iteration #  7     ecut=    90.00 Ry     beta= 0.70
     Davidson diagonalization with overlap
     ethr =  4.59E-08,  avg # of iterations =  2.1

     total cpu time spent up to now is       24.4 secs

     total energy              =    -417.87975102 Ry
     estimated scf accuracy    <       0.00000143 Ry

     iteration #  8     ecut=    90.00 Ry     beta= 0.70
     Davidson diagonalization with overlap
     ethr =  1.49E-09,  avg # of iterations =  4.0

     total cpu time spent up to now is       25.5 secs

     total energy              =    -417.87975223 Ry
     estimated scf accuracy    <       0.00000051 Ry

     iteration #  9     ecut=    90.00 Ry     beta= 0.70
     Davidson diagonalization with overlap
     ethr =  5.28E-10,  avg # of iterations =  2.0

     total cpu time spent up to now is       26.3 secs

     End of self-consistent calculation

          k = 0.0000 0.0000 0.0000 ( 24335 PWs)   bands (ev):

   -20.4935 -19.7393 -19.7393 -19.3810 -19.3810 -19.3472 -19.3472 -19.3235
   -19.3052 -18.8022 -18.8022 -18.2638  -7.8034  -7.6329  -7.6329  -7.5567
    -7.4088  -7.2626  -7.2626  -6.7431  -6.7431  -6.5216  -6.5216  -6.4222
    -6.2488  -5.3372  -5.3372  -4.5975  -4.5975  -4.5573  -4.5573  -4.0968
    -3.8653  -3.0954  -3.0954  -2.2739  -2.0144  -2.0144  -1.8140  -1.7911
    -1.7070  -1.7070  -1.6006  -1.6006  -1.5234  -1.4740  -1.4740  -1.4496

          k =-0.1498-0.0865 0.3111 ( 24345 PWs)   bands (ev):

   -20.3782 -19.8065 -19.7322 -19.6119 -19.5613 -19.4525 -19.2425 -19.1728
   -19.0714 -18.8100 -18.7396 -18.3680  -7.7453  -7.7067  -7.6367  -7.4585
    -7.3863  -7.2481  -7.1395  -6.8138  -6.7586  -6.5599  -6.3706  -6.3188
    -6.1011  -5.5231  -5.2804  -5.0732  -4.7189  -4.4226  -4.3270  -3.9434
    -3.9339  -3.0796  -3.0002  -2.4965  -2.1761  -2.0936  -1.9180  -1.8489
    -1.7795  -1.7007  -1.6495  -1.6174  -1.5547  -1.4951  -1.4588  -1.3816

          k = 0.2996 0.1730-0.6221 ( 24380 PWs)   bands (ev):

   -20.1047 -20.0382 -19.7910 -19.7238 -19.5790 -19.5401 -19.1762 -19.1288
   -18.8620 -18.7938 -18.6362 -18.5945  -7.7474  -7.6691  -7.5917  -7.4767
    -7.3225  -7.2909  -7.0040  -6.8284  -6.7317  -6.6300  -6.1985  -6.1950
    -5.8531  -5.7842  -5.3060  -5.2923  -4.7215  -4.6603  -4.2052  -4.0408
    -3.3807  -3.3216  -2.9403  -2.7497  -2.3258  -2.1564  -1.9768  -1.9395
    -1.8349  -1.7193  -1.6880  -1.6644  -1.5924  -1.4863  -1.4086  -1.3353

          k =-0.1498 0.0865 0.6221 ( 24364 PWs)   bands (ev):

   -20.1462 -19.9176 -19.8831 -19.6863 -19.6352 -19.5366 -19.1695 -19.0336
   -18.9531 -18.7458 -18.7115 -18.5498  -7.7590  -7.6621  -7.6224  -7.4313
    -7.3244  -7.2431  -7.0533  -6.8811  -6.7878  -6.4320  -6.2995  -6.1990
    -5.8621  -5.7009  -5.5504  -5.0312  -4.8388  -4.6784  -4.1364  -3.9080
    -3.7004  -3.1055  -2.9550  -2.7896  -2.3115  -2.2041  -1.9683  -1.8443
    -1.8184  -1.7753  -1.7184  -1.6354  -1.6085  -1.4912  -1.4196  -1.3208

          k = 0.2996 0.3460-0.3111 ( 24347 PWs)   bands (ev):

   -20.2249 -19.9581 -19.8315 -19.7053 -19.5911 -19.4947 -19.1628 -19.0168
   -18.9061 -18.8457 -18.6876 -18.5203  -7.7773  -7.6687  -7.5610  -7.5098
    -7.4528  -7.2915  -7.0413  -6.9371  -6.7941  -6.4353  -6.3284  -6.1498
    -6.0577  -5.7183  -5.4632  -5.1180  -4.9707  -4.3540  -4.1026  -3.8029
    -3.5328  -3.2359  -2.9889  -2.7254  -2.1444  -2.0853  -1.9588  -1.8970
    -1.7921  -1.7359  -1.6831  -1.6494  -1.5559  -1.5349  -1.4193  -1.3004

          k = 0.1498 0.2595 0.0000 ( 24331 PWs)   bands (ev):

   -20.4095 -19.8712 -19.7749 -19.5662 -19.5192 -19.3876 -19.2543 -19.1352
   -19.0702 -18.8225 -18.7627 -18.3499  -7.7841  -7.7433  -7.6179  -7.4558
    -7.4016  -7.2766  -7.2459  -6.8903  -6.7385  -6.5625  -6.4183  -6.3106
    -6.2154  -5.4521  -5.3096  -5.0439  -4.9510  -4.2420  -4.0617  -3.9871
    -3.7249  -3.1823  -3.0962  -2.3680  -2.0195  -1.9828  -1.9043  -1.8473
    -1.7874  -1.7481  -1.6145  -1.5841  -1.5425  -1.5104  -1.4036  -1.3881

          k = 0.2996-0.1730-1.2442 ( 24374 PWs)   bands (ev):

   -20.2098 -20.1374 -19.8037 -19.6420 -19.5217 -19.4197 -19.1575 -19.1043
   -18.9025 -18.8886 -18.5765 -18.5575  -7.7893  -7.7516  -7.5515  -7.4765
    -7.4524  -7.3518  -7.1094  -7.0177  -6.7095  -6.6260  -6.2731  -6.1751
    -5.9987  -5.9305  -5.4691  -5.1596  -4.7718  -4.3606  -3.8446  -3.6160
    -3.5628  -3.4695  -2.8945  -2.7015  -2.0449  -1.9501  -1.9138  -1.9059
    -1.7954  -1.7087  -1.6676  -1.6318  -1.5705  -1.5427  -1.3474  -1.3341

          k = 0.0000 0.0000 0.9332 ( 24374 PWs)   bands (ev):

   -20.0495 -20.0495 -19.9513 -19.7941 -19.5336 -19.5336 -19.0235 -19.0235
   -18.8430 -18.7323 -18.7059 -18.7059  -7.6873  -7.6873  -7.6044  -7.4521
    -7.4278  -7.4278  -7.0024  -6.9289  -6.9289  -6.2161  -6.2161  -6.1006
    -5.9217  -5.9217  -5.8403  -5.1588  -4.6645  -4.6645  -3.8607  -3.5960
    -3.5960  -3.0894  -3.0894  -3.0166  -2.0816  -2.0816  -1.8985  -1.8308
    -1.7624  -1.7624  -1.6774  -1.6774  -1.6346  -1.5095  -1.5095  -1.2692

          k = 0.4494 0.2595 0.0000 ( 24371 PWs)   bands (ev):

   -20.2530 -19.9862 -19.9646 -19.6379 -19.4419 -19.3991 -19.1966 -19.1601
   -18.9088 -18.7648 -18.7057 -18.5026  -7.7680  -7.7394  -7.6330  -7.5022
    -7.3775  -7.3307  -7.1218  -6.9893  -6.8448  -6.4533  -6.3225  -6.2304
    -6.0756  -5.6820  -5.6519  -5.1256  -4.7428  -4.3659  -3.8246  -3.8107
    -3.5195  -3.2314  -3.0729  -2.6508  -2.0117  -1.9924  -1.9078  -1.8852
    -1.8157  -1.7386  -1.6498  -1.6141  -1.5638  -1.4910  -1.4331  -1.3052

          k = 0.2996 0.1730 0.3111 ( 24340 PWs)   bands (ev):

   -20.2987 -19.8819 -19.7571 -19.7111 -19.5729 -19.4723 -19.1888 -19.1271
   -19.0052 -18.7968 -18.6968 -18.4355  -7.8032  -7.6907  -7.6302  -7.4851
    -7.3438  -7.2304  -7.1053  -6.9445  -6.6531  -6.5624  -6.4830  -6.2420
    -6.0105  -5.4937  -5.2375  -5.1954  -5.0291  -4.4527  -4.0909  -3.8400
    -3.7307  -3.1341  -3.0091  -2.5309  -2.1851  -2.1194  -1.9851  -1.9598
    -1.8005  -1.7824  -1.6385  -1.6055  -1.5387  -1.4544  -1.4034  -1.3506

          k = 0.4494-0.2595-0.9332 ( 24354 PWs)   bands (ev):

   -20.0969 -20.0744 -19.8644 -19.7432 -19.5606 -19.4265 -19.2511 -19.0867
   -18.8615 -18.7630 -18.6789 -18.5342  -7.8534  -7.6525  -7.6256  -7.4835
    -7.3899  -7.2467  -7.0578  -6.8845  -6.7323  -6.6340  -6.3631  -6.2491
    -5.7893  -5.7134  -5.4398  -5.1728  -4.9435  -4.5237  -4.0686  -3.7329
    -3.3928  -3.1763  -3.0856  -2.6456  -2.1718  -2.1276  -2.0919  -1.9591
    -1.9169  -1.7930  -1.6082  -1.5532  -1.5335  -1.4870  -1.3909  -1.2936

          k = 0.2996-0.3460-0.6221 ( 24354 PWs)   bands (ev):

   -20.0474 -19.9748 -19.8405 -19.8046 -19.6056 -19.5864 -19.1310 -19.1049
   -18.8382 -18.8168 -18.6507 -18.5639  -7.8705  -7.6137  -7.5249  -7.4604
    -7.4098  -7.2579  -6.9723  -6.9170  -6.6483  -6.5953  -6.2862  -6.2732
    -5.6873  -5.5889  -5.3749  -5.2710  -4.9596  -4.8800  -3.9417  -3.8350
    -3.4266  -3.3735  -2.9647  -2.6759  -2.3568  -2.1757  -2.0933  -2.0073
    -1.9061  -1.7884  -1.6252  -1.6112  -1.5807  -1.4431  -1.4029  -1.2756

          k = 0.0000 0.0000-1.8663 ( 24294 PWs)   bands (ev):

   -19.9734 -19.8650 -19.8437 -19.8437 -19.7275 -19.7275 -18.9864 -18.9864
   -18.9195 -18.9195 -18.6382 -18.5304  -7.9548  -7.4612  -7.4559  -7.4559
    -7.4511  -7.4511  -6.9288  -6.9192  -6.4717  -6.4717  -6.4661  -6.4661
    -5.3659  -5.3571  -5.3412  -5.3412  -5.2038  -5.2038  -3.6181  -3.6181
    -3.5463  -3.5463  -2.9454  -2.6231  -2.3655  -2.1853  -2.1853  -2.0808
    -2.0808  -1.7388  -1.5986  -1.5375  -1.5375  -1.4411  -1.4411  -1.2226

          k = 0.2996-0.3460 0.3111 ( 24347 PWs)   bands (ev):

   -20.2236 -19.9726 -19.7929 -19.7318 -19.5897 -19.4985 -19.1511 -19.0017
   -18.9657 -18.7903 -18.7075 -18.5193  -7.7646  -7.6755  -7.5903  -7.4684
    -7.4477  -7.2981  -7.1214  -6.8844  -6.7571  -6.5222  -6.2635  -6.1838
    -5.9985  -5.6772  -5.5751  -5.0887  -4.8990  -4.4355  -4.1866  -3.6841
    -3.4440  -3.2407  -3.1529  -2.6522  -2.1671  -2.0307  -1.9797  -1.8831
    -1.8540  -1.7039  -1.6886  -1.6291  -1.6023  -1.4952  -1.4202  -1.3085

     highest occupied level (ev):    -1.2226

!    total energy              =    -417.87975229 Ry
     estimated scf accuracy    <       0.00000002 Ry

     The total energy is the sum of the following terms:
     one-electron contribution =    -256.08623433 Ry
     hartree contribution      =     167.36776428 Ry
     xc contribution           =    -106.25159152 Ry
     ewald contribution        =    -222.90969072 Ry

     convergence has been achieved in   9 iterations

     Forces acting on atoms (cartesian axes, Ry/au):

     atom    1 type  2   force =    -0.02422844    0.05063107    0.04384280
     atom    2 type  2   force =     0.02422844   -0.05063107   -0.04384280
     atom    3 type  2   force =    -0.03173357   -0.04629798    0.04384280
     atom    4 type  2   force =     0.03173357    0.04629798   -0.04384280
     atom    5 type  2   force =     0.05596201   -0.00433308    0.04384280
     atom    6 type  2   force =    -0.05596201    0.00433308   -0.04384280
     atom    7 type  2   force =    -0.04739299    0.02310224   -0.02569043
     atom    8 type  2   force =     0.04739299   -0.02310224    0.02569043
     atom    9 type  2   force =     0.00368937   -0.05259465   -0.02569043
     atom   10 type  2   force =    -0.00368937    0.05259465    0.02569043
     atom   11 type  2   force =     0.04370362    0.02949241   -0.02569043
     atom   12 type  2   force =    -0.04370362   -0.02949241    0.02569043
     atom   13 type  1   force =    -0.00068311   -0.01804063   -0.04663830
     atom   14 type  1   force =     0.00068311    0.01804063    0.04663830
     atom   15 type  1   force =     0.01596519    0.00842873   -0.04663830
     atom   16 type  1   force =    -0.01596519   -0.00842873    0.04663830
     atom   17 type  1   force =    -0.01528209    0.00961190   -0.04663830
     atom   18 type  1   force =     0.01528209   -0.00961190    0.04663830
     atom   19 type  1   force =     0.02943634   -0.04078372   -0.01101251
     atom   20 type  1   force =    -0.02943634    0.04078372    0.01101251
     atom   21 type  1   force =     0.02060157    0.04588448   -0.01101251
     atom   22 type  1   force =    -0.02060157   -0.04588448    0.01101251
     atom   23 type  1   force =    -0.05003791   -0.00510076   -0.01101251
     atom   24 type  1   force =     0.05003791    0.00510076    0.01101251
     atom   25 type  1   force =    -0.02197999   -0.01018817    0.01977592
     atom   26 type  1   force =     0.02197999    0.01018817   -0.01977592
     atom   27 type  1   force =     0.01981321   -0.01394115    0.01977592
     atom   28 type  1   force =    -0.01981321    0.01394115   -0.01977592
     atom   29 type  1   force =     0.00216678    0.02412932    0.01977592
     atom   30 type  1   force =    -0.00216678   -0.02412932   -0.01977592
     atom   31 type  1   force =    -0.02459055   -0.02147341    0.01126484
     atom   32 type  1   force =     0.02459055    0.02147341   -0.01126484
     atom   33 type  1   force =     0.03089179   -0.01055934    0.01126484
     atom   34 type  1   force =    -0.03089179    0.01055934   -0.01126484
     atom   35 type  1   force =    -0.00630124    0.03203274    0.01126484
     atom   36 type  1   force =     0.00630124   -0.03203274   -0.01126484

     Total force =     0.308241     Total SCF correction =     0.000130


     Computing stress (Cartesian axis) and pressure

          total   stress  (Ry/bohr**3)                   (kbar)     P=       43.34
   0.00026999   0.00000000   0.00000000           39.72        0.00        0.00
  -0.00000000   0.00026999   0.00000000           -0.00       39.72        0.00
  -0.00000000   0.00000000   0.00034392           -0.00        0.00       50.59

     Energy error            =      1.3E-01 Ry
     Gradient error          =      5.6E-02 Ry/Bohr

     number of scf cycles    =   2
     number of bfgs steps    =   1

     energy             old  =    -417.7531023075 Ry
     energy             new  =    -417.8797522851 Ry

     CASE: energy            _new < energy            _old

     new trust radius        =       0.0639467935 bohr
     new conv_thr            =       0.0000000560 Ry


ATOMIC_POSITIONS (crystal)
O                0.2716067428        0.0228982435        0.8536919524
O                0.7283932572        0.9771017675        0.1463080176
O                0.8536919524        0.2716067428        0.0228982435
O                0.1463080176        0.7283932572        0.9771017675
O                0.0228982435        0.8536919524        0.2716067428
O                0.9771017675        0.1463080176        0.7283932572
O                0.4807655335        0.7503535358        0.3325843663
O                0.5192344665        0.2496464642        0.6674156037
O                0.3325843663        0.4807655335        0.7503535358
O                0.6674156037        0.5192344665        0.2496464642
O                0.7503535358        0.3325843663        0.4807655335
O                0.2496464642        0.6674156037        0.5192344665
H                0.1478408202        0.0581029770        0.7968939072
H                0.8521591658        0.9418970150        0.2031060928
H                0.7968939072        0.1478408202        0.0581029770
H                0.2031060928        0.8521591658        0.9418970150
H                0.0581029770        0.7968939072        0.1478408202
H                0.9418970150        0.2031060928        0.8521591658
H                0.4298035844        0.2134599652        1.0077212889
H                0.5701964156        0.7865400498       -0.0077213099
H                1.0077212889        0.4298035844        0.2134599652
H               -0.0077213099        0.5701964156        0.7865400498
H                0.2134599652        1.0077212889        0.4298035844
H                0.7865400498       -0.0077213099        0.5701964156
H                0.7185725717        0.4092335323        0.3947303246
H                0.2814274283        0.5907664377        0.6052697054
H                0.3947303246        0.7185725717        0.4092335323
H                0.6052697054        0.2814274283        0.5907664377
H                0.4092335323        0.3947303246        0.7185725717
H                0.5907664377        0.6052697054        0.2814274283
H                0.7414909280        0.1943720218        0.3581003535
H                0.2585090720        0.8056279632        0.6418996465
H                0.3581003535        0.7414909280        0.1943720218
H                0.6418996465        0.2585090720        0.8056279632
H                0.1943720218        0.3581003535        0.7414909280
H                0.8056279632        0.6418996465        0.2585090720



     Writing config-only to output data dir ./iceII/iceII.save/ :
     XML data file
     NEW-OLD atomic charge density approx. for the potential

     total cpu time spent up to now is       27.5 secs

     per-process dynamical memory:    17.9 Mb

     Self-consistent Calculation

     iteration #  1     ecut=    90.00 Ry     beta= 0.70
     Davidson diagonalization with overlap
     ethr =  1.00E-06,  avg # of iterations =  8.0

     total cpu time spent up to now is       29.4 secs

     total energy              =    -417.94148735 Ry
     estimated scf accuracy    <       0.00488387 Ry

     iteration #  2     ecut=    90.00 Ry     beta= 0.70
     Davidson diagonalization with overlap
     ethr =  5.09E-06,  avg # of iterations =  2.0

     total cpu time spent up to now is       30.3 secs

     total energy              =    -417.94247815 Ry
     estimated scf accuracy    <       0.00059672 Ry

     iteration #  3     ecut=    90.00 Ry     beta= 0.70
     Davidson diagonalization with overlap
     ethr =  6.22E-07,  avg # of iterations =  2.0

     total cpu time spent up to now is       31.2 secs

     total energy              =    -417.94260484 Ry
     estimated scf accuracy    <       0.00003300 Ry

     iteration #  4     ecut=    90.00 Ry     beta= 0.70
     Davidson diagonalization with overlap
     ethr =  3.44E-08,  avg # of iterations =  2.0

     total cpu time spent up to now is       32.0 secs

     total energy              =    -417.94260937 Ry
     estimated scf accuracy    <       0.00000418 Ry

     iteration #  5     ecut=    90.00 Ry     beta= 0.70
     Davidson diagonalization with overlap
     ethr =  4.35E-09,  avg # of iterations =  2.1

     total cpu time spent up to now is       32.9 secs

     total energy              =    -417.94261053 Ry
     estimated scf accuracy    <       0.00000046 Ry

     iteration #  6     ecut=    90.00 Ry     beta= 0.70
     Davidson diagonalization with overlap
     ethr =  4.76E-10,  avg # of iterations =  2.0

     total cpu time spent up to now is       33.7 secs

     total energy              =    -417.94261057 Ry
     estimated scf accuracy    <       0.00000008 Ry

     iteration #  7     ecut=    90.00 Ry     beta= 0.70
     Davidson diagonalization with overlap
     ethr =  8.83E-11,  avg # of iterations =  3.0

     total cpu time spent up to now is       34.7 secs

     End of self-consistent calculation

          k = 0.0000 0.0000 0.0000 ( 24335 PWs)   bands (ev):

   -20.5204 -19.7736 -19.7736 -19.4249 -19.4249 -19.3841 -19.3841 -19.3594
   -19.3545 -18.8557 -18.8557 -18.3312  -7.9091  -7.7342  -7.7342  -7.5686
    -7.4151  -7.4151  -7.3683  -6.9341  -6.9341  -6.8232  -6.8232  -6.6462
    -6.5956  -5.2830  -5.2830  -4.5013  -4.5013  -4.4518  -4.4518  -4.0127
    -3.8588  -3.0389  -3.0389  -2.2118  -2.0246  -2.0246  -1.8543  -1.8021
    -1.7529  -1.7529  -1.6406  -1.6406  -1.5077  -1.4841  -1.4568  -1.4568

          k =-0.1498-0.0865 0.3111 ( 24345 PWs)   bands (ev):

   -20.4054 -19.8355 -19.7591 -19.6546 -19.6107 -19.4983 -19.2814 -19.2098
   -19.1129 -18.8667 -18.7965 -18.4325  -7.8387  -7.7917  -7.7251  -7.5633
    -7.4052  -7.4022  -7.2327  -7.0163  -6.9170  -6.8512  -6.6867  -6.6202
    -6.3234  -5.4921  -5.2639  -4.9792  -4.6686  -4.2847  -4.2603  -3.8798
    -3.8328  -3.0286  -2.9322  -2.4287  -2.1716  -2.0975  -1.9160  -1.8914
    -1.8173  -1.7374  -1.6502  -1.6399  -1.5520  -1.5272  -1.4617  -1.4051

          k = 0.2996 0.1730-0.6221 ( 24380 PWs)   bands (ev):

   -20.1270 -20.0725 -19.8155 -19.7640 -19.6248 -19.5929 -19.2064 -19.1697
   -18.9088 -18.8529 -18.6888 -18.6612  -7.8087  -7.7633  -7.6870  -7.5835
    -7.4390  -7.4161  -7.1265  -7.0077  -6.9080  -6.8857  -6.5315  -6.5199
    -5.9350  -5.8041  -5.3026  -5.2777  -4.6750  -4.5936  -4.0649  -3.9059
    -3.3060  -3.2404  -2.8670  -2.7043  -2.2806  -2.1551  -2.0047  -1.9425
    -1.8451  -1.7583  -1.7085  -1.6628  -1.6260  -1.5044  -1.4248  -1.3625

          k =-0.1498 0.0865 0.6221 ( 24364 PWs)   bands (ev):

   -20.1722 -19.9456 -19.9143 -19.7232 -19.6831 -19.5834 -19.2059 -19.0706
   -19.0020 -18.8032 -18.7692 -18.6119  -7.8127  -7.7543  -7.7154  -7.5706
    -7.4452  -7.3539  -7.1315  -7.0837  -6.9971  -6.6821  -6.6072  -6.5276
    -5.9379  -5.7045  -5.5756  -5.0095  -4.7879  -4.6167  -4.0046  -3.7811
    -3.5958  -3.0371  -2.9051  -2.7227  -2.2787  -2.1952  -1.9901  -1.8567
    -1.8340  -1.7956  -1.7395  -1.6419  -1.6394  -1.5113  -1.4389  -1.3467

          k = 0.2996 0.3460-0.3111 ( 24347 PWs)   bands (ev):

   -20.2533 -19.9900 -19.8564 -19.7521 -19.6279 -19.5357 -19.2057 -19.0556
   -18.9661 -18.8901 -18.7485 -18.5800  -7.8286  -7.7745  -7.6649  -7.6024
    -7.5161  -7.4187  -7.2291  -7.1514  -7.0139  -6.6633  -6.6156  -6.4860
    -6.1270  -5.6869  -5.3809  -5.0853  -4.9728  -4.3118  -3.9421  -3.7241
    -3.4756  -3.1658  -2.9032  -2.6483  -2.1355  -2.0987  -1.9845  -1.9208
    -1.8196  -1.7353  -1.7146  -1.6721  -1.5810  -1.5523  -1.4296  -1.3141

          k = 0.1498 0.2595 0.0000 ( 24331 PWs)   bands (ev):

   -20.4372 -19.9054 -19.8100 -19.5988 -19.5568 -19.4276 -19.2988 -19.1852
   -19.1142 -18.8753 -18.8164 -18.4143  -7.8796  -7.7872  -7.7155  -7.5429
    -7.4553  -7.4193  -7.4057  -7.0886  -6.9492  -6.8124  -6.6722  -6.5635
    -6.4765  -5.3756  -5.2468  -4.9844  -4.8999  -4.1799  -3.9652  -3.8750
    -3.6985  -3.1040  -3.0397  -2.2829  -2.0313  -1.9963  -1.9551  -1.8848
    -1.8150  -1.7746  -1.6469  -1.5986  -1.5598  -1.5293  -1.4076  -1.3809

          k = 0.2996-0.1730-1.2442 ( 24374 PWs)   bands (ev):

   -20.2385 -20.1698 -19.8394 -19.6727 -19.5610 -19.4555 -19.2045 -19.1541
   -18.9553 -18.9373 -18.6367 -18.6130  -7.8573  -7.7971  -7.6492  -7.5636
    -7.5624  -7.4882  -7.3152  -7.2135  -6.9714  -6.8314  -6.5936  -6.5036
    -5.9491  -5.9228  -5.3650  -5.1631  -4.7333  -4.3141  -3.7496  -3.5877
    -3.4577  -3.3801  -2.8281  -2.6073  -2.0676  -1.9764  -1.9462  -1.9219
    -1.8487  -1.7200  -1.6807  -1.6446  -1.6096  -1.5508  -1.3476  -1.3425

          k = 0.0000 0.0000 0.9332 ( 24374 PWs)   bands (ev):

   -20.0792 -20.0792 -19.9763 -19.8440 -19.5686 -19.5686 -19.0741 -19.0741
   -18.8718 -18.7995 -18.7632 -18.7632  -7.7699  -7.7699  -7.6983  -7.5788
    -7.5222  -7.5222  -7.1981  -7.1329  -7.1329  -6.5211  -6.5211  -6.4491
    -5.8845  -5.8845  -5.7355  -5.1514  -4.6514  -4.6514  -3.7050  -3.5124
    -3.5124  -3.0037  -3.0037  -2.9456  -2.0854  -2.0854  -1.9336  -1.8654
    -1.7862  -1.7862  -1.6967  -1.6967  -1.6596  -1.5164  -1.5164  -1.2798

          k = 0.4494 0.2595 0.0000 ( 24371 PWs)   bands (ev):

   -20.2822 -20.0181 -19.9990 -19.6726 -19.4713 -19.4397 -19.2416 -19.2147
   -18.9584 -18.8183 -18.7602 -18.5619  -7.8369  -7.7952  -7.7040  -7.5978
    -7.5071  -7.4620  -7.3126  -7.1881  -7.0829  -6.7083  -6.5889  -6.5536
    -6.1174  -5.6043  -5.5643  -5.1343  -4.7012  -4.3145  -3.7532  -3.7390
    -3.4360  -3.1364  -3.0056  -2.5619  -2.0366  -2.0055  -1.9455  -1.9214
    -1.8390  -1.7663  -1.6719  -1.6515  -1.5712  -1.5020  -1.4342  -1.3095

          k = 0.2996 0.1730 0.3111 ( 24340 PWs)   bands (ev):

   -20.3267 -19.9125 -19.7881 -19.7468 -19.6149 -19.5203 -19.2267 -19.1671
   -19.0553 -18.8496 -18.7551 -18.4977  -7.8463  -7.7814  -7.7192  -7.5551
    -7.4730  -7.3465  -7.2707  -7.0960  -6.9128  -6.8402  -6.7277  -6.5613
    -6.1570  -5.4609  -5.2511  -5.0859  -4.9735  -4.3377  -4.0179  -3.7742
    -3.6577  -3.0692  -2.9447  -2.4463  -2.1790  -2.1265  -2.0058  -1.9695
    -1.8283  -1.8046  -1.6633  -1.6289  -1.5453  -1.4831  -1.4103  -1.3740

          k = 0.4494-0.2595-0.9332 ( 24354 PWs)   bands (ev):

   -20.1264 -20.1051 -19.8965 -19.7779 -19.5979 -19.4747 -19.2874 -19.1335
   -18.9143 -18.8145 -18.7364 -18.5935  -7.8647  -7.7489  -7.6979  -7.5714
    -7.5072  -7.3938  -7.2467  -7.1032  -6.9620  -6.8965  -6.6440  -6.5616
    -5.7729  -5.7392  -5.3531  -5.2060  -4.8793  -4.4001  -4.0212  -3.6821
    -3.3118  -3.1135  -3.0152  -2.5425  -2.1699  -2.1322  -2.0944  -1.9791
    -1.9335  -1.8261  -1.6251  -1.5803  -1.5579  -1.5023  -1.4052  -1.3145

          k = 0.2996-0.3460-0.6221 ( 24354 PWs)   bands (ev):

   -20.0693 -20.0101 -19.8672 -19.8423 -19.6495 -19.6346 -19.1662 -19.1475
   -18.8911 -18.8741 -18.6967 -18.6329  -7.8798  -7.7095  -7.6350  -7.5681
    -7.5229  -7.3536  -7.1564  -7.1299  -6.8578  -6.8424  -6.6053  -6.5908
    -5.7149  -5.6153  -5.3804  -5.2834  -4.8500  -4.7790  -3.8463  -3.7443
    -3.3515  -3.2957  -2.9233  -2.6062  -2.2998  -2.1759  -2.1009  -2.0162
    -1.9121  -1.7875  -1.6678  -1.6369  -1.6033  -1.4684  -1.4270  -1.2970

          k = 0.0000 0.0000-1.8663 ( 24294 PWs)   bands (ev):

   -19.9934 -19.9102 -19.8674 -19.8674 -19.7747 -19.7747 -19.0219 -19.0219
   -18.9821 -18.9821 -18.6822 -18.6002  -7.9368  -7.5795  -7.5795  -7.5623
    -7.5623  -7.4936  -7.1941  -7.1033  -6.7510  -6.7510  -6.7441  -6.7441
    -5.5008  -5.4042  -5.2377  -5.2377  -5.1229  -5.1229  -3.5458  -3.5458
    -3.4678  -3.4678  -2.9210  -2.5422  -2.2761  -2.1853  -2.1853  -2.0938
    -2.0938  -1.7274  -1.6571  -1.5529  -1.5529  -1.4771  -1.4771  -1.2407

          k = 0.2996-0.3460 0.3111 ( 24347 PWs)   bands (ev):

   -20.2523 -20.0012 -19.8214 -19.7781 -19.6258 -19.5390 -19.1974 -19.0367
   -19.0179 -18.8498 -18.7615 -18.5802  -7.8289  -7.7679  -7.6688  -7.5591
    -7.5473  -7.4306  -7.2919  -7.0876  -6.9978  -6.7127  -6.5869  -6.5040
    -6.1000  -5.6420  -5.4862  -5.0513  -4.8896  -4.3967  -4.0494  -3.5910
    -3.3662  -3.1871  -3.0679  -2.5710  -2.1563  -2.0488  -2.0004  -1.9142
    -1.8564  -1.7406  -1.7097  -1.6589  -1.6143  -1.5095  -1.4332  -1.3220

     highest occupied level (ev):    -1.2407

!    total energy              =    -417.94261059 Ry
     estimated scf accuracy    <          8.0E-09 Ry

     The total energy is the sum of the following terms:
     one-electron contribution =    -256.80508787 Ry
     hartree contribution      =     167.68105907 Ry
     xc contribution           =    -106.41409711 Ry
     ewald contribution        =    -222.40448468 Ry

     convergence has been achieved in   7 iterations

     Forces acting on atoms (cartesian axes, Ry/au):

     atom    1 type  2   force =    -0.01291837    0.02758634    0.02107290
     atom    2 type  2   force =     0.01291837   -0.02758634   -0.02107290
     atom    3 type  2   force =    -0.01743128   -0.02498081    0.02107290
     atom    4 type  2   force =     0.01743128    0.02498081   -0.02107290
     atom    5 type  2   force =     0.03034966   -0.00260553    0.02107290
     atom    6 type  2   force =    -0.03034966    0.00260553   -0.02107290
     atom    7 type  2   force =    -0.02527950    0.01699733   -0.02048637
     atom    8 type  2   force =     0.02527950   -0.01699733    0.02048637
     atom    9 type  2   force =    -0.00208038   -0.03039135   -0.02048637
     atom   10 type  2   force =     0.00208038    0.03039135    0.02048637
     atom   11 type  2   force =     0.02735987    0.01339402   -0.02048637
     atom   12 type  2   force =    -0.02735987   -0.01339402    0.02048637
     atom   13 type  1   force =    -0.00220961   -0.01210001   -0.02851455
     atom   14 type  1   force =     0.00220961    0.01210001    0.02851455
     atom   15 type  1   force =     0.01158372    0.00413643   -0.02851455
     atom   16 type  1   force =    -0.01158372   -0.00413643    0.02851455
     atom   17 type  1   force =    -0.00937411    0.00796358   -0.02851455
     atom   18 type  1   force =     0.00937411   -0.00796358    0.02851455
     atom   19 type  1   force =     0.02133017   -0.02155401   -0.00426935
     atom   20 type  1   force =    -0.02133017    0.02155401    0.00426935
     atom   21 type  1   force =     0.00800124    0.02924948   -0.00426935
     atom   22 type  1   force =    -0.00800124   -0.02924948    0.00426935
     atom   23 type  1   force =    -0.02933141   -0.00769546   -0.00426935
     atom   24 type  1   force =     0.02933141    0.00769546    0.00426935
     atom   25 type  1   force =    -0.00976483   -0.00447747    0.01371428
     atom   26 type  1   force =     0.00976483    0.00447747   -0.01371428
     atom   27 type  1   force =     0.00876001   -0.00621786    0.01371428
     atom   28 type  1   force =    -0.00876001    0.00621786   -0.01371428
     atom   29 type  1   force =     0.00100482    0.01069532    0.01371428
     atom   30 type  1   force =    -0.00100482   -0.01069532   -0.01371428
     atom   31 type  1   force =    -0.01685905   -0.01190200    0.00749876
     atom   32 type  1   force =     0.01685905    0.01190200   -0.00749876
     atom   33 type  1   force =     0.01873696   -0.00864937    0.00749876
     atom   34 type  1   force =    -0.01873696    0.00864937   -0.00749876
     atom   35 type  1   force =    -0.00187791    0.02055137    0.00749876
     atom   36 type  1   force =     0.00187791   -0.02055137   -0.00749876

     Total force =     0.180123     Total SCF correction =     0.000206


     Computing stress (Cartesian axis) and pressure

          total   stress  (Ry/bohr**3)                   (kbar)     P=       56.18
   0.00035640  -0.00000000   0.00000000           52.43       -0.00        0.00
   0.00000000   0.00035640   0.00000000            0.00       52.43        0.00
   0.00000000   0.00000000   0.00043299            0.00        0.00       63.69

     Energy error            =      6.3E-02 Ry
     Gradient error          =      3.0E-02 Ry/Bohr

     number of scf cycles    =   3
     number of bfgs steps    =   2

     energy             old  =    -417.8797522851 Ry
     energy             new  =    -417.9426105915 Ry

     CASE: energy            _new < energy            _old

     new trust radius        =       0.0703414728 bohr
     new conv_thr            =       0.0000000304 Ry


ATOMIC_POSITIONS (crystal)
O                0.2720860682        0.0269004457        0.8558543731
O                0.7279139318        0.9730995653        0.1441455969
O                0.8558543731        0.2720860682        0.0269004457
O                0.1441455969        0.7279139318        0.9730995653
O                0.0269004457        0.8558543731        0.2720860682
O                0.9730995653        0.1441455969        0.7279139318
O                0.4766122738        0.7489703239        0.3308685954
O                0.5233877262        0.2510296761        0.6691313746
O                0.3308685954        0.4766122738        0.7489703239
O                0.6691313746        0.5233877262        0.2510296761
O                0.7489703239        0.3308685954        0.4766122738
O                0.2510296761        0.6691313746        0.5233877262
H                0.1411959627        0.0515962621        0.7913712071
H                0.8588040233        0.9484037299        0.2086287929
H                0.7913712071        0.1411959627        0.0515962621
H                0.2086287929        0.8588040233        0.9484037299
H                0.0515962621        0.7913712071        0.1411959627
H                0.9484037299        0.2086287929        0.8588040233
H                0.4347167424        0.2132887103        1.0088038400
H                0.5652832576        0.7867113047       -0.0088038610
H                1.0088038400        0.4347167424        0.2132887103
H               -0.0088038610        0.5652832576        0.7867113047
H                0.2132887103        1.0088038400        0.4347167424
H                0.7867113047       -0.0088038610        0.5652832576
H                0.7198370586        0.4123299564        0.3970665392
H                0.2801629414        0.5876700136        0.6029334908
H                0.3970665392        0.7198370586        0.4123299564
H                0.6029334908        0.2801629414        0.5876700136
H                0.4123299564        0.3970665392        0.7198370586
H                0.5876700136        0.6029334908        0.2801629414
H                0.7418987641        0.1928044277        0.3600789945
H                0.2581012359        0.8071955573        0.6399210055
H                0.3600789945        0.7418987641        0.1928044277
H                0.6399210055        0.2581012359        0.8071955573
H                0.1928044277        0.3600789945        0.7418987641
H                0.8071955573        0.6399210055        0.2581012359



     Writing config-only to output data dir ./iceII/iceII.save/ :
     XML data file
     NEW-OLD atomic charge density approx. for the potential

     total cpu time spent up to now is       35.9 secs

     per-process dynamical memory:    18.1 Mb

     Self-consistent Calculation

     iteration #  1     ecut=    90.00 Ry     beta= 0.70
     Davidson diagonalization with overlap
     ethr =  1.00E-06,  avg # of iterations =  8.0

     total cpu time spent up to now is       37.7 secs

     total energy              =    -417.97430725 Ry
     estimated scf accuracy    <       0.00411851 Ry

     iteration #  2     ecut=    90.00 Ry     beta= 0.70
     Davidson diagonalization with overlap
     ethr =  4.29E-06,  avg # of iterations =  2.0

     total cpu time spent up to now is       38.6 secs

     total energy              =    -417.97510635 Ry
     estimated scf accuracy    <       0.00050554 Ry

     iteration #  3     ecut=    90.00 Ry     beta= 0.70
     Davidson diagonalization with overlap
     ethr =  5.27E-07,  avg # of iterations =  2.0

     total cpu time spent up to now is       39.5 secs

     total energy              =    -417.97521867 Ry
     estimated scf accuracy    <       0.00002903 Ry

     iteration #  4     ecut=    90.00 Ry     beta= 0.70
     Davidson diagonalization with overlap
     ethr =  3.02E-08,  avg # of iterations =  2.0

     total cpu time spent up to now is       40.3 secs

     total energy              =    -417.97522184 Ry
     estimated scf accuracy    <       0.00000334 Ry

     iteration #  5     ecut=    90.00 Ry     beta= 0.70
     Davidson diagonalization with overlap
     ethr =  3.48E-09,  avg # of iterations =  2.8

     total cpu time spent up to now is       41.2 secs

     total energy              =    -417.97522279 Ry
     estimated scf accuracy    <       0.00000050 Ry

     iteration #  6     ecut=    90.00 Ry     beta= 0.70
     Davidson diagonalization with overlap
     ethr =  5.19E-10,  avg # of iterations =  2.8

     total cpu time spent up to now is       42.1 secs

     End of self-consistent calculation

          k = 0.0000 0.0000 0.0000 ( 24335 PWs)   bands (ev):

   -20.5283 -19.7903 -19.7903 -19.4342 -19.4342 -19.4049 -19.4049 -19.3758
   -19.3718 -18.8744 -18.8744 -18.3701  -8.0770  -7.8733  -7.8733  -7.7465
    -7.6334  -7.6334  -7.3349  -7.1563  -7.1563  -7.0917  -7.0917  -6.8998
    -6.6792  -5.1587  -5.1587  -4.4109  -4.4109  -4.2609  -4.2609  -3.8745
    -3.8181  -2.9477  -2.9477  -2.1551  -2.0324  -2.0324  -1.8831  -1.7782
    -1.7733  -1.7733  -1.6510  -1.6510  -1.5593  -1.4377  -1.4377  -1.4240

          k =-0.1498-0.0865 0.3111 ( 24345 PWs)   bands (ev):

   -20.4148 -19.8506 -19.7846 -19.6572 -19.6144 -19.5101 -19.3054 -19.2322
   -19.1374 -18.8846 -18.8171 -18.4662  -8.0062  -7.9275  -7.8668  -7.7372
    -7.6201  -7.5679  -7.3473  -7.2364  -7.1173  -7.0728  -6.9763  -6.9022
    -6.3495  -5.3783  -5.1668  -4.8325  -4.5768  -4.1896  -4.0652  -3.7814
    -3.6847  -2.9485  -2.8386  -2.3542  -2.1589  -2.0986  -1.9346  -1.8902
    -1.8396  -1.7583  -1.6364  -1.6309  -1.5563  -1.5219  -1.4527  -1.4099

          k = 0.2996 0.1730-0.6221 ( 24380 PWs)   bands (ev):

   -20.1493 -20.0766 -19.8381 -19.7600 -19.6393 -19.5936 -19.2429 -19.1847
   -18.9504 -18.8637 -18.7266 -18.6705  -7.9451  -7.9219  -7.8317  -7.7662
    -7.6425  -7.5713  -7.3062  -7.2239  -7.1287  -7.1143  -6.8340  -6.8098
    -5.8567  -5.7125  -5.2152  -5.1776  -4.5740  -4.4898  -3.8781  -3.7365
    -3.2072  -3.1342  -2.7733  -2.6485  -2.2162  -2.1593  -2.0207  -1.9400
    -1.8573  -1.7474  -1.7180  -1.6744  -1.6215  -1.5128  -1.4145  -1.3781

          k =-0.1498 0.0865 0.6221 ( 24364 PWs)   bands (ev):

   -20.1879 -19.9604 -19.9250 -19.7343 -19.6844 -19.5908 -19.2324 -19.1026
   -19.0250 -18.8281 -18.7922 -18.6325  -7.9492  -7.9004  -7.8695  -7.7611
    -7.6343  -7.5336  -7.2942  -7.2814  -7.2162  -6.9429  -6.8924  -6.8239
    -5.8696  -5.5878  -5.4950  -4.9139  -4.6874  -4.5070  -3.8364  -3.6131
    -3.4647  -2.9476  -2.8392  -2.6378  -2.2336  -2.1836  -2.0101  -1.8648
    -1.8342  -1.8077  -1.7279  -1.6508  -1.6366  -1.5195  -1.4325  -1.3582

          k = 0.2996 0.3460-0.3111 ( 24347 PWs)   bands (ev):

   -20.2643 -20.0035 -19.8806 -19.7526 -19.6325 -19.5465 -19.2315 -19.0922
   -18.9644 -18.9313 -18.7652 -18.6078  -7.9625  -7.9396  -7.8150  -7.7598
    -7.6790  -7.5817  -7.4378  -7.3693  -7.2417  -6.9338  -6.8863  -6.7923
    -6.0244  -5.5639  -5.2444  -4.9920  -4.8873  -4.2152  -3.7447  -3.6133
    -3.3853  -3.0763  -2.7939  -2.5555  -2.1164  -2.1019  -2.0019  -1.9302
    -1.8299  -1.7484  -1.6969  -1.6870  -1.5929  -1.5550  -1.4165  -1.3136

          k = 0.1498 0.2595 0.0000 ( 24331 PWs)   bands (ev):

   -20.4457 -19.9206 -19.8261 -19.6138 -19.5650 -19.4390 -19.3192 -19.2066
   -19.1358 -18.8943 -18.8348 -18.4502  -8.0406  -7.9133  -7.8636  -7.7206
    -7.6256  -7.6173  -7.5379  -7.3047  -7.1858  -7.0462  -6.9445  -6.8658
    -6.4236  -5.2383  -5.1358  -4.8606  -4.7855  -4.0630  -3.8364  -3.7268
    -3.6311  -2.9946  -2.9506  -2.1913  -2.0393  -2.0125  -1.9783  -1.9036
    -1.8257  -1.7702  -1.6585  -1.6064  -1.5998  -1.4918  -1.3973  -1.3630

          k = 0.2996-0.1730-1.2442 ( 24374 PWs)   bands (ev):

   -20.2484 -20.1815 -19.8555 -19.6857 -19.5716 -19.4655 -19.2291 -19.1748
   -18.9788 -18.9524 -18.6672 -18.6382  -7.9965  -7.9311  -7.8173  -7.7348
    -7.6877  -7.6621  -7.5353  -7.4198  -7.2238  -7.0495  -6.8904  -6.8101
    -5.8174  -5.8085  -5.2069  -5.0994  -4.6280  -4.2035  -3.6228  -3.5269
    -3.3192  -3.2568  -2.7474  -2.4884  -2.0798  -1.9980  -1.9602  -1.9305
    -1.8669  -1.7187  -1.6900  -1.6405  -1.6290  -1.5428  -1.3447  -1.3250

          k = 0.0000 0.0000 0.9332 ( 24374 PWs)   bands (ev):

   -20.0903 -20.0903 -20.0069 -19.8338 -19.5795 -19.5795 -19.0982 -19.0982
   -18.9282 -18.7924 -18.7876 -18.7876  -7.9271  -7.9271  -7.8275  -7.7745
    -7.6764  -7.6764  -7.4221  -7.3436  -7.3436  -6.8193  -6.8193  -6.7585
    -5.7388  -5.7388  -5.5573  -5.0999  -4.5672  -4.5672  -3.5136  -3.4076
    -3.4076  -2.8943  -2.8943  -2.8453  -2.0840  -2.0840  -1.9439  -1.8992
    -1.7908  -1.7908  -1.7087  -1.7087  -1.6645  -1.5038  -1.5038  -1.2750

          k = 0.4494 0.2595 0.0000 ( 24371 PWs)   bands (ev):

   -20.2920 -20.0303 -20.0136 -19.6796 -19.4966 -19.4474 -19.2648 -19.2239
   -18.9872 -18.8420 -18.7796 -18.5918  -7.9843  -7.9235  -7.8618  -7.7272
    -7.6860  -7.6448  -7.5218  -7.3942  -7.3126  -6.9649  -6.8750  -6.8544
    -6.0052  -5.4563  -5.4157  -5.0799  -4.5912  -4.2003  -3.6656  -3.6210
    -3.3167  -3.0156  -2.9102  -2.4547  -2.0504  -2.0127  -1.9620  -1.9489
    -1.8441  -1.7676  -1.6952  -1.6581  -1.5659  -1.5000  -1.4272  -1.2937

          k = 0.2996 0.1730 0.3111 ( 24340 PWs)   bands (ev):

   -20.3369 -19.9273 -19.8124 -19.7504 -19.6208 -19.5281 -19.2515 -19.1969
   -19.0659 -18.8804 -18.7731 -18.5281  -7.9852  -7.9284  -7.8607  -7.7076
    -7.6632  -7.5138  -7.4791  -7.2560  -7.1581  -7.1055  -6.9777  -6.8560
    -6.1288  -5.3601  -5.1898  -4.9043  -4.8612  -4.1993  -3.8770  -3.6669
    -3.5533  -2.9841  -2.8571  -2.3497  -2.1631  -2.1300  -2.0162  -1.9559
    -1.8465  -1.8069  -1.6701  -1.6303  -1.5552  -1.4904  -1.4111  -1.3653

          k = 0.4494-0.2595-0.9332 ( 24354 PWs)   bands (ev):

   -20.1383 -20.1183 -19.9127 -19.7822 -19.6101 -19.4861 -19.3085 -19.1530
   -18.9332 -18.8501 -18.7631 -18.6134  -7.9722  -7.9064  -7.8446  -7.7186
    -7.6693  -7.5836  -7.4533  -7.3271  -7.1911  -7.1380  -6.9253  -6.8584
    -5.7281  -5.6008  -5.2253  -5.1428  -4.7382  -4.2305  -3.9211  -3.5894
    -3.2058  -3.0348  -2.9264  -2.4211  -2.1561  -2.1264  -2.0874  -1.9704
    -1.9315  -1.8474  -1.6355  -1.5953  -1.5753  -1.5052  -1.4056  -1.3055

          k = 0.2996-0.3460-0.6221 ( 24354 PWs)   bands (ev):

   -20.0932 -20.0148 -19.8866 -19.8450 -19.6581 -19.6373 -19.1988 -19.1680
   -18.9168 -18.8895 -18.7481 -18.6363  -7.9863  -7.8566  -7.7967  -7.7485
    -7.7010  -7.5011  -7.3763  -7.3240  -7.0993  -7.0864  -6.8991  -6.8823
    -5.6334  -5.5663  -5.2802  -5.1910  -4.6968  -4.6290  -3.7070  -3.6070
    -3.2499  -3.1952  -2.8813  -2.5201  -2.2247  -2.1703  -2.0990  -2.0076
    -1.8900  -1.7964  -1.6839  -1.6456  -1.6160  -1.4842  -1.4404  -1.2909

          k = 0.0000 0.0000-1.8663 ( 24294 PWs)   bands (ev):

   -20.0185 -19.8981 -19.8970 -19.8970 -19.7706 -19.7706 -19.0640 -19.0640
   -18.9834 -18.9834 -18.7407 -18.6021  -8.0164  -7.7518  -7.7518  -7.7397
    -7.7397  -7.5677  -7.4349  -7.3174  -7.0210  -7.0210  -7.0188  -7.0188
    -5.5354  -5.3604  -5.0870  -5.0870  -4.9541  -4.9541  -3.4238  -3.4238
    -3.3696  -3.3696  -2.9062  -2.4462  -2.1781  -2.1781  -2.1543  -2.0836
    -2.0836  -1.7416  -1.6717  -1.5652  -1.5652  -1.4996  -1.4996  -1.2299

          k = 0.2996-0.3460 0.3111 ( 24347 PWs)   bands (ev):

   -20.2631 -20.0177 -19.8446 -19.7763 -19.6314 -19.5509 -19.2179 -19.0809
   -19.0320 -18.8633 -18.7876 -18.6066  -7.9743  -7.9178  -7.8218  -7.7256
    -7.6995  -7.6051  -7.4851  -7.3127  -7.2323  -6.9403  -6.8857  -6.8036
    -6.0210  -5.5339  -5.3261  -4.9471  -4.8161  -4.2997  -3.8741  -3.4659
    -3.2567  -3.1026  -2.9673  -2.4772  -2.1308  -2.0619  -2.0080  -1.9282
    -1.8522  -1.7570  -1.7071  -1.6691  -1.6298  -1.5068  -1.4228  -1.3201

     highest occupied level (ev):    -1.2299

!    total energy              =    -417.97522290 Ry
     estimated scf accuracy    <          8.4E-09 Ry

     The total energy is the sum of the following terms:
     one-electron contribution =    -257.27053734 Ry
     hartree contribution      =     167.89120096 Ry
     xc contribution           =    -106.53328337 Ry
     ewald contribution        =    -222.06260315 Ry

     convergence has been achieved in   6 iterations

     Forces acting on atoms (cartesian axes, Ry/au):

     atom    1 type  2   force =    -0.00290734    0.00689177    0.00561984
     atom    2 type  2   force =     0.00290734   -0.00689177   -0.00561984
     atom    3 type  2   force =    -0.00451478   -0.00596371    0.00561984
     atom    4 type  2   force =     0.00451478    0.00596371   -0.00561984
     atom    5 type  2   force =     0.00742211   -0.00092805    0.00561984
     atom    6 type  2   force =    -0.00742211    0.00092805   -0.00561984
     atom    7 type  2   force =    -0.00733842   -0.00154536   -0.00753213
     atom    8 type  2   force =     0.00733842    0.00154536    0.00753213
     atom    9 type  2   force =     0.00500753   -0.00558258   -0.00753213
     atom   10 type  2   force =    -0.00500753    0.00558258    0.00753213
     atom   11 type  2   force =     0.00233089    0.00712794   -0.00753213
     atom   12 type  2   force =    -0.00233089   -0.00712794    0.00753213
     atom   13 type  1   force =    -0.00307940   -0.00627752   -0.00943973
     atom   14 type  1   force =     0.00307940    0.00627752    0.00943973
     atom   15 type  1   force =     0.00697619    0.00047192   -0.00943973
     atom   16 type  1   force =    -0.00697619   -0.00047192    0.00943973
     atom   17 type  1   force =    -0.00389679    0.00580559   -0.00943973
     atom   18 type  1   force =     0.00389679   -0.00580559    0.00943973
     atom   19 type  1   force =     0.01276043   -0.00362816   -0.00386372
     atom   20 type  1   force =    -0.01276043    0.00362816    0.00386372
     atom   21 type  1   force =    -0.00323813    0.01286494   -0.00386372
     atom   22 type  1   force =     0.00323813   -0.01286494    0.00386372
     atom   23 type  1   force =    -0.00952230   -0.00923678   -0.00386372
     atom   24 type  1   force =     0.00952230    0.00923678    0.00386372
     atom   25 type  1   force =     0.00192067   -0.00219226    0.00720494
     atom   26 type  1   force =    -0.00192067    0.00219226   -0.00720494
     atom   27 type  1   force =     0.00093822    0.00275948    0.00720494
     atom   28 type  1   force =    -0.00093822   -0.00275948   -0.00720494
     atom   29 type  1   force =    -0.00285889   -0.00056722    0.00720494
     atom   30 type  1   force =     0.00285889    0.00056722   -0.00720494
     atom   31 type  1   force =    -0.00140829   -0.00746519   -0.00206531
     atom   32 type  1   force =     0.00140829    0.00746519    0.00206531
     atom   33 type  1   force =     0.00716919    0.00251298   -0.00206531
     atom   34 type  1   force =    -0.00716919   -0.00251298    0.00206531
     atom   35 type  1   force =    -0.00576090    0.00495221   -0.00206531
     atom   36 type  1   force =     0.00576090   -0.00495221    0.00206531

     Total force =     0.062537     Total SCF correction =     0.000263


     Computing stress (Cartesian axis) and pressure

          total   stress  (Ry/bohr**3)                   (kbar)     P=       65.33
   0.00043526   0.00000000   0.00000000           64.03        0.00        0.00
  -0.00000000   0.00043526   0.00000000           -0.00       64.03        0.00
   0.00000000   0.00000000   0.00046186            0.00        0.00       67.94

     Energy error            =      3.3E-02 Ry
     Gradient error          =      1.3E-02 Ry/Bohr

     number of scf cycles    =   4
     number of bfgs steps    =   3

     energy             old  =    -417.9426105915 Ry
     energy             new  =    -417.9752229002 Ry

     CASE: energy            _new < energy            _old

     new trust radius        =       0.0381168760 bohr
     new conv_thr            =       0.0000000129 Ry


ATOMIC_POSITIONS (crystal)
O                0.2723685122        0.0287822665        0.8568788250
O                0.7276314878        0.9712177445        0.1431211450
O                0.8568788250        0.2723685122        0.0287822665
O                0.1431211450        0.7276314878        0.9712177445
O                0.0287822665        0.8568788250        0.2723685122
O                0.9712177445        0.1431211450        0.7276314878
O                0.4745810697        0.7476119491        0.3300680165
O                0.5254189303        0.2523880509        0.6699319535
O                0.3300680165        0.4745810697        0.7476119491
O                0.6699319535        0.5254189303        0.2523880509
O                0.7476119491        0.3300680165        0.4745810697
O                0.2523880509        0.6699319535        0.5254189303
H                0.1376661985        0.0479897281        0.7887046513
H                0.8623337875        0.9520102639        0.2112953487
H                0.7887046513        0.1376661985        0.0479897281
H                0.2112953487        0.8623337875        0.9520102639
H                0.0479897281        0.7887046513        0.1376661985
H                0.9520102639        0.2112953487        0.8623337875
H                0.4371409515        0.2130375761        1.0084953831
H                0.5628590485        0.7869624389       -0.0084954041
H                1.0084953831        0.4371409515        0.2130375761
H               -0.0084954041        0.5628590485        0.7869624389
H                0.2130375761        1.0084953831        0.4371409515
H                0.7869624389       -0.0084954041        0.5628590485
H                0.7212122641        0.4142275044        0.3983908759
H                0.2787877359        0.5857724656        0.6016091541
H                0.3983908759        0.7212122641        0.4142275044
H                0.6016091541        0.2787877359        0.5857724656
H                0.4142275044        0.3983908759        0.7212122641
H                0.5857724656        0.6016091541        0.2787877359
H                0.7419153875        0.1911652807        0.3604330796
H                0.2580846125        0.8088347043        0.6395669204
H                0.3604330796        0.7419153875        0.1911652807
H                0.6395669204        0.2580846125        0.8088347043
H                0.1911652807        0.3604330796        0.7419153875
H                0.8088347043        0.6395669204        0.2580846125



     Writing config-only to output data dir ./iceII/iceII.save/ :
     XML data file
     NEW-OLD atomic charge density approx. for the potential

     total cpu time spent up to now is       43.3 secs

     per-process dynamical memory:    18.4 Mb

     Self-consistent Calculation

     iteration #  1     ecut=    90.00 Ry     beta= 0.70
     Davidson diagonalization with overlap
     ethr =  1.00E-06,  avg # of iterations =  5.4

     total cpu time spent up to now is       44.7 secs

     total energy              =    -417.98036480 Ry
     estimated scf accuracy    <       0.00085459 Ry

     iteration #  2     ecut=    90.00 Ry     beta= 0.70
     Davidson diagonalization with overlap
     ethr =  8.90E-07,  avg # of iterations =  2.0

     total cpu time spent up to now is       45.5 secs

     total energy              =    -417.98054316 Ry
     estimated scf accuracy    <       0.00009670 Ry

     iteration #  3     ecut=    90.00 Ry     beta= 0.70
     Davidson diagonalization with overlap
     ethr =  1.01E-07,  avg # of iterations =  2.0

     total cpu time spent up to now is       46.4 secs

     total energy              =    -417.98056519 Ry
     estimated scf accuracy    <       0.00000842 Ry

     iteration #  4     ecut=    90.00 Ry     beta= 0.70
     Davidson diagonalization with overlap
     ethr =  8.77E-09,  avg # of iterations =  2.0

     total cpu time spent up to now is       47.2 secs

[...]
H                0.1337276239        0.0412121199        0.7880336618
H                0.8662723621        0.9587878721        0.2119663382
H                0.7880336618        0.1337276239        0.0412121199
H                0.2119663382        0.8662723621        0.9587878721
H                0.0412121199        0.7880336618        0.1337276239
H                0.9587878721        0.2119663382        0.8662723621
H                0.4386147869        0.2141458122        0.9963093189
H                0.5613852131        0.7858542028        0.0036906601
H                0.9963093189        0.4386147869        0.2141458122
H                0.0036906601        0.5613852131        0.7858542028
H                0.2141458122        0.9963093189        0.4386147869
H                0.7858542028        0.0036906601        0.5613852131
H                0.7290434668        0.4155357779        0.4015329727
H                0.2709565332        0.5844641921        0.5984670573
H                0.4015329727        0.7290434668        0.4155357779
H                0.5984670573        0.2709565332        0.5844641921
H                0.4155357779        0.4015329727        0.7290434668
H                0.5844641921        0.5984670573        0.2709565332
H                0.7361075857        0.1836193449        0.3531098580
H                0.2638924143        0.8163806401        0.6468901420
H                0.3531098580        0.7361075857        0.1836193449
H                0.6468901420        0.2638924143        0.8163806401
H                0.1836193449        0.3531098580        0.7361075857
H                0.8163806401        0.6468901420        0.2638924143



     Writing config-only to output data dir ./iceII/iceII.save/ :
     XML data file
     NEW-OLD atomic charge density approx. for the potential

     total cpu time spent up to now is      121.9 secs

     per-process dynamical memory:    35.1 Mb

     Self-consistent Calculation

     iteration #  1     ecut=    90.00 Ry     beta= 0.70
     Davidson diagonalization with overlap
     ethr =  1.00E-06,  avg # of iterations =  2.0

     Threshold (ethr) on eigenvalues was too large:
     Diagonalizing with lowered threshold

     Davidson diagonalization with overlap
     ethr =  8.37E-09,  avg # of iterations =  5.0

     total cpu time spent up to now is      123.7 secs

     total energy              =    -417.99037340 Ry
     estimated scf accuracy    <       0.00001120 Ry

     iteration #  2     ecut=    90.00 Ry     beta= 0.70
     Davidson diagonalization with overlap
     ethr =  1.17E-08,  avg # of iterations =  2.0

     total cpu time spent up to now is      124.5 secs

     total energy              =    -417.99037513 Ry
     estimated scf accuracy    <       0.00000059 Ry

     iteration #  3     ecut=    90.00 Ry     beta= 0.70
     Davidson diagonalization with overlap
     ethr =  6.09E-10,  avg # of iterations =  2.1

     total cpu time spent up to now is      125.4 secs

     total energy              =    -417.99037525 Ry
     estimated scf accuracy    <       0.00000007 Ry

     iteration #  4     ecut=    90.00 Ry     beta= 0.70
     Davidson diagonalization with overlap
     ethr =  6.98E-11,  avg # of iterations =  2.4

     total cpu time spent up to now is      126.3 secs

     total energy              =    -417.99037526 Ry
     estimated scf accuracy    <          7.9E-09 Ry

     iteration #  5     ecut=    90.00 Ry     beta= 0.70
     Davidson diagonalization with overlap
     ethr =  8.19E-12,  avg # of iterations =  2.4

     total cpu time spent up to now is      127.2 secs

     End of self-consistent calculation

          k = 0.0000 0.0000 0.0000 ( 24335 PWs)   bands (ev):

   -20.4995 -19.7383 -19.7383 -19.4300 -19.4300 -19.4015 -19.3778 -19.3778
   -19.3392 -18.8917 -18.8917 -18.3763  -7.9774  -7.9218  -7.9218  -7.7564
    -7.6765  -7.6765  -7.3234  -7.2908  -7.2675  -7.2675  -7.1810  -7.1810
    -6.5526  -5.1558  -5.1558  -4.2533  -4.2533  -4.1294  -4.1294  -3.8841
    -3.7659  -2.8794  -2.8794  -2.0400  -2.0328  -2.0328  -1.9234  -1.8366
    -1.8366  -1.7467  -1.7216  -1.7216  -1.5893  -1.4196  -1.4196  -1.4002

          k =-0.1498-0.0865 0.3111 ( 24345 PWs)   bands (ev):

   -20.3856 -19.8089 -19.7291 -19.6466 -19.5875 -19.4881 -19.3008 -19.2406
   -19.1322 -18.8945 -18.8270 -18.4726  -7.9339  -7.9066  -7.8836  -7.7640
    -7.6559  -7.6160  -7.4036  -7.3952  -7.3007  -7.1833  -7.0932  -7.0643
    -6.3152  -5.3532  -5.1486  -4.7271  -4.3902  -4.1286  -3.9633  -3.7184
    -3.5770  -2.8699  -2.7936  -2.2447  -2.1230  -2.0599  -1.9627  -1.9437
    -1.8926  -1.8113  -1.6872  -1.6307  -1.5977  -1.5260  -1.4540  -1.4332

          k = 0.2996 0.1730-0.6221 ( 24380 PWs)   bands (ev):

   -20.0961 -20.0727 -19.7873 -19.7496 -19.5828 -19.5706 -19.2392 -19.2243
   -18.9029 -18.9019 -18.7171 -18.6904  -7.9201  -7.8829  -7.7991  -7.7537
    -7.6507  -7.6228  -7.4274  -7.3941  -7.3407  -7.1791  -6.9970  -6.9737
    -5.8594  -5.6879  -5.1724  -5.0532  -4.4411  -4.3384  -3.8087  -3.6719
    -3.0959  -3.0543  -2.7547  -2.5189  -2.1555  -2.1272  -2.0069  -1.9914
    -1.8983  -1.7955  -1.7732  -1.6560  -1.6298  -1.5592  -1.4493  -1.4415

          k =-0.1498 0.0865 0.6221 ( 24364 PWs)   bands (ev):

   -20.1538 -19.9340 -19.8935 -19.6978 -19.6543 -19.5591 -19.2423 -19.1153
   -19.0202 -18.8218 -18.8008 -18.6420  -7.9131  -7.8809  -7.8274  -7.7625
    -7.6350  -7.5630  -7.4403  -7.4098  -7.3969  -7.0935  -7.0391  -6.9843
    -5.8817  -5.5395  -5.4359  -4.8191  -4.5595  -4.3588  -3.7784  -3.5360
    -3.3595  -2.8802  -2.7535  -2.5544  -2.1912  -2.1341  -1.9882  -1.9351
    -1.8885  -1.8454  -1.7475  -1.6816  -1.6113  -1.5577  -1.4779  -1.4195

          k = 0.2996 0.3460-0.3111 ( 24347 PWs)   bands (ev):

   -20.2337 -19.9704 -19.8121 -19.7461 -19.6220 -19.5375 -19.2120 -19.0624
   -19.0265 -18.8770 -18.7940 -18.6172  -7.9259  -7.8820  -7.8416  -7.7614
    -7.6697  -7.6457  -7.5437  -7.4344  -7.3905  -7.1361  -7.0719  -6.9981
    -5.9309  -5.4755  -5.2123  -4.8667  -4.7981  -4.1000  -3.6828  -3.5760
    -3.2601  -2.9992  -2.7395  -2.4594  -2.1017  -2.0648  -1.9952  -1.9724
    -1.8838  -1.7746  -1.7611  -1.6687  -1.5935  -1.5773  -1.4592  -1.3524

          k = 0.1498 0.2595 0.0000 ( 24331 PWs)   bands (ev):

   -20.4167 -19.8712 -19.7717 -19.6051 -19.5676 -19.4438 -19.2872 -19.1771
   -19.1273 -18.9070 -18.8573 -18.4575  -7.9472  -7.9194  -7.9015  -7.7614
    -7.6903  -7.6721  -7.4989  -7.3868  -7.3415  -7.2232  -7.1577  -7.0696
    -6.2836  -5.2009  -5.0334  -4.7718  -4.7269  -3.9539  -3.7337  -3.6339
    -3.5771  -2.9184  -2.8927  -2.1055  -2.0332  -2.0179  -1.9925  -1.9424
    -1.8606  -1.7646  -1.7299  -1.7017  -1.5704  -1.4795  -1.4051  -1.3688

          k = 0.2996-0.1730-1.2442 ( 24374 PWs)   bands (ev):

   -20.2282 -20.1317 -19.7975 -19.6790 -19.5659 -19.4746 -19.1870 -19.1556
   -18.9787 -18.9580 -18.6671 -18.6635  -7.9294  -7.8716  -7.8555  -7.7655
    -7.7451  -7.6901  -7.6183  -7.4459  -7.3857  -7.1836  -7.1534  -7.0426
    -5.6787  -5.6380  -5.1434  -5.0051  -4.6477  -4.1222  -3.5241  -3.4418
    -3.2685  -3.1143  -2.7075  -2.4308  -2.0599  -2.0060  -1.9839  -1.9495
    -1.8957  -1.7764  -1.7472  -1.6524  -1.5909  -1.5377  -1.3678  -1.3522

          k = 0.0000 0.0000 0.9332 ( 24374 PWs)   bands (ev):

   -20.0655 -20.0655 -19.9168 -19.8501 -19.5620 -19.5620 -19.0822 -19.0822
   -18.9197 -18.8258 -18.7898 -18.7898  -7.8846  -7.8846  -7.8750  -7.7229
    -7.7229  -7.6916  -7.5404  -7.4536  -7.4536  -7.0213  -7.0213  -6.9851
    -5.6071  -5.6071  -5.5344  -4.9375  -4.5145  -4.5145  -3.4061  -3.3541
    -3.3541  -2.8191  -2.8191  -2.7413  -2.0565  -2.0565  -1.9595  -1.8884
    -1.8552  -1.8552  -1.7266  -1.6828  -1.6828  -1.5384  -1.5384  -1.3198

          k = 0.4494 0.2595 0.0000 ( 24371 PWs)   bands (ev):

   -20.2634 -20.0016 -19.9525 -19.6784 -19.4784 -19.4468 -19.2397 -19.2111
   -18.9584 -18.8472 -18.8056 -18.6037  -7.9065  -7.8919  -7.8705  -7.7516
    -7.7415  -7.6921  -7.5863  -7.4731  -7.4248  -7.1611  -7.1355  -7.0463
    -5.8517  -5.3062  -5.2373  -5.0935  -4.6102  -4.1555  -3.5789  -3.4618
    -3.2023  -2.9643  -2.8683  -2.3897  -2.0406  -2.0197  -1.9810  -1.9711
    -1.8778  -1.8038  -1.7252  -1.6870  -1.5637  -1.5056  -1.4207  -1.3298

          k = 0.2996 0.1730 0.3111 ( 24340 PWs)   bands (ev):

   -20.3067 -19.8767 -19.7584 -19.7374 -19.6274 -19.5017 -19.2543 -19.1695
   -19.0833 -18.8638 -18.7922 -18.5393  -7.9354  -7.8797  -7.8528  -7.7427
    -7.6732  -7.5988  -7.4733  -7.3962  -7.3462  -7.2500  -7.1791  -7.0253
    -6.0583  -5.2908  -5.1762  -4.8584  -4.7014  -4.0813  -3.7907  -3.5624
    -3.4844  -2.8903  -2.8036  -2.2634  -2.1497  -2.0917  -2.0266  -1.9734
    -1.9454  -1.7968  -1.7403  -1.6334  -1.5421  -1.5357  -1.4392  -1.3969

          k = 0.4494-0.2595-0.9332 ( 24354 PWs)   bands (ev):

   -20.1158 -20.0657 -19.8706 -19.7680 -19.6037 -19.4577 -19.3155 -19.1386
   -18.9378 -18.8269 -18.7591 -18.6483  -7.9146  -7.8588  -7.8219  -7.7312
    -7.6524  -7.6219  -7.5435  -7.4321  -7.3954  -7.2836  -7.1634  -7.0619
    -5.6255  -5.4754  -5.2370  -4.9984  -4.7126  -4.1803  -3.7841  -3.4388
    -3.1766  -2.8942  -2.8771  -2.3831  -2.1476  -2.1004  -2.0607  -2.0047
    -1.9877  -1.8416  -1.6893  -1.6612  -1.5657  -1.5097  -1.4098  -1.3722

          k = 0.2996-0.3460-0.6221 ( 24354 PWs)   bands (ev):

   -20.0351 -20.0068 -19.8464 -19.8187 -19.6297 -19.6230 -19.1952 -19.1810
   -18.9059 -18.8915 -18.7109 -18.6874  -7.9237  -7.8323  -7.7777  -7.7162
    -7.6953  -7.5235  -7.4819  -7.4658  -7.3430  -7.2248  -7.0726  -7.0529
    -5.6492  -5.5535  -5.2272  -5.0794  -4.5375  -4.4721  -3.6577  -3.5341
    -3.1417  -3.1085  -2.7682  -2.4626  -2.1930  -2.1202  -2.0862  -2.0598
    -1.9347  -1.8549  -1.7175  -1.6660  -1.6037  -1.4982  -1.4769  -1.3742

          k = 0.0000 0.0000-1.8663 ( 24294 PWs)   bands (ev):

   -19.9495 -19.8877 -19.8301 -19.8301 -19.7988 -19.7988 -19.0521 -19.0521
   -18.9869 -18.9869 -18.6852 -18.6706  -7.9337  -7.7204  -7.7204  -7.7196
    -7.7196  -7.5985  -7.5079  -7.4201  -7.2999  -7.2999  -7.1583  -7.1583
    -5.6451  -5.2551  -4.9806  -4.9806  -4.8409  -4.8409  -3.3094  -3.3094
    -3.2928  -3.2928  -2.7676  -2.4291  -2.1524  -2.1524  -2.1311  -2.1311
    -2.0934  -1.8066  -1.7049  -1.6045  -1.6045  -1.4962  -1.4962  -1.3160

          k = 0.2996-0.3460 0.3111 ( 24347 PWs)   bands (ev):

   -20.2342 -19.9629 -19.8334 -19.7314 -19.6237 -19.5337 -19.2142 -19.0787
   -19.0032 -18.8956 -18.7788 -18.6211  -7.9121  -7.8904  -7.8432  -7.7383
    -7.6963  -7.6502  -7.5585  -7.4199  -7.3887  -7.1167  -7.0763  -7.0142
    -5.9221  -5.4512  -5.2877  -4.8335  -4.7208  -4.1998  -3.8049  -3.3874
    -3.1784  -3.0043  -2.9139  -2.3960  -2.0824  -2.0647  -1.9857  -1.9387
    -1.9133  -1.8141  -1.7574  -1.6906  -1.5981  -1.5344  -1.4633  -1.3587

     highest occupied level (ev):    -1.3160

!    total energy              =    -417.99037527 Ry
     estimated scf accuracy    <          4.8E-10 Ry

     The total energy is the sum of the following terms:
     one-electron contribution =    -258.40160838 Ry
     hartree contribution      =     168.45158288 Ry
     xc contribution           =    -106.52330253 Ry
     ewald contribution        =    -221.51704724 Ry

     convergence has been achieved in   5 iterations

     Forces acting on atoms (cartesian axes, Ry/au):

     atom    1 type  2   force =     0.00016625    0.00010742    0.00061408
     atom    2 type  2   force =    -0.00016625   -0.00010742   -0.00061408
     atom    3 type  2   force =    -0.00017615    0.00009027    0.00061408
     atom    4 type  2   force =     0.00017615   -0.00009027   -0.00061408
     atom    5 type  2   force =     0.00000990   -0.00019769    0.00061408
     atom    6 type  2   force =    -0.00000990    0.00019769   -0.00061408
     atom    7 type  2   force =    -0.00006968   -0.00082137   -0.00031209
     atom    8 type  2   force =     0.00006968    0.00082137    0.00031209
     atom    9 type  2   force =     0.00074617    0.00035035   -0.00031209
     atom   10 type  2   force =    -0.00074617   -0.00035035    0.00031209
     atom   11 type  2   force =    -0.00067649    0.00047103   -0.00031209
     atom   12 type  2   force =     0.00067649   -0.00047103    0.00031209
     atom   13 type  1   force =     0.00020086    0.00001555    0.00001893
     atom   14 type  1   force =    -0.00020086   -0.00001555   -0.00001893
     atom   15 type  1   force =    -0.00011389    0.00016617    0.00001893
     atom   16 type  1   force =     0.00011389   -0.00016617   -0.00001893
     atom   17 type  1   force =    -0.00008696   -0.00018172    0.00001893
     atom   18 type  1   force =     0.00008696    0.00018172   -0.00001893
     atom   19 type  1   force =    -0.00043135    0.00069051    0.00009574
     atom   20 type  1   force =     0.00043135   -0.00069051   -0.00009574
     atom   21 type  1   force =    -0.00038232   -0.00071882    0.00009574
     atom   22 type  1   force =     0.00038232    0.00071882   -0.00009574
     atom   23 type  1   force =     0.00081367    0.00002831    0.00009574
     atom   24 type  1   force =    -0.00081367   -0.00002831   -0.00009574
     atom   25 type  1   force =     0.00054471   -0.00071947   -0.00052870
     atom   26 type  1   force =    -0.00054471    0.00071947    0.00052870
     atom   27 type  1   force =     0.00035073    0.00083147   -0.00052870
     atom   28 type  1   force =    -0.00035073   -0.00083147    0.00052870
     atom   29 type  1   force =    -0.00089544   -0.00011199   -0.00052870
     atom   30 type  1   force =     0.00089544    0.00011199    0.00052870
     atom   31 type  1   force =     0.00042599    0.00016503   -0.00012374
     atom   32 type  1   force =    -0.00042599   -0.00016503    0.00012374
     atom   33 type  1   force =    -0.00035591    0.00028641   -0.00012374
     atom   34 type  1   force =     0.00035591   -0.00028641    0.00012374
     atom   35 type  1   force =    -0.00007008   -0.00045143   -0.00012374
     atom   36 type  1   force =     0.00007008    0.00045143    0.00012374

     Total force =     0.004398     Total SCF correction =     0.000080


     Computing stress (Cartesian axis) and pressure

          total   stress  (Ry/bohr**3)                   (kbar)     P=       62.65
   0.00044600  -0.00000000  -0.00000000           65.61       -0.00       -0.00
   0.00000000   0.00044600   0.00000000            0.00       65.61        0.00
   0.00000000   0.00000000   0.00038569            0.00        0.00       56.74

     Energy error            =      3.7E-05 Ry
     Gradient error          =      9.0E-04 Ry/Bohr

     bfgs converged in  16 scf cycles and  15 bfgs steps
     (criteria: energy <  1.0E-04 Ry, force <  1.0E-03 Ry/Bohr)

     End of BFGS Geometry Optimization

     Final energy             =    -417.9903752652 Ry

     File ./iceII/iceII.bfgs deleted, as requested
Begin final coordinates

ATOMIC_POSITIONS (crystal)
O                0.2731248346        0.0283687096        0.8572331881
O                0.7268751654        0.9716313014        0.1427667819
O                0.8572331881        0.2731248346        0.0283687096
O                0.1427667819        0.7268751654        0.9716313014
O                0.0283687096        0.8572331881        0.2731248346
O                0.9716313014        0.1427667819        0.7268751654
O                0.4708555528        0.7449927398        0.3233071135
O                0.5291444472        0.2550072602        0.6766928565
O                0.3233071135        0.4708555528        0.7449927398
O                0.6766928565        0.5291444472        0.2550072602
O                0.7449927398        0.3233071135        0.4708555528
O                0.2550072602        0.6766928565        0.5291444472
H                0.1337276239        0.0412121199        0.7880336618
H                0.8662723621        0.9587878721        0.2119663382
H                0.7880336618        0.1337276239        0.0412121199
H                0.2119663382        0.8662723621        0.9587878721
H                0.0412121199        0.7880336618        0.1337276239
H                0.9587878721        0.2119663382        0.8662723621
H                0.4386147869        0.2141458122        0.9963093189
H                0.5613852131        0.7858542028        0.0036906601
H                0.9963093189        0.4386147869        0.2141458122
H                0.0036906601        0.5613852131        0.7858542028
H                0.2141458122        0.9963093189        0.4386147869
H                0.7858542028        0.0036906601        0.5613852131
H                0.7290434668        0.4155357779        0.4015329727
H                0.2709565332        0.5844641921        0.5984670573
H                0.4015329727        0.7290434668        0.4155357779
H                0.5984670573        0.2709565332        0.5844641921
H                0.4155357779        0.4015329727        0.7290434668
H                0.5844641921        0.5984670573        0.2709565332
H                0.7361075857        0.1836193449        0.3531098580
H                0.2638924143        0.8163806401        0.6468901420
H                0.3531098580        0.7361075857        0.1836193449
H                0.6468901420        0.2638924143        0.8163806401
H                0.1836193449        0.3531098580        0.7361075857
H                0.8163806401        0.6468901420        0.2638924143
End final coordinates



     Writing all to output data dir ./iceII/iceII.save/ :
     XML data file, charge density, pseudopotentials, collected wavefunctions

     init_run     :      2.42s CPU      2.53s WALL (       1 calls)
     electrons    :    103.65s CPU    106.97s WALL (      16 calls)
     update_pot   :      1.76s CPU      1.90s WALL (      15 calls)
     forces       :      1.60s CPU      1.63s WALL (      16 calls)
     stress       :     13.47s CPU     13.62s WALL (      16 calls)

     Called by init_run:
     wfcinit      :      0.32s CPU      0.33s WALL (       1 calls)
     potinit      :      1.60s CPU      1.68s WALL (       1 calls)
     hinit0       :      0.38s CPU      0.39s WALL (       1 calls)

     Called by electrons:
     c_bands      :     80.09s CPU     81.02s WALL (     111 calls)
     sum_band     :     10.91s CPU     11.01s WALL (     111 calls)
     v_of_rho     :     14.96s CPU     16.19s WALL (     122 calls)
     newd         :      0.42s CPU      0.43s WALL (     122 calls)
     mix_rho      :      0.20s CPU      0.21s WALL (     111 calls)
     vdW_kernel   :      1.50s CPU      1.52s WALL (       1 calls)

     Called by c_bands:
     init_us_2    :      1.14s CPU      1.20s WALL (    1020 calls)
     cegterg      :     78.05s CPU     78.74s WALL (     444 calls)

     Called by *egterg:
     cdiaghg      :      6.42s CPU      6.44s WALL (    1648 calls)
     h_psi        :     60.19s CPU     60.80s WALL (    1732 calls)
     s_psi        :      2.19s CPU      2.21s WALL (    1732 calls)
     g_psi        :      0.15s CPU      0.15s WALL (    1284 calls)

     Called by h_psi:
     h_psi:calbec :      3.91s CPU      3.94s WALL (    1732 calls)
     vloc_psi     :     53.62s CPU     54.17s WALL (    1732 calls)
     add_vuspsi   :      2.31s CPU      2.32s WALL (    1732 calls)

     General routines
     calbec       :      5.44s CPU      5.49s WALL (    2496 calls)
     fft          :      7.21s CPU      7.33s WALL (    8294 calls)
     ffts         :      0.09s CPU      0.09s WALL (     111 calls)
     fftw         :     55.77s CPU     56.31s WALL (  157766 calls)

     Parallel routines

     PWSCF        :   2m 4.24s CPU   2m 9.06s WALL


   This run was terminated on:  13:55:12   1Apr2026            

=------------------------------------------------------------------------------=
   JOB DONE.
=------------------------------------------------------------------------------=
