
     Program PWSCF v.7.3.1 starts on 26Mar2026 at 14:43: 7 

     This program is part of the open-source Quantum ESPRESSO suite
     for quantum simulation of materials; please cite
         "P. Giannozzi et al., J. Phys.:Condens. Matter 21 395502 (2009);
         "P. Giannozzi et al., J. Phys.:Condens. Matter 29 465901 (2017);
         "P. Giannozzi et al., J. Chem. Phys. 152 154105 (2020);
          URL http://www.quantum-espresso.org", 
     in publications or presentations arising from this work. More details at
     http://www.quantum-espresso.org/quote

     Parallel version (MPI), running on   128 processors

     MPI processes distributed on     1 nodes
     242944 MiB available memory on the printing compute node when the environment starts

     Waiting for input...
     Reading input from standard input

     Current dimensions of program PWSCF are:
     Max number of different atomic species (ntypx) = 10
     Max number of k-points (npk) =  40000
     Max angular momentum in pseudopotentials (lmaxx) =  4

     IMPORTANT: XC functional enforced from input :
     Exchange-correlation= VDW-DF2
                           (   1   4  13   0   2   0   0)
     Any further DFT definition will be discarded
     Please, verify this is what you really want


     K-points division:     npool     =       4
     R & G space division:  proc/nbgrp/npool/nimage =      32
     Subspace diagonalization in iterative solution of the eigenvalue problem:
     a serial algorithm will be used


     Parallelization info
     --------------------
     sticks:   dense  smooth     PW     G-vecs:    dense   smooth      PW
     Min         156     156     46                 6107     6107     987
     Max         157     157     47                 6110     6110     990
     Sum        5009    5009   1485               195473   195473   31603

     Using Slab Decomposition



     bravais-lattice index     =            5
     lattice parameter (alat)  =      13.7905  a.u.
     unit-cell volume          =    1694.4791 (a.u.)^3
     number of atoms/cell      =           36
     number of atomic types    =            2
     number of electrons       =        96.00
     number of Kohn-Sham states=           48
     kinetic-energy cutoff     =      90.0000  Ry
     charge density cutoff     =     360.0000  Ry
     scf convergence threshold =      1.0E-07
     mixing beta               =       0.7000
     number of iterations used =            8  plain     mixing
     Exchange-correlation= VDW-DF2
                           (   1   4  13   0   2   0   0)

     celldm(1)=  13.790540  celldm(2)=   0.000000  celldm(3)=   0.000000
     celldm(4)=  -0.392337  celldm(5)=   0.000000  celldm(6)=   0.000000

     crystal axes: (cart. coord. in units of alat)
               a(1) = (   0.834367  -0.481722   0.267909 )  
               a(2) = (   0.000000   0.963444   0.267909 )  
               a(3) = (  -0.834367  -0.481722   0.267909 )  

     reciprocal axes: (cart. coord. in units 2 pi/alat)
               b(1) = (  0.599257 -0.345981  1.244203 )  
               b(2) = ( -0.000000  0.691962  1.244203 )  
               b(3) = ( -0.599257 -0.345981  1.244203 )  


     PseudoPot. # 1 for H  read from file:
     ./H.pbe-van_ak.UPF
     MD5 check sum: 077eb6d537518a38cb46c6de387227b7
     Pseudo is Ultrasoft, Zval =  1.0
     Generated by new atomic code, or converted to UPF format
     Using radial grid of  615 points,  1 beta functions with: 
                l(1) =   0
     Q(r) pseudized with  8 coefficients,  rinner =    0.800

     PseudoPot. # 2 for O  read from file:
     ./O.pbe-van_ak.UPF
     MD5 check sum: 78c19812648e8988a0fe644b0f25305e
     Pseudo is Ultrasoft, Zval =  6.0
     Generated by new atomic code, or converted to UPF format
     Using radial grid of  737 points,  4 beta functions with: 
                l(1) =   0
                l(2) =   0
                l(3) =   1
                l(4) =   1
     Q(r) pseudized with  8 coefficients,  rinner =    0.800   0.800   0.800


     atomic species   valence    mass     pseudopotential
     H                 1.00     1.00800     H ( 1.00)
     O                 6.00    16.00000     O ( 1.00)

      6 Sym. Ops., with inversion, found



   Cartesian axes

     site n.     atom                  positions (alat units)
         1        O      tau(   1) = (  -0.4881587  -0.5153728   0.3102004  )
         2        O      tau(   2) = (   0.4881587   0.5153729   0.4935268  )
         3        O      tau(   3) = (   0.6904053  -0.1650714   0.3102004  )
         4        O      tau(   4) = (  -0.6904053   0.1650714   0.4935268  )
         5        O      tau(   5) = (  -0.2022466   0.6804442   0.3102004  )
         6        O      tau(   6) = (   0.2022466  -0.6804442   0.4935268  )
         7        O      tau(   7) = (   0.1208629   0.3351200   0.4137471  )
         8        O      tau(   8) = (  -0.1208629  -0.3351200   0.3899800  )
         9        O      tau(   9) = (  -0.3506539  -0.0628897   0.4137471  )
        10        O      tau(  10) = (   0.3506539   0.0628897   0.3899800  )
        11        O      tau(  11) = (   0.2297910  -0.2722304   0.4137471  )
        12        O      tau(  12) = (  -0.2297910   0.2722304   0.3899800  )
        13        H      tau(  13) = (  -0.5430428  -0.4102686   0.2622098  )
        14        H      tau(  14) = (   0.5430428   0.4102686   0.5415173  )
        15        H      tau(  15) = (   0.6268245  -0.2651546   0.2622098  )
        16        H      tau(  16) = (  -0.6268245   0.2651546   0.5415173  )
        17        H      tau(  17) = (  -0.0837816   0.6754232   0.2622098  )
        18        H      tau(  18) = (   0.0837817  -0.6754232   0.5415173  )
        19        H      tau(  19) = (  -0.4681736  -0.4859583   0.4327384  )
        20        H      tau(  20) = (   0.4681736   0.4859583   0.3709887  )
        21        H      tau(  21) = (   0.6549390  -0.1624711   0.4327384  )
        22        H      tau(  22) = (  -0.6549390   0.1624711   0.3709887  )
        23        H      tau(  23) = (  -0.1867654   0.6484294   0.4327384  )
        24        H      tau(  24) = (   0.1867654  -0.6484294   0.3709887  )
        25        H      tau(  25) = (   0.2718867  -0.1516220   0.4118766  )
        26        H      tau(  26) = (  -0.2718867   0.1516219   0.3918506  )
        27        H      tau(  27) = (  -0.0046349   0.3112717   0.4118766  )
        28        H      tau(  28) = (   0.0046349  -0.3112717   0.3918506  )
        29        H      tau(  29) = (  -0.2672518  -0.1596498   0.4118766  )
        30        H      tau(  30) = (   0.2672518   0.1596498   0.3918506  )
        31        H      tau(  31) = (   0.3136186  -0.3416266   0.3473301  )
        32        H      tau(  32) = (  -0.3136186   0.3416266   0.4563970  )
        33        H      tau(  33) = (   0.1390481   0.4424150   0.3473301  )
        34        H      tau(  34) = (  -0.1390480  -0.4424150   0.4563970  )
        35        H      tau(  35) = (  -0.4526667  -0.1007884   0.3473301  )
        36        H      tau(  36) = (   0.4526666   0.1007884   0.4563970  )

     number of k points=    14
                       cart. coord. in units 2pi/alat
        k(    1) = (   0.0000000   0.0000000   0.0000000), wk =   0.0312500
        k(    2) = (  -0.1498141  -0.0864952   0.3110508), wk =   0.1875000
        k(    3) = (   0.2996283   0.1729905  -0.6221017), wk =   0.0937500
        k(    4) = (  -0.1498141   0.0864952   0.6221017), wk =   0.1875000
        k(    5) = (   0.2996283   0.3459809  -0.3110508), wk =   0.1875000
        k(    6) = (   0.1498141   0.2594857   0.0000000), wk =   0.1875000
        k(    7) = (   0.2996283  -0.1729905  -1.2442034), wk =   0.0937500
        k(    8) = (   0.0000000   0.0000000   0.9331525), wk =   0.0625000
        k(    9) = (   0.4494424   0.2594857   0.0000000), wk =   0.1875000
        k(   10) = (   0.2996283   0.1729905   0.3110508), wk =   0.1875000
        k(   11) = (   0.4494424  -0.2594857  -0.9331525), wk =   0.1875000
        k(   12) = (   0.2996283  -0.3459809  -0.6221017), wk =   0.1875000
        k(   13) = (   0.0000000   0.0000000  -1.8663050), wk =   0.0312500
        k(   14) = (   0.2996283  -0.3459809   0.3110508), wk =   0.1875000

     Dense  grid:   195473 G-vectors     FFT dimensions: (  90,  90,  90)

     Estimated max dynamical RAM per process >      13.32 MB

     Estimated total dynamical RAM >       1.53 GB

     Initial potential from superposition of free atoms

     starting charge      95.9998, renormalised to      96.0000


     %%%%%%%%%%%%%%%%%%%%%%%%%%%%%%%%%%%%%%%%%%%%%%%%%%%%%%%%%%%%%%%%%%%%%%%%
     %                                                                      %
     % You are using vdW-DF, which was implemented by the Thonhauser group. %
     % Please cite the following two papers that made this development      %
     % possible and the two reviews that describe the various versions:     %
     %                                                                      %
     %   T. Thonhauser et al., PRL 115, 136402 (2015).                      %
     %   T. Thonhauser et al., PRB 76, 125112 (2007).                       %
     %   K. Berland et al., Rep. Prog. Phys. 78, 066501 (2015).             %
     %   D.C. Langreth et al., J. Phys.: Condens. Matter 21, 084203 (2009). %
     %                                                                      %
     % If you are calculating stress with vdW-DF, please also cite:         %
     %                                                                      %
     %   R. Sabatini et al., J. Phys.: Condens. Matter 24, 424209 (2012).   %
     %                                                                      %
     %%%%%%%%%%%%%%%%%%%%%%%%%%%%%%%%%%%%%%%%%%%%%%%%%%%%%%%%%%%%%%%%%%%%%%%%

     %%%%%%%%%%%%%%%%%%%%%%%%%%%%%%%%%%%%%%%%%%%%%%%%%%%%%%%%%%%%%%%%%%%%%%%%
     %                                                                      %
     %  vdW-DF NEWS:                                                        %
     %                                                                      %
     %  * vdW-DF3 is now available. DOI: 10.1021/acs.jctc.0c00471           %
     %    use with input_dft = 'vdW-DF3-opt1' or 'vdW-DF3-opt2'             %
     %                                                                      %
     %  * Unscreened and range-separated hybrid vdW-DF-cx functionals       %
     %    DOI: 10.1063/1.4986522 and 10.1088/1361-648X/ac2ad2               %
     %    use with input_dft = 'vdW-DF-cx0'    and 'vdW-DF-ahcx'            %
     %  * Unscreened and range-separated hybrid vdW-DF2-b86r functionals    %
     %    DOI: 10.1063/1.4986522 and DOI: 10.1103/PhysRevX.12.041003        %
     %    use with input_dft = 'vdW-DF2-br0' and 'vdW-DF2-ahbr'             %
     %                                                                      %
     %%%%%%%%%%%%%%%%%%%%%%%%%%%%%%%%%%%%%%%%%%%%%%%%%%%%%%%%%%%%%%%%%%%%%%%%


     Starting wfcs are   72 randomized atomic wfcs

     total cpu time spent up to now is        2.7 secs

     per-process dynamical memory:    18.0 Mb

     Self-consistent Calculation

     iteration #  1     ecut=    90.00 Ry     beta= 0.70
     Davidson diagonalization with overlap
     ethr =  1.00E-02,  avg # of iterations =  2.0

     total cpu time spent up to now is        3.6 secs

     total energy              =    -415.61348273 Ry
     estimated scf accuracy    <       5.25778040 Ry

     iteration #  2     ecut=    90.00 Ry     beta= 0.70
     Davidson diagonalization with overlap
     ethr =  5.48E-03,  avg # of iterations =  3.0

     total cpu time spent up to now is        4.6 secs

     total energy              =    -417.38385531 Ry
     estimated scf accuracy    <       2.72138661 Ry

     iteration #  3     ecut=    90.00 Ry     beta= 0.70
     Davidson diagonalization with overlap
     ethr =  2.83E-03,  avg # of iterations =  2.0

     total cpu time spent up to now is        5.5 secs

     total energy              =    -417.74176441 Ry
     estimated scf accuracy    <       0.10438101 Ry

     iteration #  4     ecut=    90.00 Ry     beta= 0.70
     Davidson diagonalization with overlap
     ethr =  1.09E-04,  avg # of iterations =  4.0

     total cpu time spent up to now is        6.6 secs

     total energy              =    -417.81683794 Ry
     estimated scf accuracy    <       0.13209049 Ry

     iteration #  5     ecut=    90.00 Ry     beta= 0.70
     Davidson diagonalization with overlap
     ethr =  1.09E-04,  avg # of iterations =  2.0

     total cpu time spent up to now is        7.4 secs

     total energy              =    -417.82354173 Ry
     estimated scf accuracy    <       0.01698406 Ry

     iteration #  6     ecut=    90.00 Ry     beta= 0.70
     Davidson diagonalization with overlap
     ethr =  1.77E-05,  avg # of iterations =  2.0

     total cpu time spent up to now is        8.3 secs

     total energy              =    -417.82414329 Ry
     estimated scf accuracy    <       0.00347837 Ry

     iteration #  7     ecut=    90.00 Ry     beta= 0.70
     Davidson diagonalization with overlap
     ethr =  3.62E-06,  avg # of iterations =  3.0

     total cpu time spent up to now is        9.3 secs

     total energy              =    -417.82581375 Ry
     estimated scf accuracy    <       0.00030688 Ry

     iteration #  8     ecut=    90.00 Ry     beta= 0.70
     Davidson diagonalization with overlap
     ethr =  3.20E-07,  avg # of iterations =  2.1

     total cpu time spent up to now is       10.1 secs

     total energy              =    -417.82568569 Ry
     estimated scf accuracy    <       0.00034568 Ry

     iteration #  9     ecut=    90.00 Ry     beta= 0.70
     Davidson diagonalization with overlap
     ethr =  3.20E-07,  avg # of iterations =  2.0

     total cpu time spent up to now is       10.9 secs

     total energy              =    -417.82571815 Ry
     estimated scf accuracy    <       0.00002514 Ry

     iteration # 10     ecut=    90.00 Ry     beta= 0.70
     Davidson diagonalization with overlap
     ethr =  2.62E-08,  avg # of iterations =  2.9

     total cpu time spent up to now is       11.8 secs

     total energy              =    -417.82572570 Ry
     estimated scf accuracy    <       0.00000154 Ry

     iteration # 11     ecut=    90.00 Ry     beta= 0.70
     Davidson diagonalization with overlap
     ethr =  1.60E-09,  avg # of iterations =  3.4

     total cpu time spent up to now is       12.7 secs

     total energy              =    -417.82572624 Ry
     estimated scf accuracy    <       0.00000021 Ry

     iteration # 12     ecut=    90.00 Ry     beta= 0.70
     Davidson diagonalization with overlap
     ethr =  2.24E-10,  avg # of iterations =  2.9

     total cpu time spent up to now is       13.6 secs

     End of self-consistent calculation

          k = 0.0000 0.0000 0.0000 ( 24419 PWs)   bands (ev):

   -21.1848 -20.5078 -20.5078 -20.2408 -20.2408 -20.1889 -20.1889 -20.1877
   -20.1665 -19.7666 -19.7666 -19.3373  -8.5316  -8.4629  -8.4629  -8.4051
    -8.2823  -8.2823  -7.9460  -7.9413  -7.9413  -7.9010  -7.8608  -7.8608
    -6.5362  -5.2531  -5.2531  -4.4946  -4.4946  -4.3124  -4.3124  -4.0849
    -4.0029  -3.1992  -3.1992  -2.4337  -2.2879  -2.2879  -2.2261  -2.0572
    -2.0572  -2.0114  -1.9004  -1.9004  -1.8320  -1.6872  -1.6567  -1.6567

          k =-0.1498-0.0865 0.3111 ( 24428 PWs)   bands (ev):

   -21.0821 -20.5669 -20.4935 -20.4306 -20.3849 -20.2864 -20.1174 -20.0606
   -19.9706 -19.7746 -19.7164 -19.4171  -8.4854  -8.4672  -8.4414  -8.3883
    -8.2711  -8.2390  -8.0289  -7.9943  -7.9696  -7.8596  -7.7831  -7.7703
    -6.3266  -5.4442  -5.2791  -4.8868  -4.5890  -4.3170  -4.1373  -3.9539
    -3.7992  -3.1911  -3.1235  -2.5809  -2.3981  -2.3147  -2.2474  -2.1545
    -2.1271  -2.0442  -1.9244  -1.8714  -1.7900  -1.7604  -1.6863  -1.6556

          k = 0.2996 0.1730-0.6221 ( 24464 PWs)   bands (ev):

   -20.8184 -20.8055 -20.5464 -20.5168 -20.3757 -20.3713 -20.0488 -20.0457
   -19.7915 -19.7728 -19.6154 -19.6092  -8.4732  -8.4491  -8.3950  -8.3679
    -8.2687  -8.2150  -8.0479  -8.0449  -7.9828  -7.8453  -7.7180  -7.7007
    -5.9222  -5.7561  -5.2603  -5.2531  -4.5926  -4.5005  -3.9877  -3.8727
    -3.3440  -3.3308  -3.0944  -2.8265  -2.4780  -2.3581  -2.2413  -2.2273
    -2.1583  -2.0635  -2.0031  -1.8708  -1.8596  -1.7455  -1.6649  -1.6526

          k =-0.1498 0.0865 0.6221 ( 24451 PWs)   bands (ev):

   -20.8737 -20.6761 -20.6440 -20.4695 -20.4425 -20.3530 -20.0600 -19.9458
   -19.8812 -19.7165 -19.6949 -19.5603  -8.4649  -8.4465  -8.4165  -8.3719
    -8.2601  -8.1881  -8.0529  -8.0448  -8.0212  -7.7890  -7.7460  -7.7074
    -5.9574  -5.6091  -5.5368  -4.9894  -4.7215  -4.5230  -3.9732  -3.7215
    -3.5773  -3.1905  -3.0847  -2.8671  -2.4708  -2.3878  -2.2244  -2.2082
    -2.1198  -2.0970  -2.0091  -1.8792  -1.8394  -1.7518  -1.6925  -1.6305

          k = 0.2996 0.3460-0.3111 ( 24417 PWs)   bands (ev):

   -20.9454 -20.7113 -20.5719 -20.5213 -20.4010 -20.3230 -20.0472 -19.9064
   -19.8824 -19.7682 -19.6833 -19.5376  -8.4738  -8.4557  -8.4187  -8.3571
    -8.2741  -8.2449  -8.1295  -8.0662  -8.0286  -7.8214  -7.7711  -7.7187
    -5.9743  -5.5834  -5.3247  -5.0450  -4.9461  -4.3190  -3.8752  -3.7849
    -3.5620  -3.2766  -3.0716  -2.7772  -2.3806  -2.3353  -2.2550  -2.1885
    -2.1244  -2.0263  -1.9699  -1.9127  -1.8022  -1.7982  -1.6782  -1.5702

          k = 0.1498 0.2595 0.0000 ( 24401 PWs)   bands (ev):

   -21.1101 -20.6268 -20.5402 -20.3854 -20.3484 -20.2433 -20.1150 -20.0239
   -19.9682 -19.7812 -19.7362 -19.4041  -8.5054  -8.4600  -8.4526  -8.3872
    -8.2910  -8.2777  -8.0749  -8.0217  -7.9794  -7.8871  -7.8384  -7.7758
    -6.3058  -5.3185  -5.1716  -4.9302  -4.8804  -4.2031  -3.9790  -3.8682
    -3.8228  -3.2440  -3.1951  -2.5001  -2.2911  -2.2714  -2.2592  -2.1415
    -2.0730  -2.0296  -1.9360  -1.9175  -1.7936  -1.7482  -1.6313  -1.6024

          k = 0.2996-0.1730-1.2442 ( 24430 PWs)   bands (ev):

   -20.9380 -20.8600 -20.5658 -20.4500 -20.3462 -20.2685 -20.0289 -20.0023
   -19.8395 -19.8297 -19.5801 -19.5718  -8.4820  -8.4438  -8.4206  -8.3607
    -8.3063  -8.2989  -8.1777  -8.0799  -8.0115  -7.8435  -7.8386  -7.7562
    -5.7645  -5.7446  -5.2820  -5.1195  -4.8273  -4.3576  -3.7686  -3.7438
    -3.5551  -3.4103  -2.9957  -2.7574  -2.3068  -2.2739  -2.2229  -2.1975
    -2.0967  -2.0321  -1.9716  -1.8822  -1.8522  -1.7626  -1.5858  -1.5798

          k = 0.0000 0.0000 0.9332 ( 24458 PWs)   bands (ev):

   -20.7938 -20.7938 -20.6632 -20.6187 -20.3444 -20.3444 -19.9383 -19.9383
   -19.7637 -19.7259 -19.6872 -19.6872  -8.4570  -8.4570  -8.4332  -8.3014
    -8.3014  -8.2906  -8.1688  -8.0740  -8.0740  -7.7387  -7.7387  -7.7074
    -5.6683  -5.6683  -5.6358  -5.0871  -4.7083  -4.7083  -3.6104  -3.6104
    -3.5691  -3.1524  -3.1524  -3.0459  -2.3299  -2.3299  -2.2088  -2.1728
    -2.0802  -2.0802  -2.0037  -1.8793  -1.8793  -1.7493  -1.7493  -1.5364

          k = 0.4494 0.2595 0.0000 ( 24448 PWs)   bands (ev):

   -20.9719 -20.7377 -20.7034 -20.4518 -20.2652 -20.2469 -20.0710 -20.0553
   -19.8290 -19.7324 -19.6914 -19.5247  -8.4697  -8.4459  -8.4368  -8.3553
    -8.3247  -8.2670  -8.1781  -8.0845  -8.0381  -7.8366  -7.8199  -7.7614
    -5.9236  -5.4351  -5.3565  -5.2309  -4.7786  -4.3670  -3.8627  -3.7660
    -3.4687  -3.2617  -3.1521  -2.7234  -2.2887  -2.2732  -2.2455  -2.1906
    -2.1031  -2.0444  -1.9555  -1.9161  -1.8233  -1.7263  -1.6440  -1.5545

          k = 0.2996 0.1730 0.3111 ( 24422 PWs)   bands (ev):

   -21.0112 -20.6307 -20.5226 -20.5051 -20.4085 -20.3033 -20.0727 -20.0045
   -19.9340 -19.7502 -19.6849 -19.4715  -8.4758  -8.4566  -8.4221  -8.3576
    -8.2822  -8.2195  -8.0835  -8.0160  -7.9672  -7.9106  -7.8451  -7.7423
    -6.1160  -5.3913  -5.3521  -5.0020  -4.8456  -4.2974  -4.0103  -3.7851
    -3.7373  -3.2002  -3.1097  -2.6157  -2.4184  -2.3240  -2.2928  -2.2097
    -2.1647  -2.0077  -1.9786  -1.8789  -1.7669  -1.7604  -1.6582  -1.6232

          k = 0.4494-0.2595-0.9332 ( 24443 PWs)   bands (ev):

   -20.8377 -20.8006 -20.6237 -20.5319 -20.3850 -20.2655 -20.1246 -19.9812
   -19.8103 -19.7183 -19.6601 -19.5583  -8.4583  -8.4323  -8.4147  -8.3226
    -8.2713  -8.2335  -8.1182  -8.0614  -8.0152  -7.9214  -7.8351  -7.7678
    -5.7300  -5.5832  -5.4034  -5.1347  -4.8870  -4.3655  -4.0348  -3.7081
    -3.4259  -3.2025  -3.1381  -2.7261  -2.4159  -2.3530  -2.3122  -2.2346
    -2.2041  -2.0594  -1.9198  -1.8946  -1.7911  -1.7411  -1.6345  -1.5950

          k = 0.2996-0.3460-0.6221 ( 24420 PWs)   bands (ev):

   -20.7645 -20.7471 -20.6013 -20.5766 -20.4131 -20.4103 -20.0177 -20.0120
   -19.7854 -19.7738 -19.6116 -19.6019  -8.4623  -8.4133  -8.3822  -8.3377
    -8.3062  -8.1403  -8.0972  -8.0661  -7.9796  -7.8853  -7.7711  -7.7543
    -5.7327  -5.6794  -5.3404  -5.2657  -4.6873  -4.6298  -3.8652  -3.7609
    -3.3930  -3.3615  -3.0579  -2.7958  -2.4924  -2.3733  -2.3172  -2.3006
    -2.1919  -2.0706  -1.9243  -1.8993  -1.8342  -1.7159  -1.6950  -1.5943

          k = 0.0000 0.0000-1.8663 ( 24372 PWs)   bands (ev):

   -20.6925 -20.6451 -20.5734 -20.5734 -20.5698 -20.5698 -19.8942 -19.8942
   -19.8618 -19.8618 -19.6004 -19.5771  -8.4560  -8.3487  -8.3487  -8.3301
    -8.3301  -8.1588  -8.0929  -8.0609  -7.9482  -7.9482  -7.8269  -7.8269
    -5.7152  -5.5115  -5.1186  -5.1186  -4.9885  -4.9885  -3.5469  -3.5469
    -3.5341  -3.5341  -3.0321  -2.7750  -2.4348  -2.3797  -2.3797  -2.3570
    -2.3570  -2.0082  -1.9326  -1.8118  -1.8118  -1.7356  -1.7356  -1.5455

          k = 0.2996-0.3460 0.3111 ( 24417 PWs)   bands (ev):

   -20.9457 -20.7071 -20.5842 -20.5143 -20.3998 -20.3212 -20.0460 -19.9191
   -19.8772 -19.7644 -19.6802 -19.5400  -8.4722  -8.4496  -8.4260  -8.3330
    -8.2944  -8.2529  -8.1439  -8.0552  -8.0246  -7.8107  -7.7651  -7.7327
    -5.9781  -5.5330  -5.4196  -5.0129  -4.8686  -4.4068  -4.0019  -3.5981
    -3.4801  -3.3037  -3.2101  -2.7268  -2.3963  -2.3109  -2.2355  -2.1828
    -2.1404  -2.0406  -1.9722  -1.9319  -1.8207  -1.7525  -1.6809  -1.5765

     highest occupied level (ev):    -1.5364

!    total energy              =    -417.82572623 Ry
     estimated scf accuracy    <       0.00000005 Ry

     The total energy is the sum of the following terms:
     one-electron contribution =    -270.39099315 Ry
     hartree contribution      =     173.59224395 Ry
     xc contribution           =    -107.75142040 Ry
     ewald contribution        =    -213.27555664 Ry

     convergence has been achieved in  12 iterations

     Forces acting on atoms (cartesian axes, Ry/au):

     atom    1 type  2   force =     0.03307837   -0.11607246   -0.06588709
     atom    2 type  2   force =    -0.03307837    0.11607246    0.06588709
     atom    3 type  2   force =     0.08398252    0.08668294   -0.06588709
     atom    4 type  2   force =    -0.08398252   -0.08668294    0.06588709
     atom    5 type  2   force =    -0.11706089    0.02938952   -0.06588709
     atom    6 type  2   force =     0.11706089   -0.02938952    0.06588709
     atom    7 type  2   force =     0.09286928   -0.07080619    0.05571939
     atom    8 type  2   force =    -0.09286928    0.07080619   -0.05571939
     atom    9 type  2   force =     0.01488532    0.11583025    0.05571939
     atom   10 type  2   force =    -0.01488532   -0.11583025   -0.05571939
     atom   11 type  2   force =    -0.10775460   -0.04502406    0.05571939
     atom   12 type  2   force =     0.10775460    0.04502406   -0.05571939
     atom   13 type  1   force =    -0.05081531    0.09404976   -0.05204682
     atom   14 type  1   force =     0.05081531   -0.09404976    0.05204682
     atom   15 type  1   force =    -0.05604183   -0.09103223   -0.05204682
     atom   16 type  1   force =     0.05604183    0.09103223    0.05204682
     atom   17 type  1   force =     0.10685714   -0.00301753   -0.05204682
     atom   18 type  1   force =    -0.10685714    0.00301753    0.05204682
     atom   19 type  1   force =     0.02245084    0.02164567    0.11678970
     atom   20 type  1   force =    -0.02245084   -0.02164567   -0.11678970
     atom   21 type  1   force =    -0.02997112    0.00862016    0.11678970
     atom   22 type  1   force =     0.02997112   -0.00862016   -0.11678970
     atom   23 type  1   force =     0.00752028   -0.03026583    0.11678970
     atom   24 type  1   force =    -0.00752028    0.03026583   -0.11678970
     atom   25 type  1   force =     0.03463733    0.11372422    0.00183604
     atom   26 type  1   force =    -0.03463733   -0.11372422   -0.00183604
     atom   27 type  1   force =    -0.11580673   -0.02686530    0.00183604
     atom   28 type  1   force =     0.11580673    0.02686530   -0.00183604
     atom   29 type  1   force =     0.08116940   -0.08685892    0.00183604
     atom   30 type  1   force =    -0.08116940    0.08685892   -0.00183604
     atom   31 type  1   force =     0.07664979   -0.07097635   -0.06196957
     atom   32 type  1   force =    -0.07664979    0.07097635    0.06196957
     atom   33 type  1   force =     0.02314243    0.10186884   -0.06196957
     atom   34 type  1   force =    -0.02314243   -0.10186884    0.06196957
     atom   35 type  1   force =    -0.09979222   -0.03089249   -0.06196957
     atom   36 type  1   force =     0.09979222    0.03089249    0.06196957

     Total force =     0.748154     Total SCF correction =     0.000209


     Computing stress (Cartesian axis) and pressure

          total   stress  (Ry/bohr**3)                   (kbar)     P=      217.97
   0.00149240  -0.00000000   0.00000000          219.54       -0.00        0.00
   0.00000000   0.00149240   0.00000000            0.00      219.54        0.00
   0.00000000   0.00000000   0.00146045            0.00        0.00      214.84


     Writing all to output data dir ./iceII/iceII.save/ :
     XML data file, charge density, pseudopotentials, collected wavefunctions

     init_run     :      2.44s CPU      2.53s WALL (       1 calls)
     electrons    :     10.54s CPU     10.90s WALL (       1 calls)
     forces       :      0.11s CPU      0.11s WALL (       1 calls)
     stress       :      0.83s CPU      0.87s WALL (       1 calls)

     Called by init_run:
     wfcinit      :      0.31s CPU      0.33s WALL (       1 calls)
     potinit      :      1.62s CPU      1.67s WALL (       1 calls)
     hinit0       :      0.39s CPU      0.40s WALL (       1 calls)

     Called by electrons:
     c_bands      :      7.98s CPU      8.08s WALL (      12 calls)
     sum_band     :      1.15s CPU      1.17s WALL (      12 calls)
     v_of_rho     :      2.90s CPU      3.10s WALL (      13 calls)
     newd         :      0.05s CPU      0.06s WALL (      13 calls)
     mix_rho      :      0.03s CPU      0.03s WALL (      12 calls)
     vdW_kernel   :      1.51s CPU      1.52s WALL (       1 calls)

     Called by c_bands:
     init_us_2    :      0.11s CPU      0.12s WALL (     108 calls)
     cegterg      :      7.61s CPU      7.68s WALL (      48 calls)

     Called by *egterg:
     cdiaghg      :      0.64s CPU      0.64s WALL (     173 calls)
     h_psi        :      6.11s CPU      6.17s WALL (     177 calls)
     s_psi        :      0.22s CPU      0.22s WALL (     177 calls)
     g_psi        :      0.01s CPU      0.01s WALL (     125 calls)

     Called by h_psi:
     h_psi:calbec :      0.40s CPU      0.41s WALL (     177 calls)
     vloc_psi     :      5.43s CPU      5.49s WALL (     177 calls)
     add_vuspsi   :      0.24s CPU      0.24s WALL (     177 calls)

     General routines
     calbec       :      0.54s CPU      0.55s WALL (     245 calls)
     fft          :      1.05s CPU      1.08s WALL (     845 calls)
     ffts         :      0.01s CPU      0.01s WALL (      12 calls)
     fftw         :      5.69s CPU      5.74s WALL (   16222 calls)

     Parallel routines

     PWSCF        :     14.23s CPU     15.10s WALL


   This run was terminated on:  14:43:23  26Mar2026            

=------------------------------------------------------------------------------=
   JOB DONE.
=------------------------------------------------------------------------------=
