
     Program PWSCF v.7.3.1 starts on 26Mar2026 at 14:44:29 

     This program is part of the open-source Quantum ESPRESSO suite
     for quantum simulation of materials; please cite
         "P. Giannozzi et al., J. Phys.:Condens. Matter 21 395502 (2009);
         "P. Giannozzi et al., J. Phys.:Condens. Matter 29 465901 (2017);
         "P. Giannozzi et al., J. Chem. Phys. 152 154105 (2020);
          URL http://www.quantum-espresso.org", 
     in publications or presentations arising from this work. More details at
     http://www.quantum-espresso.org/quote

     Parallel version (MPI), running on   128 processors

     MPI processes distributed on     1 nodes
     242927 MiB available memory on the printing compute node when the environment starts

     Waiting for input...
     Reading input from standard input

     Current dimensions of program PWSCF are:
     Max number of different atomic species (ntypx) = 10
     Max number of k-points (npk) =  40000
     Max angular momentum in pseudopotentials (lmaxx) =  4

     IMPORTANT: XC functional enforced from input :
     Exchange-correlation= VDW-DF2
                           (   1   4  13   0   2   0   0)
     Any further DFT definition will be discarded
     Please, verify this is what you really want


     K-points division:     npool     =       4
     R & G space division:  proc/nbgrp/npool/nimage =      32
     Subspace diagonalization in iterative solution of the eigenvalue problem:
     a serial algorithm will be used


     Parallelization info
     --------------------
     sticks:   dense  smooth     PW     G-vecs:    dense   smooth      PW
     Min         158     158     47                 6264     6264    1011
     Max         159     159     48                 6268     6268    1012
     Sum        5085    5085   1511               200519   200519   32365

     Using Slab Decomposition



     bravais-lattice index     =            5
     lattice parameter (alat)  =      13.9082  a.u.
     unit-cell volume          =    1738.2055 (a.u.)^3
     number of atoms/cell      =           36
     number of atomic types    =            2
     number of electrons       =        96.00
     number of Kohn-Sham states=           48
     kinetic-energy cutoff     =      90.0000  Ry
     charge density cutoff     =     360.0000  Ry
     scf convergence threshold =      1.0E-07
     mixing beta               =       0.7000
     number of iterations used =            8  plain     mixing
     Exchange-correlation= VDW-DF2
                           (   1   4  13   0   2   0   0)

     celldm(1)=  13.908157  celldm(2)=   0.000000  celldm(3)=   0.000000
     celldm(4)=  -0.392337  celldm(5)=   0.000000  celldm(6)=   0.000000

     crystal axes: (cart. coord. in units of alat)
               a(1) = (   0.834367  -0.481722   0.267909 )  
               a(2) = (   0.000000   0.963444   0.267909 )  
               a(3) = (  -0.834367  -0.481722   0.267909 )  

     reciprocal axes: (cart. coord. in units 2 pi/alat)
               b(1) = (  0.599257 -0.345981  1.244203 )  
               b(2) = (  0.000000  0.691962  1.244203 )  
               b(3) = ( -0.599257 -0.345981  1.244203 )  


     PseudoPot. # 1 for H  read from file:
     ./H.pbe-van_ak.UPF
     MD5 check sum: 077eb6d537518a38cb46c6de387227b7
     Pseudo is Ultrasoft, Zval =  1.0
     Generated by new atomic code, or converted to UPF format
     Using radial grid of  615 points,  1 beta functions with: 
                l(1) =   0
     Q(r) pseudized with  8 coefficients,  rinner =    0.800

     PseudoPot. # 2 for O  read from file:
     ./O.pbe-van_ak.UPF
     MD5 check sum: 78c19812648e8988a0fe644b0f25305e
     Pseudo is Ultrasoft, Zval =  6.0
     Generated by new atomic code, or converted to UPF format
     Using radial grid of  737 points,  4 beta functions with: 
                l(1) =   0
                l(2) =   0
                l(3) =   1
                l(4) =   1
     Q(r) pseudized with  8 coefficients,  rinner =    0.800   0.800   0.800


     atomic species   valence    mass     pseudopotential
     H                 1.00     1.00800     H ( 1.00)
     O                 6.00    16.00000     O ( 1.00)

      6 Sym. Ops., with inversion, found



   Cartesian axes

     site n.     atom                  positions (alat units)
         1        O      tau(   1) = (  -0.4881587  -0.5153728   0.3102004  )
         2        O      tau(   2) = (   0.4881587   0.5153729   0.4935268  )
         3        O      tau(   3) = (   0.6904053  -0.1650714   0.3102004  )
         4        O      tau(   4) = (  -0.6904053   0.1650714   0.4935268  )
         5        O      tau(   5) = (  -0.2022466   0.6804442   0.3102004  )
         6        O      tau(   6) = (   0.2022466  -0.6804442   0.4935268  )
         7        O      tau(   7) = (   0.1208629   0.3351200   0.4137471  )
         8        O      tau(   8) = (  -0.1208629  -0.3351200   0.3899800  )
         9        O      tau(   9) = (  -0.3506539  -0.0628897   0.4137471  )
        10        O      tau(  10) = (   0.3506539   0.0628897   0.3899800  )
        11        O      tau(  11) = (   0.2297910  -0.2722304   0.4137471  )
        12        O      tau(  12) = (  -0.2297910   0.2722304   0.3899800  )
        13        H      tau(  13) = (  -0.5430428  -0.4102686   0.2622098  )
        14        H      tau(  14) = (   0.5430428   0.4102686   0.5415173  )
        15        H      tau(  15) = (   0.6268245  -0.2651546   0.2622098  )
        16        H      tau(  16) = (  -0.6268245   0.2651546   0.5415173  )
        17        H      tau(  17) = (  -0.0837816   0.6754232   0.2622098  )
        18        H      tau(  18) = (   0.0837817  -0.6754232   0.5415173  )
        19        H      tau(  19) = (  -0.4681736  -0.4859583   0.4327384  )
        20        H      tau(  20) = (   0.4681736   0.4859583   0.3709887  )
        21        H      tau(  21) = (   0.6549390  -0.1624711   0.4327384  )
        22        H      tau(  22) = (  -0.6549390   0.1624711   0.3709887  )
        23        H      tau(  23) = (  -0.1867654   0.6484294   0.4327384  )
        24        H      tau(  24) = (   0.1867654  -0.6484294   0.3709887  )
        25        H      tau(  25) = (   0.2718867  -0.1516220   0.4118766  )
        26        H      tau(  26) = (  -0.2718867   0.1516219   0.3918506  )
        27        H      tau(  27) = (  -0.0046349   0.3112717   0.4118766  )
        28        H      tau(  28) = (   0.0046349  -0.3112717   0.3918506  )
        29        H      tau(  29) = (  -0.2672518  -0.1596498   0.4118766  )
        30        H      tau(  30) = (   0.2672518   0.1596498   0.3918506  )
        31        H      tau(  31) = (   0.3136186  -0.3416266   0.3473301  )
        32        H      tau(  32) = (  -0.3136186   0.3416266   0.4563970  )
        33        H      tau(  33) = (   0.1390481   0.4424150   0.3473301  )
        34        H      tau(  34) = (  -0.1390480  -0.4424150   0.4563970  )
        35        H      tau(  35) = (  -0.4526667  -0.1007884   0.3473301  )
        36        H      tau(  36) = (   0.4526666   0.1007884   0.4563970  )

     number of k points=    14
                       cart. coord. in units 2pi/alat
        k(    1) = (   0.0000000   0.0000000   0.0000000), wk =   0.0312500
        k(    2) = (  -0.1498141  -0.0864952   0.3110508), wk =   0.1875000
        k(    3) = (   0.2996283   0.1729905  -0.6221017), wk =   0.0937500
        k(    4) = (  -0.1498141   0.0864952   0.6221017), wk =   0.1875000
        k(    5) = (   0.2996283   0.3459809  -0.3110508), wk =   0.1875000
        k(    6) = (   0.1498141   0.2594857   0.0000000), wk =   0.1875000
        k(    7) = (   0.2996283  -0.1729905  -1.2442034), wk =   0.0937500
        k(    8) = (   0.0000000   0.0000000   0.9331525), wk =   0.0625000
        k(    9) = (   0.4494424   0.2594857   0.0000000), wk =   0.1875000
        k(   10) = (   0.2996283   0.1729905   0.3110508), wk =   0.1875000
        k(   11) = (   0.4494424  -0.2594857  -0.9331525), wk =   0.1875000
        k(   12) = (   0.2996283  -0.3459809  -0.6221017), wk =   0.1875000
        k(   13) = (   0.0000000   0.0000000  -1.8663050), wk =   0.0312500
        k(   14) = (   0.2996283  -0.3459809   0.3110508), wk =   0.1875000

     Dense  grid:   200519 G-vectors     FFT dimensions: (  90,  90,  90)

     Estimated max dynamical RAM per process >      13.59 MB

     Estimated total dynamical RAM >       1.55 GB

     Initial potential from superposition of free atoms

     starting charge      95.9998, renormalised to      96.0000


     %%%%%%%%%%%%%%%%%%%%%%%%%%%%%%%%%%%%%%%%%%%%%%%%%%%%%%%%%%%%%%%%%%%%%%%%
     %                                                                      %
     % You are using vdW-DF, which was implemented by the Thonhauser group. %
     % Please cite the following two papers that made this development      %
     % possible and the two reviews that describe the various versions:     %
     %                                                                      %
     %   T. Thonhauser et al., PRL 115, 136402 (2015).                      %
     %   T. Thonhauser et al., PRB 76, 125112 (2007).                       %
     %   K. Berland et al., Rep. Prog. Phys. 78, 066501 (2015).             %
     %   D.C. Langreth et al., J. Phys.: Condens. Matter 21, 084203 (2009). %
     %                                                                      %
     % If you are calculating stress with vdW-DF, please also cite:         %
     %                                                                      %
     %   R. Sabatini et al., J. Phys.: Condens. Matter 24, 424209 (2012).   %
     %                                                                      %
     %%%%%%%%%%%%%%%%%%%%%%%%%%%%%%%%%%%%%%%%%%%%%%%%%%%%%%%%%%%%%%%%%%%%%%%%

     %%%%%%%%%%%%%%%%%%%%%%%%%%%%%%%%%%%%%%%%%%%%%%%%%%%%%%%%%%%%%%%%%%%%%%%%
     %                                                                      %
     %  vdW-DF NEWS:                                                        %
     %                                                                      %
     %  * vdW-DF3 is now available. DOI: 10.1021/acs.jctc.0c00471           %
     %    use with input_dft = 'vdW-DF3-opt1' or 'vdW-DF3-opt2'             %
     %                                                                      %
     %  * Unscreened and range-separated hybrid vdW-DF-cx functionals       %
     %    DOI: 10.1063/1.4986522 and 10.1088/1361-648X/ac2ad2               %
     %    use with input_dft = 'vdW-DF-cx0'    and 'vdW-DF-ahcx'            %
     %  * Unscreened and range-separated hybrid vdW-DF2-b86r functionals    %
     %    DOI: 10.1063/1.4986522 and DOI: 10.1103/PhysRevX.12.041003        %
     %    use with input_dft = 'vdW-DF2-br0' and 'vdW-DF2-ahbr'             %
     %                                                                      %
     %%%%%%%%%%%%%%%%%%%%%%%%%%%%%%%%%%%%%%%%%%%%%%%%%%%%%%%%%%%%%%%%%%%%%%%%


     Starting wfcs are   72 randomized atomic wfcs

     total cpu time spent up to now is        2.8 secs

     per-process dynamical memory:    18.0 Mb

     Self-consistent Calculation

     iteration #  1     ecut=    90.00 Ry     beta= 0.70
     Davidson diagonalization with overlap
     ethr =  1.00E-02,  avg # of iterations =  2.0

     total cpu time spent up to now is        3.6 secs

     total energy              =    -415.68812433 Ry
     estimated scf accuracy    <       5.18066766 Ry

     iteration #  2     ecut=    90.00 Ry     beta= 0.70
     Davidson diagonalization with overlap
     ethr =  5.40E-03,  avg # of iterations =  3.0

     total cpu time spent up to now is        4.7 secs

     total energy              =    -417.43123070 Ry
     estimated scf accuracy    <       2.79406014 Ry

     iteration #  3     ecut=    90.00 Ry     beta= 0.70
     Davidson diagonalization with overlap
     ethr =  2.91E-03,  avg # of iterations =  2.0

     total cpu time spent up to now is        5.5 secs

     total energy              =    -417.79800511 Ry
     estimated scf accuracy    <       0.10873436 Ry

     iteration #  4     ecut=    90.00 Ry     beta= 0.70
     Davidson diagonalization with overlap
     ethr =  1.13E-04,  avg # of iterations =  4.0

     total cpu time spent up to now is        6.7 secs

     total energy              =    -417.87708140 Ry
     estimated scf accuracy    <       0.13915595 Ry

     iteration #  5     ecut=    90.00 Ry     beta= 0.70
     Davidson diagonalization with overlap
     ethr =  1.13E-04,  avg # of iterations =  2.0

     total cpu time spent up to now is        7.5 secs

     total energy              =    -417.88400215 Ry
     estimated scf accuracy    <       0.01819129 Ry

     iteration #  6     ecut=    90.00 Ry     beta= 0.70
     Davidson diagonalization with overlap
     ethr =  1.89E-05,  avg # of iterations =  2.0

     total cpu time spent up to now is        8.3 secs

     total energy              =    -417.88455681 Ry
     estimated scf accuracy    <       0.00381190 Ry

     iteration #  7     ecut=    90.00 Ry     beta= 0.70
     Davidson diagonalization with overlap
     ethr =  3.97E-06,  avg # of iterations =  3.0

     total cpu time spent up to now is        9.3 secs

     total energy              =    -417.88640997 Ry
     estimated scf accuracy    <       0.00035517 Ry

     iteration #  8     ecut=    90.00 Ry     beta= 0.70
     Davidson diagonalization with overlap
     ethr =  3.70E-07,  avg # of iterations =  2.1

     total cpu time spent up to now is       10.1 secs

     total energy              =    -417.88625104 Ry
     estimated scf accuracy    <       0.00043746 Ry

     iteration #  9     ecut=    90.00 Ry     beta= 0.70
     Davidson diagonalization with overlap
     ethr =  3.70E-07,  avg # of iterations =  2.0

     total cpu time spent up to now is       10.9 secs

     total energy              =    -417.88628356 Ry
     estimated scf accuracy    <       0.00004019 Ry

     iteration # 10     ecut=    90.00 Ry     beta= 0.70
     Davidson diagonalization with overlap
     ethr =  4.19E-08,  avg # of iterations =  2.9

     total cpu time spent up to now is       11.8 secs

     total energy              =    -417.88629414 Ry
     estimated scf accuracy    <       0.00000324 Ry

     iteration # 11     ecut=    90.00 Ry     beta= 0.70
     Davidson diagonalization with overlap
     ethr =  3.37E-09,  avg # of iterations =  3.0

     total cpu time spent up to now is       12.7 secs

     total energy              =    -417.88629477 Ry
     estimated scf accuracy    <       0.00000072 Ry

     iteration # 12     ecut=    90.00 Ry     beta= 0.70
     Davidson diagonalization with overlap
     ethr =  7.49E-10,  avg # of iterations =  3.0

     total cpu time spent up to now is       13.5 secs

     total energy              =    -417.88629483 Ry
     estimated scf accuracy    <       0.00000011 Ry

     iteration # 13     ecut=    90.00 Ry     beta= 0.70
     Davidson diagonalization with overlap
     ethr =  1.13E-10,  avg # of iterations =  3.0

     total cpu time spent up to now is       14.5 secs

     End of self-consistent calculation

          k = 0.0000 0.0000 0.0000 ( 25019 PWs)   bands (ev):

   -21.1946 -20.5498 -20.5498 -20.2931 -20.2931 -20.2423 -20.2423 -20.2415
   -20.2235 -19.8401 -19.8401 -19.4295  -8.5775  -8.5086  -8.5086  -8.4555
    -8.3381  -8.3381  -8.0097  -8.0064  -8.0064  -7.9640  -7.9286  -7.9286
    -6.6106  -5.3597  -5.3597  -4.6237  -4.6237  -4.4434  -4.4434  -4.2248
    -4.1376  -3.3529  -3.3529  -2.5907  -2.4207  -2.4207  -2.3644  -2.1993
    -2.1993  -2.1550  -2.0446  -2.0446  -1.9799  -1.8466  -1.8122  -1.8122

          k =-0.1498-0.0865 0.3111 ( 25014 PWs)   bands (ev):

   -21.0964 -20.6063 -20.5363 -20.4745 -20.4302 -20.3365 -20.1748 -20.1198
   -20.0344 -19.8475 -19.7920 -19.5058  -8.5329  -8.5140  -8.4891  -8.4385
    -8.3275  -8.2960  -8.0896  -8.0562  -8.0336  -7.9269  -7.8527  -7.8419
    -6.4074  -5.5474  -5.3866  -5.0050  -4.7160  -4.4484  -4.2707  -4.0945
    -3.9384  -3.3447  -3.2785  -2.7373  -2.5272  -2.4457  -2.3850  -2.2924
    -2.2662  -2.1874  -2.0714  -2.0184  -1.9394  -1.9124  -1.8402  -1.8102

          k = 0.2996 0.1730-0.6221 ( 25078 PWs)   bands (ev):

   -20.8445 -20.8324 -20.5862 -20.5585 -20.4222 -20.4179 -20.1086 -20.1056
   -19.8633 -19.8457 -19.6952 -19.6893  -8.5198  -8.4972  -8.4448  -8.4208
    -8.3255  -8.2721  -8.1089  -8.1040  -8.0467  -7.9127  -7.7915  -7.7751
    -6.0125  -5.8545  -5.3693  -5.3623  -4.7166  -4.6287  -4.1245  -4.0136
    -3.4959  -3.4743  -3.2492  -2.9808  -2.6086  -2.4862  -2.3769  -2.3637
    -2.2957  -2.2100  -2.1454  -2.0187  -2.0058  -1.8960  -1.8195  -1.8062

          k =-0.1498 0.0865 0.6221 ( 25050 PWs)   bands (ev):

   -20.8974 -20.7086 -20.6790 -20.5132 -20.4863 -20.4008 -20.1193 -20.0105
   -19.9490 -19.7918 -19.7709 -19.6427  -8.5127  -8.4942  -8.4648  -8.4245
    -8.3174  -8.2476  -8.1125  -8.1049  -8.0822  -7.8597  -7.8181  -7.7812
    -6.0490  -5.7081  -5.6391  -5.1045  -4.8457  -4.6496  -4.1114  -3.8622
    -3.7212  -3.3416  -3.2407  -3.0207  -2.5982  -2.5159  -2.3617  -2.3441
    -2.2592  -2.2423  -2.1524  -2.0256  -1.9867  -1.9015  -1.8464  -1.7853

          k = 0.2996 0.3460-0.3111 ( 25063 PWs)   bands (ev):

   -20.9655 -20.7426 -20.6100 -20.5611 -20.4480 -20.3717 -20.1083 -19.9730
   -19.9506 -19.8412 -19.7601 -19.6208  -8.5209  -8.5044  -8.4677  -8.4093
    -8.3294  -8.3006  -8.1855  -8.1254  -8.0890  -7.8906  -7.8421  -7.7924
    -6.0648  -5.6838  -5.4335  -5.1590  -5.0644  -4.4517  -4.0152  -3.9243
    -3.7082  -3.4237  -3.2295  -2.9360  -2.5128  -2.4661  -2.3895  -2.3254
    -2.2637  -2.1702  -2.1131  -2.0601  -1.9513  -1.9475  -1.8325  -1.7278

          k = 0.1498 0.2595 0.0000 ( 25043 PWs)   bands (ev):

   -21.1231 -20.6619 -20.5799 -20.4323 -20.3963 -20.2957 -20.1731 -20.0858
   -20.0321 -19.8537 -19.8110 -19.4932  -8.5527  -8.5068  -8.4996  -8.4374
    -8.3455  -8.3330  -8.1329  -8.0826  -8.0412  -7.9530  -7.9070  -7.8467
    -6.3877  -5.4243  -5.2833  -5.0474  -4.9993  -4.3372  -4.1198  -4.0067
    -3.9654  -3.3960  -3.3484  -2.6631  -2.4242  -2.4055  -2.3937  -2.2793
    -2.2139  -2.1731  -2.0802  -2.0618  -1.9434  -1.9033  -1.7872  -1.7596

          k = 0.2996-0.1730-1.2442 ( 25066 PWs)   bands (ev):

   -20.9579 -20.8845 -20.6035 -20.4949 -20.3937 -20.3211 -20.0905 -20.0661
   -19.9092 -19.8999 -19.6616 -19.6534  -8.5294  -8.4938  -8.4702  -8.4125
    -8.3574  -8.3511  -8.2311  -8.1387  -8.0720  -7.9109  -7.9071  -7.8280
    -5.8628  -5.8413  -5.3919  -5.2323  -4.9453  -4.4888  -3.9125  -3.8889
    -3.7012  -3.5568  -3.1496  -2.9213  -2.4394  -2.4076  -2.3607  -2.3321
    -2.2358  -2.1752  -2.1152  -2.0291  -2.0032  -1.9127  -1.7428  -1.7382

          k = 0.0000 0.0000 0.9332 ( 25070 PWs)   bands (ev):

   -20.8205 -20.8205 -20.6967 -20.6548 -20.3939 -20.3939 -20.0042 -20.0042
   -19.8364 -19.8012 -19.7633 -19.7633  -8.5056  -8.5056  -8.4806  -8.3557
    -8.3557  -8.3438  -8.2246  -8.1320  -8.1320  -7.8116  -7.8116  -7.7815
    -5.7668  -5.7668  -5.7333  -5.2063  -4.8305  -4.8305  -3.7540  -3.7540
    -3.7077  -3.3081  -3.3081  -3.1999  -2.4625  -2.4625  -2.3454  -2.3114
    -2.2207  -2.2207  -2.1500  -2.0258  -2.0258  -1.9000  -1.9000  -1.6953

          k = 0.4494 0.2595 0.0000 ( 25059 PWs)   bands (ev):

   -20.9907 -20.7668 -20.7354 -20.4968 -20.3174 -20.2999 -20.1315 -20.1153
   -19.8993 -19.8070 -19.7679 -19.6085  -8.5186  -8.4943  -8.4861  -8.4068
    -8.3770  -8.3194  -8.2328  -8.1420  -8.0969  -7.9050  -7.8889  -7.8331
    -6.0165  -5.5389  -5.4647  -5.3435  -4.8976  -4.4962  -4.0054  -3.9107
    -3.6144  -3.4137  -3.3048  -2.8861  -2.4221  -2.4075  -2.3811  -2.3255
    -2.2436  -2.1867  -2.0991  -2.0617  -1.9751  -1.8781  -1.7988  -1.7136

          k = 0.2996 0.1730 0.3111 ( 25084 PWs)   bands (ev):

   -21.0286 -20.6668 -20.5617 -20.5474 -20.4529 -20.3528 -20.1324 -20.0669
   -19.9996 -19.8239 -19.7621 -19.5577  -8.5233  -8.5052  -8.4709  -8.4090
    -8.3382  -8.2758  -8.1423  -8.0770  -8.0304  -7.9759  -7.9117  -7.8148
    -6.2035  -5.4973  -5.4591  -5.1161  -4.9655  -4.4318  -4.1471  -3.9286
    -3.8794  -3.3503  -3.2653  -2.7782  -2.5477  -2.4556  -2.4251  -2.3457
    -2.3022  -2.1513  -2.1230  -2.0262  -1.9171  -1.9117  -1.8130  -1.7794

          k = 0.4494-0.2595-0.9332 ( 25080 PWs)   bands (ev):

   -20.8621 -20.8284 -20.6586 -20.5735 -20.4310 -20.3161 -20.1821 -20.0452
   -19.8817 -19.7937 -19.7381 -19.6408  -8.5073  -8.4818  -8.4652  -8.3759
    -8.3267  -8.2866  -8.1754  -8.1210  -8.0758  -7.9861  -7.9025  -7.8390
    -5.8272  -5.6858  -5.5101  -5.2479  -5.0050  -4.4955  -4.1748  -3.8522
    -3.5752  -3.3522  -3.2910  -2.8897  -2.5467  -2.4838  -2.4448  -2.3696
    -2.3397  -2.1994  -2.0654  -2.0410  -1.9411  -1.8922  -1.7899  -1.7529

          k = 0.2996-0.3460-0.6221 ( 25112 PWs)   bands (ev):

   -20.7934 -20.7768 -20.6381 -20.6153 -20.4573 -20.4548 -20.0793 -20.0740
   -19.8577 -19.8468 -19.6917 -19.6827  -8.5111  -8.4619  -8.4328  -8.3920
    -8.3617  -8.2006  -8.1558  -8.1230  -8.0432  -7.9517  -7.8420  -7.8258
    -5.8298  -5.7793  -5.4473  -5.3755  -4.8099  -4.7553  -4.0059  -3.9068
    -3.5407  -3.5084  -3.2089  -2.9537  -2.6237  -2.5016  -2.4482  -2.4341
    -2.3331  -2.2093  -2.0689  -2.0457  -1.9821  -1.8675  -1.8473  -1.7528

          k = 0.0000 0.0000-1.8663 ( 25068 PWs)   bands (ev):

   -20.7264 -20.6822 -20.6097 -20.6097 -20.6063 -20.6063 -19.9616 -19.9616
   -19.9310 -19.9310 -19.6809 -19.6593  -8.5055  -8.4005  -8.4005  -8.3849
    -8.3849  -8.2151  -8.1475  -8.1228  -8.0135  -8.0135  -7.8943  -7.8943
    -5.8126  -5.6163  -5.2308  -5.2308  -5.1067  -5.1067  -3.6932  -3.6932
    -3.6846  -3.6846  -3.1763  -2.9336  -2.5775  -2.5077  -2.5077  -2.4869
    -2.4869  -2.1477  -2.0773  -1.9602  -1.9602  -1.8868  -1.8868  -1.7065

          k = 0.2996-0.3460 0.3111 ( 25063 PWs)   bands (ev):

   -20.9658 -20.7386 -20.6217 -20.5544 -20.4468 -20.3701 -20.1071 -19.9850
   -19.9455 -19.8377 -19.7571 -19.6230  -8.5203  -8.4975  -8.4751  -8.3864
    -8.3488  -8.3075  -8.1994  -8.1153  -8.0847  -7.8807  -7.8360  -7.8058
    -6.0685  -5.6359  -5.5242  -5.1283  -4.9895  -4.5362  -4.1380  -3.7437
    -3.6282  -3.4552  -3.3575  -2.8882  -2.5281  -2.4435  -2.3715  -2.3194
    -2.2791  -2.1829  -2.1165  -2.0781  -1.9684  -1.9039  -1.8349  -1.7340

     highest occupied level (ev):    -1.6953

!    total energy              =    -417.88629487 Ry
     estimated scf accuracy    <          3.0E-10 Ry

     The total energy is the sum of the following terms:
     one-electron contribution =    -273.61797749 Ry
     hartree contribution      =     174.70224640 Ry
     xc contribution           =    -107.49860592 Ry
     ewald contribution        =    -211.47195786 Ry

     convergence has been achieved in  13 iterations

     Forces acting on atoms (cartesian axes, Ry/au):

     atom    1 type  2   force =     0.02774702   -0.09804856   -0.05562957
     atom    2 type  2   force =    -0.02774702    0.09804856    0.05562957
     atom    3 type  2   force =     0.07103904    0.07305391   -0.05562957
     atom    4 type  2   force =    -0.07103904   -0.07305391    0.05562957
     atom    5 type  2   force =    -0.09878606    0.02499466   -0.05562957
     atom    6 type  2   force =     0.09878606   -0.02499466    0.05562957
     atom    7 type  2   force =     0.07875948   -0.05985948    0.04719320
     atom    8 type  2   force =    -0.07875948    0.05985948   -0.04719320
     atom    9 type  2   force =     0.01246009    0.09813745    0.04719320
     atom   10 type  2   force =    -0.01246009   -0.09813745   -0.04719320
     atom   11 type  2   force =    -0.09121957   -0.03827797    0.04719320
     atom   12 type  2   force =     0.09121957    0.03827797   -0.04719320
     atom   13 type  1   force =    -0.04291136    0.07944379   -0.04416265
     atom   14 type  1   force =     0.04291136   -0.07944379    0.04416265
     atom   15 type  1   force =    -0.04734466   -0.07688422   -0.04416265
     atom   16 type  1   force =     0.04734466    0.07688422    0.04416265
     atom   17 type  1   force =     0.09025602   -0.00255957   -0.04416265
     atom   18 type  1   force =    -0.09025602    0.00255957    0.04416265
     atom   19 type  1   force =     0.01903583    0.01818019    0.09875733
     atom   20 type  1   force =    -0.01903583   -0.01818019   -0.09875733
     atom   21 type  1   force =    -0.02526242    0.00739542    0.09875733
     atom   22 type  1   force =     0.02526242   -0.00739542   -0.09875733
     atom   23 type  1   force =     0.00622659   -0.02557561    0.09875733
     atom   24 type  1   force =    -0.00622659    0.02557561   -0.09875733
     atom   25 type  1   force =     0.02928504    0.09608727    0.00159403
     atom   26 type  1   force =    -0.02928504   -0.09608727   -0.00159403
     atom   27 type  1   force =    -0.09785653   -0.02268204    0.00159403
     atom   28 type  1   force =     0.09785653    0.02268204   -0.00159403
     atom   29 type  1   force =     0.06857149   -0.07340522    0.00159403
     atom   30 type  1   force =    -0.06857149    0.07340522   -0.00159403
     atom   31 type  1   force =     0.06473398   -0.05996447   -0.05226807
     atom   32 type  1   force =    -0.06473398    0.05996447    0.05226807
     atom   33 type  1   force =     0.01956376    0.08604350   -0.05226807
     atom   34 type  1   force =    -0.01956376   -0.08604350    0.05226807
     atom   35 type  1   force =    -0.08429774   -0.02607904   -0.05226807
     atom   36 type  1   force =     0.08429774    0.02607904    0.05226807

     Total force =     0.632384     Total SCF correction =     0.000017


     Computing stress (Cartesian axis) and pressure

          total   stress  (Ry/bohr**3)                   (kbar)     P=      180.79
   0.00123737  -0.00000000  -0.00000000          182.02       -0.00       -0.00
   0.00000000   0.00123737   0.00000000            0.00      182.02        0.00
  -0.00000000   0.00000000   0.00121229           -0.00        0.00      178.33


     Writing all to output data dir ./iceII/iceII.save/ :
     XML data file, charge density, pseudopotentials, collected wavefunctions

     init_run     :      2.46s CPU      2.55s WALL (       1 calls)
     electrons    :     11.39s CPU     11.78s WALL (       1 calls)
     forces       :      0.11s CPU      0.12s WALL (       1 calls)
     stress       :      0.86s CPU      0.89s WALL (       1 calls)

     Called by init_run:
     wfcinit      :      0.32s CPU      0.33s WALL (       1 calls)
     potinit      :      1.62s CPU      1.67s WALL (       1 calls)
     hinit0       :      0.39s CPU      0.41s WALL (       1 calls)

     Called by electrons:
     c_bands      :      8.58s CPU      8.72s WALL (      13 calls)
     sum_band     :      1.28s CPU      1.29s WALL (      13 calls)
     v_of_rho     :      3.02s CPU      3.24s WALL (      14 calls)
     newd         :      0.05s CPU      0.06s WALL (      14 calls)
     mix_rho      :      0.04s CPU      0.04s WALL (      13 calls)
     vdW_kernel   :      1.51s CPU      1.52s WALL (       1 calls)

     Called by c_bands:
     init_us_2    :      0.12s CPU      0.13s WALL (     116 calls)
     cegterg      :      8.27s CPU      8.37s WALL (      52 calls)

     Called by *egterg:
     cdiaghg      :      0.69s CPU      0.70s WALL (     188 calls)
     h_psi        :      6.63s CPU      6.70s WALL (     192 calls)
     s_psi        :      0.24s CPU      0.25s WALL (     192 calls)
     g_psi        :      0.02s CPU      0.02s WALL (     136 calls)

     Called by h_psi:
     h_psi:calbec :      0.43s CPU      0.44s WALL (     192 calls)
     vloc_psi     :      5.89s CPU      5.97s WALL (     192 calls)
     add_vuspsi   :      0.26s CPU      0.26s WALL (     192 calls)

     General routines
     calbec       :      0.59s CPU      0.59s WALL (     264 calls)
     fft          :      1.09s CPU      1.12s WALL (     906 calls)
     ffts         :      0.01s CPU      0.01s WALL (      13 calls)
     fftw         :      6.19s CPU      6.25s WALL (   17414 calls)

     Parallel routines

     PWSCF        :     15.09s CPU     16.04s WALL


   This run was terminated on:  14:44:45  26Mar2026            

=------------------------------------------------------------------------------=
   JOB DONE.
=------------------------------------------------------------------------------=
