
     Program PWSCF v.7.3.1 starts on 26Mar2026 at 14:45:23 

     This program is part of the open-source Quantum ESPRESSO suite
     for quantum simulation of materials; please cite
         "P. Giannozzi et al., J. Phys.:Condens. Matter 21 395502 (2009);
         "P. Giannozzi et al., J. Phys.:Condens. Matter 29 465901 (2017);
         "P. Giannozzi et al., J. Chem. Phys. 152 154105 (2020);
          URL http://www.quantum-espresso.org", 
     in publications or presentations arising from this work. More details at
     http://www.quantum-espresso.org/quote

     Parallel version (MPI), running on   128 processors

     MPI processes distributed on     1 nodes
     242846 MiB available memory on the printing compute node when the environment starts

     Waiting for input...
     Reading input from standard input

     Current dimensions of program PWSCF are:
     Max number of different atomic species (ntypx) = 10
     Max number of k-points (npk) =  40000
     Max angular momentum in pseudopotentials (lmaxx) =  4

     IMPORTANT: XC functional enforced from input :
     Exchange-correlation= VDW-DF2
                           (   1   4  13   0   2   0   0)
     Any further DFT definition will be discarded
     Please, verify this is what you really want


     K-points division:     npool     =       4
     R & G space division:  proc/nbgrp/npool/nimage =      32
     Subspace diagonalization in iterative solution of the eigenvalue problem:
     a serial algorithm will be used


     Parallelization info
     --------------------
     sticks:   dense  smooth     PW     G-vecs:    dense   smooth      PW
     Min         161     161     47                 6385     6385    1027
     Max         162     162     48                 6388     6388    1031
     Sum        5169    5169   1519               204365   204365   32911

     Using Slab Decomposition



     bravais-lattice index     =            5
     lattice parameter (alat)  =      13.9964  a.u.
     unit-cell volume          =    1771.4893 (a.u.)^3
     number of atoms/cell      =           36
     number of atomic types    =            2
     number of electrons       =        96.00
     number of Kohn-Sham states=           48
     kinetic-energy cutoff     =      90.0000  Ry
     charge density cutoff     =     360.0000  Ry
     scf convergence threshold =      1.0E-07
     mixing beta               =       0.7000
     number of iterations used =            8  plain     mixing
     Exchange-correlation= VDW-DF2
                           (   1   4  13   0   2   0   0)

     celldm(1)=  13.996369  celldm(2)=   0.000000  celldm(3)=   0.000000
     celldm(4)=  -0.392337  celldm(5)=   0.000000  celldm(6)=   0.000000

     crystal axes: (cart. coord. in units of alat)
               a(1) = (   0.834367  -0.481722   0.267909 )  
               a(2) = (   0.000000   0.963444   0.267909 )  
               a(3) = (  -0.834367  -0.481722   0.267909 )  

     reciprocal axes: (cart. coord. in units 2 pi/alat)
               b(1) = (  0.599257 -0.345981  1.244203 )  
               b(2) = ( -0.000000  0.691962  1.244203 )  
               b(3) = ( -0.599257 -0.345981  1.244203 )  


     PseudoPot. # 1 for H  read from file:
     ./H.pbe-van_ak.UPF
     MD5 check sum: 077eb6d537518a38cb46c6de387227b7
     Pseudo is Ultrasoft, Zval =  1.0
     Generated by new atomic code, or converted to UPF format
     Using radial grid of  615 points,  1 beta functions with: 
                l(1) =   0
     Q(r) pseudized with  8 coefficients,  rinner =    0.800

     PseudoPot. # 2 for O  read from file:
     ./O.pbe-van_ak.UPF
     MD5 check sum: 78c19812648e8988a0fe644b0f25305e
     Pseudo is Ultrasoft, Zval =  6.0
     Generated by new atomic code, or converted to UPF format
     Using radial grid of  737 points,  4 beta functions with: 
                l(1) =   0
                l(2) =   0
                l(3) =   1
                l(4) =   1
     Q(r) pseudized with  8 coefficients,  rinner =    0.800   0.800   0.800


     atomic species   valence    mass     pseudopotential
     H                 1.00     1.00800     H ( 1.00)
     O                 6.00    16.00000     O ( 1.00)

      6 Sym. Ops., with inversion, found



   Cartesian axes

     site n.     atom                  positions (alat units)
         1        O      tau(   1) = (  -0.4881587  -0.5153728   0.3102004  )
         2        O      tau(   2) = (   0.4881587   0.5153729   0.4935268  )
         3        O      tau(   3) = (   0.6904053  -0.1650714   0.3102004  )
         4        O      tau(   4) = (  -0.6904053   0.1650714   0.4935268  )
         5        O      tau(   5) = (  -0.2022466   0.6804442   0.3102004  )
         6        O      tau(   6) = (   0.2022466  -0.6804442   0.4935268  )
         7        O      tau(   7) = (   0.1208629   0.3351200   0.4137471  )
         8        O      tau(   8) = (  -0.1208629  -0.3351200   0.3899800  )
         9        O      tau(   9) = (  -0.3506539  -0.0628897   0.4137471  )
        10        O      tau(  10) = (   0.3506539   0.0628897   0.3899800  )
        11        O      tau(  11) = (   0.2297910  -0.2722304   0.4137471  )
        12        O      tau(  12) = (  -0.2297910   0.2722304   0.3899800  )
        13        H      tau(  13) = (  -0.5430428  -0.4102686   0.2622098  )
        14        H      tau(  14) = (   0.5430428   0.4102686   0.5415173  )
        15        H      tau(  15) = (   0.6268245  -0.2651546   0.2622098  )
        16        H      tau(  16) = (  -0.6268245   0.2651546   0.5415173  )
        17        H      tau(  17) = (  -0.0837816   0.6754232   0.2622098  )
        18        H      tau(  18) = (   0.0837817  -0.6754232   0.5415173  )
        19        H      tau(  19) = (  -0.4681736  -0.4859583   0.4327384  )
        20        H      tau(  20) = (   0.4681736   0.4859583   0.3709887  )
        21        H      tau(  21) = (   0.6549390  -0.1624711   0.4327384  )
        22        H      tau(  22) = (  -0.6549390   0.1624711   0.3709887  )
        23        H      tau(  23) = (  -0.1867654   0.6484294   0.4327384  )
        24        H      tau(  24) = (   0.1867654  -0.6484294   0.3709887  )
        25        H      tau(  25) = (   0.2718867  -0.1516220   0.4118766  )
        26        H      tau(  26) = (  -0.2718867   0.1516219   0.3918506  )
        27        H      tau(  27) = (  -0.0046349   0.3112717   0.4118766  )
        28        H      tau(  28) = (   0.0046349  -0.3112717   0.3918506  )
        29        H      tau(  29) = (  -0.2672518  -0.1596498   0.4118766  )
        30        H      tau(  30) = (   0.2672518   0.1596498   0.3918506  )
        31        H      tau(  31) = (   0.3136186  -0.3416266   0.3473301  )
        32        H      tau(  32) = (  -0.3136186   0.3416266   0.4563970  )
        33        H      tau(  33) = (   0.1390481   0.4424150   0.3473301  )
        34        H      tau(  34) = (  -0.1390480  -0.4424150   0.4563970  )
        35        H      tau(  35) = (  -0.4526667  -0.1007884   0.3473301  )
        36        H      tau(  36) = (   0.4526666   0.1007884   0.4563970  )

     number of k points=    14
                       cart. coord. in units 2pi/alat
        k(    1) = (   0.0000000   0.0000000   0.0000000), wk =   0.0312500
        k(    2) = (  -0.1498141  -0.0864952   0.3110508), wk =   0.1875000
        k(    3) = (   0.2996283   0.1729905  -0.6221017), wk =   0.0937500
        k(    4) = (  -0.1498141   0.0864952   0.6221017), wk =   0.1875000
        k(    5) = (   0.2996283   0.3459809  -0.3110508), wk =   0.1875000
        k(    6) = (   0.1498141   0.2594857   0.0000000), wk =   0.1875000
        k(    7) = (   0.2996283  -0.1729905  -1.2442034), wk =   0.0937500
        k(    8) = (   0.0000000   0.0000000   0.9331525), wk =   0.0625000
        k(    9) = (   0.4494424   0.2594857   0.0000000), wk =   0.1875000
        k(   10) = (   0.2996283   0.1729905   0.3110508), wk =   0.1875000
        k(   11) = (   0.4494424  -0.2594857  -0.9331525), wk =   0.1875000
        k(   12) = (   0.2996283  -0.3459809  -0.6221017), wk =   0.1875000
        k(   13) = (   0.0000000   0.0000000  -1.8663050), wk =   0.0312500
        k(   14) = (   0.2996283  -0.3459809   0.3110508), wk =   0.1875000

     Dense  grid:   204365 G-vectors     FFT dimensions: (  90,  90,  90)

     Estimated max dynamical RAM per process >      13.79 MB

     Estimated total dynamical RAM >       1.58 GB

     Initial potential from superposition of free atoms

     starting charge      95.9998, renormalised to      96.0000


     %%%%%%%%%%%%%%%%%%%%%%%%%%%%%%%%%%%%%%%%%%%%%%%%%%%%%%%%%%%%%%%%%%%%%%%%
     %                                                                      %
     % You are using vdW-DF, which was implemented by the Thonhauser group. %
     % Please cite the following two papers that made this development      %
     % possible and the two reviews that describe the various versions:     %
     %                                                                      %
     %   T. Thonhauser et al., PRL 115, 136402 (2015).                      %
     %   T. Thonhauser et al., PRB 76, 125112 (2007).                       %
     %   K. Berland et al., Rep. Prog. Phys. 78, 066501 (2015).             %
     %   D.C. Langreth et al., J. Phys.: Condens. Matter 21, 084203 (2009). %
     %                                                                      %
     % If you are calculating stress with vdW-DF, please also cite:         %
     %                                                                      %
     %   R. Sabatini et al., J. Phys.: Condens. Matter 24, 424209 (2012).   %
     %                                                                      %
     %%%%%%%%%%%%%%%%%%%%%%%%%%%%%%%%%%%%%%%%%%%%%%%%%%%%%%%%%%%%%%%%%%%%%%%%

     %%%%%%%%%%%%%%%%%%%%%%%%%%%%%%%%%%%%%%%%%%%%%%%%%%%%%%%%%%%%%%%%%%%%%%%%
     %                                                                      %
     %  vdW-DF NEWS:                                                        %
     %                                                                      %
     %  * vdW-DF3 is now available. DOI: 10.1021/acs.jctc.0c00471           %
     %    use with input_dft = 'vdW-DF3-opt1' or 'vdW-DF3-opt2'             %
     %                                                                      %
     %  * Unscreened and range-separated hybrid vdW-DF-cx functionals       %
     %    DOI: 10.1063/1.4986522 and 10.1088/1361-648X/ac2ad2               %
     %    use with input_dft = 'vdW-DF-cx0'    and 'vdW-DF-ahcx'            %
     %  * Unscreened and range-separated hybrid vdW-DF2-b86r functionals    %
     %    DOI: 10.1063/1.4986522 and DOI: 10.1103/PhysRevX.12.041003        %
     %    use with input_dft = 'vdW-DF2-br0' and 'vdW-DF2-ahbr'             %
     %                                                                      %
     %%%%%%%%%%%%%%%%%%%%%%%%%%%%%%%%%%%%%%%%%%%%%%%%%%%%%%%%%%%%%%%%%%%%%%%%


     Starting wfcs are   72 randomized atomic wfcs

     total cpu time spent up to now is        2.8 secs

     per-process dynamical memory:    18.6 Mb

     Self-consistent Calculation

     iteration #  1     ecut=    90.00 Ry     beta= 0.70
     Davidson diagonalization with overlap
     ethr =  1.00E-02,  avg # of iterations =  2.0

     total cpu time spent up to now is        3.7 secs

     total energy              =    -415.73689713 Ry
     estimated scf accuracy    <       5.12598383 Ry

     iteration #  2     ecut=    90.00 Ry     beta= 0.70
     Davidson diagonalization with overlap
     ethr =  5.34E-03,  avg # of iterations =  3.0

     total cpu time spent up to now is        4.7 secs

     total energy              =    -417.45715077 Ry
     estimated scf accuracy    <       2.85882187 Ry

     iteration #  3     ecut=    90.00 Ry     beta= 0.70
     Davidson diagonalization with overlap
     ethr =  2.98E-03,  avg # of iterations =  2.0

     total cpu time spent up to now is        5.6 secs

     total energy              =    -417.83372887 Ry
     estimated scf accuracy    <       0.11192573 Ry

     iteration #  4     ecut=    90.00 Ry     beta= 0.70
     Davidson diagonalization with overlap
     ethr =  1.17E-04,  avg # of iterations =  4.0

     total cpu time spent up to now is        6.7 secs

     total energy              =    -417.91725502 Ry
     estimated scf accuracy    <       0.14024068 Ry

     iteration #  5     ecut=    90.00 Ry     beta= 0.70
     Davidson diagonalization with overlap
     ethr =  1.17E-04,  avg # of iterations =  2.0

     total cpu time spent up to now is        7.5 secs

     total energy              =    -417.92334771 Ry
     estimated scf accuracy    <       0.01921807 Ry

     iteration #  6     ecut=    90.00 Ry     beta= 0.70
     Davidson diagonalization with overlap
     ethr =  2.00E-05,  avg # of iterations =  2.0

     total cpu time spent up to now is        8.4 secs

     total energy              =    -417.92325571 Ry
     estimated scf accuracy    <       0.00481690 Ry

     iteration #  7     ecut=    90.00 Ry     beta= 0.70
     Davidson diagonalization with overlap
     ethr =  5.02E-06,  avg # of iterations =  2.9

     total cpu time spent up to now is        9.3 secs

     total energy              =    -417.92541246 Ry
     estimated scf accuracy    <       0.00024730 Ry

     iteration #  8     ecut=    90.00 Ry     beta= 0.70
     Davidson diagonalization with overlap
     ethr =  2.58E-07,  avg # of iterations =  3.0

     total cpu time spent up to now is       10.3 secs

     total energy              =    -417.92513870 Ry
     estimated scf accuracy    <       0.00086401 Ry

     iteration #  9     ecut=    90.00 Ry     beta= 0.70
     Davidson diagonalization with overlap
     ethr =  2.58E-07,  avg # of iterations =  3.0

     total cpu time spent up to now is       11.3 secs

     total energy              =    -417.92519978 Ry
     estimated scf accuracy    <       0.00008467 Ry

     iteration # 10     ecut=    90.00 Ry     beta= 0.70
     Davidson diagonalization with overlap
     ethr =  8.82E-08,  avg # of iterations =  2.0

     total cpu time spent up to now is       12.2 secs

     total energy              =    -417.92522055 Ry
     estimated scf accuracy    <       0.00000540 Ry

     iteration # 11     ecut=    90.00 Ry     beta= 0.70
     Davidson diagonalization with overlap
     ethr =  5.63E-09,  avg # of iterations =  3.0

     total cpu time spent up to now is       13.0 secs

     total energy              =    -417.92521968 Ry
     estimated scf accuracy    <       0.00000491 Ry

     iteration # 12     ecut=    90.00 Ry     beta= 0.70
     Davidson diagonalization with overlap
     ethr =  5.11E-09,  avg # of iterations =  2.0

     total cpu time spent up to now is       13.8 secs

     total energy              =    -417.92522007 Ry
     estimated scf accuracy    <       0.00000056 Ry

     iteration # 13     ecut=    90.00 Ry     beta= 0.70
     Davidson diagonalization with overlap
     ethr =  5.85E-10,  avg # of iterations =  3.0

     total cpu time spent up to now is       14.8 secs

     End of self-consistent calculation

          k = 0.0000 0.0000 0.0000 ( 25505 PWs)   bands (ev):

   -21.2013 -20.5796 -20.5796 -20.3304 -20.3304 -20.2804 -20.2804 -20.2799
   -20.2641 -19.8926 -19.8926 -19.4956  -8.6102  -8.5410  -8.5410  -8.4914
    -8.3777  -8.3777  -8.0548  -8.0527  -8.0527  -8.0089  -7.9770  -7.9770
    -6.6641  -5.4365  -5.4365  -4.7172  -4.7172  -4.5383  -4.5383  -4.3261
    -4.2353  -3.4645  -3.4645  -2.7056  -2.5170  -2.5170  -2.4640  -2.3020
    -2.3020  -2.2588  -2.1492  -2.1492  -2.0872  -1.9617  -1.9248  -1.9248

          k =-0.1498-0.0865 0.3111 ( 25557 PWs)   bands (ev):

   -21.1063 -20.6342 -20.5666 -20.5059 -20.4626 -20.3722 -20.2158 -20.1622
   -20.0801 -19.8997 -19.8461 -19.5693  -8.5668  -8.5473  -8.5230  -8.4743
    -8.3676  -8.3367  -8.1328  -8.1003  -8.0791  -7.9748  -7.9023  -7.8930
    -6.4655  -5.6219  -5.4642  -5.0904  -4.8079  -4.5436  -4.3674  -4.1965
    -4.0394  -3.4563  -3.3910  -2.8520  -2.6207  -2.5406  -2.4842  -2.3921
    -2.3668  -2.2911  -2.1777  -2.1248  -2.0476  -2.0226  -1.9518  -1.9222

          k = 0.2996 0.1730-0.6221 ( 25530 PWs)   bands (ev):

   -20.8628 -20.8515 -20.6143 -20.5882 -20.4552 -20.4512 -20.1513 -20.1486
   -19.9149 -19.8978 -19.7522 -19.7468  -8.5530  -8.5314  -8.4803  -8.4585
    -8.3660  -8.3129  -8.1521  -8.1460  -8.0921  -7.9607  -7.8439  -7.8281
    -6.0775  -5.9254  -5.4481  -5.4410  -4.8064  -4.7215  -4.2237  -4.1158
    -3.6060  -3.5789  -3.3615  -3.0940  -2.7025  -2.5790  -2.4749  -2.4621
    -2.3951  -2.3155  -2.2484  -2.1256  -2.1118  -2.0050  -1.9314  -1.9175

          k =-0.1498 0.0865 0.6221 ( 25553 PWs)   bands (ev):

   -20.9141 -20.7316 -20.7039 -20.5441 -20.5175 -20.4348 -20.1617 -20.0568
   -19.9975 -19.8457 -19.8254 -19.7018  -8.5468  -8.5282  -8.4992  -8.4620
    -8.3582  -8.2900  -8.1550  -8.1476  -8.1256  -7.9102  -7.8695  -7.8338
    -6.1148  -5.7796  -5.7129  -5.1878  -4.9355  -4.7412  -4.2116  -3.9643
    -3.8258  -3.4514  -3.3541  -3.1327  -2.6903  -2.6087  -2.4610  -2.4424
    -2.3601  -2.3468  -2.2561  -2.1317  -2.0935  -2.0100  -1.9578  -1.8974

          k = 0.2996 0.3460-0.3111 ( 25530 PWs)   bands (ev):

   -20.9797 -20.7647 -20.6372 -20.5893 -20.4815 -20.4064 -20.1519 -20.0207
   -19.9991 -19.8936 -19.8150 -19.6803  -8.5544  -8.5391  -8.5025  -8.4465
    -8.3688  -8.3403  -8.2252  -8.1674  -8.1318  -7.9398  -7.8927  -7.8448
    -6.1299  -5.7560  -5.5121  -5.2413  -5.1498  -4.5477  -4.1167  -4.0254
    -3.8144  -3.5307  -3.3441  -3.0518  -2.6083  -2.5608  -2.4869  -2.4243
    -2.3644  -2.2742  -2.2167  -2.1667  -2.0594  -2.0556  -1.9442  -1.8420

          k = 0.1498 0.2595 0.0000 ( 25537 PWs)   bands (ev):

   -21.1320 -20.6869 -20.6081 -20.4656 -20.4304 -20.3330 -20.2145 -20.1300
   -20.0779 -19.9055 -19.8645 -19.5571  -8.5863  -8.5400  -8.5330  -8.4731
    -8.3842  -8.3723  -8.1741  -8.1261  -8.0850  -7.9999  -7.9559  -7.8972
    -6.4466  -5.5006  -5.3640  -5.1320  -5.0852  -4.4343  -4.2217  -4.1073
    -4.0687  -3.5064  -3.4597  -2.7821  -2.5206  -2.5023  -2.4912  -2.3787
    -2.3158  -2.2768  -2.1847  -2.1664  -2.0522  -2.0154  -1.9003  -1.8736

          k = 0.2996-0.1730-1.2442 ( 25550 PWs)   bands (ev):

   -20.9720 -20.9018 -20.6303 -20.5269 -20.4275 -20.3585 -20.1344 -20.1117
   -19.9591 -19.9500 -19.7200 -19.7119  -8.5632  -8.5294  -8.5055  -8.4495
    -8.3936  -8.3882  -8.2691  -8.1806  -8.1149  -7.9589  -7.9558  -7.8792
    -5.9336  -5.9110  -5.4712  -5.3138  -5.0305  -4.5837  -4.0168  -3.9941
    -3.8072  -3.6633  -3.2615  -3.0405  -2.5353  -2.5045  -2.4604  -2.4294
    -2.3363  -2.2787  -2.2192  -2.1354  -2.1124  -2.0217  -1.8566  -1.8530

          k = 0.0000 0.0000 0.9332 ( 25607 PWs)   bands (ev):

   -20.8394 -20.8394 -20.7202 -20.6806 -20.4291 -20.4291 -20.0513 -20.0513
   -19.8883 -19.8551 -19.8177 -19.8177  -8.5401  -8.5401  -8.5144  -8.3944
    -8.3944  -8.3819  -8.2642  -8.1733  -8.1733  -7.8636  -7.8636  -7.8344
    -5.8379  -5.8379  -5.8035  -5.2923  -4.9188  -4.9188  -3.8582  -3.8582
    -3.8086  -3.4213  -3.4213  -3.3122  -2.5585  -2.5585  -2.4440  -2.4118
    -2.3223  -2.3223  -2.2556  -2.1320  -2.1320  -2.0092  -2.0092  -1.8106

          k = 0.4494 0.2595 0.0000 ( 25517 PWs)   bands (ev):

   -21.0039 -20.7873 -20.7580 -20.5287 -20.3544 -20.3377 -20.1747 -20.1582
   -19.9496 -19.8604 -19.8227 -19.6685  -8.5533  -8.5288  -8.5210  -8.4434
    -8.4141  -8.3566  -8.2717  -8.1828  -8.1386  -7.9538  -7.9380  -7.8842
    -6.0834  -5.6137  -5.5428  -5.4248  -4.9836  -4.5897  -4.1089  -4.0154
    -3.7202  -3.5241  -3.4158  -3.0044  -2.5185  -2.5047  -2.4794  -2.4229
    -2.3452  -2.2896  -2.2031  -2.1672  -2.0849  -1.9881  -1.9111  -1.8288

          k = 0.2996 0.1730 0.3111 ( 25551 PWs)   bands (ev):

   -21.0407 -20.6923 -20.5897 -20.5774 -20.4846 -20.3881 -20.1751 -20.1114
   -20.0466 -19.8767 -19.8174 -19.6195  -8.5571  -8.5398  -8.5055  -8.4455
    -8.3780  -8.3158  -8.1841  -8.1203  -8.0754  -8.0226  -7.9590  -7.8664
    -6.2664  -5.5738  -5.5362  -5.1985  -5.0522  -4.5290  -4.2462  -4.0327
    -3.9826  -3.4595  -3.3783  -2.8967  -2.6413  -2.5508  -2.5208  -2.4440
    -2.4016  -2.2551  -2.2273  -2.1328  -2.0259  -2.0212  -1.9252  -1.8925

          k = 0.4494-0.2595-0.9332 ( 25575 PWs)   bands (ev):

   -20.8793 -20.8481 -20.6833 -20.6030 -20.4637 -20.3523 -20.2232 -20.0909
   -19.9328 -19.8476 -19.7939 -19.6998  -8.5422  -8.5170  -8.5012  -8.4139
    -8.3662  -8.3243  -8.2162  -8.1634  -8.1187  -8.0322  -7.9505  -7.8897
    -5.8973  -5.7598  -5.5870  -5.3297  -5.0902  -4.5895  -4.2763  -3.9569
    -3.6836  -3.4611  -3.4022  -3.0086  -2.6413  -2.5783  -2.5406  -2.4671
    -2.4377  -2.3005  -2.1709  -2.1470  -2.0497  -2.0018  -1.9025  -1.8673

          k = 0.2996-0.3460-0.6221 ( 25562 PWs)   bands (ev):

   -20.8136 -20.7980 -20.6642 -20.6428 -20.4888 -20.4864 -20.1233 -20.1183
   -19.9095 -19.8990 -19.7491 -19.7403  -8.5457  -8.4964  -8.4688  -8.4306
    -8.4013  -8.2436  -8.1974  -8.1633  -8.0884  -7.9990  -7.8925  -7.8767
    -5.8998  -5.8512  -5.5244  -5.4547  -4.8986  -4.8459  -4.1079  -4.0125
    -3.6481  -3.6152  -3.3190  -3.0689  -2.7182  -2.5945  -2.5429  -2.5305
    -2.4348  -2.3098  -2.1735  -2.1517  -2.0893  -1.9773  -1.9577  -1.8674

          k = 0.0000 0.0000-1.8663 ( 25620 PWs)   bands (ev):

   -20.7503 -20.7086 -20.6354 -20.6354 -20.6324 -20.6324 -20.0097 -20.0097
   -19.9806 -19.9806 -19.7388 -19.7179  -8.5407  -8.4374  -8.4374  -8.4240
    -8.4240  -8.2551  -8.1864  -8.1672  -8.0599  -8.0599  -7.9423  -7.9423
    -5.8830  -5.6917  -5.3119  -5.3119  -5.1919  -5.1919  -3.7995  -3.7995
    -3.7937  -3.7937  -3.2821  -3.0492  -2.6795  -2.6003  -2.6003  -2.5808
    -2.5808  -2.2490  -2.1818  -2.0678  -2.0678  -1.9966  -1.9966  -1.8229

          k = 0.2996-0.3460 0.3111 ( 25530 PWs)   bands (ev):

   -20.9800 -20.7609 -20.6483 -20.5829 -20.4803 -20.4050 -20.1507 -20.0321
   -19.9945 -19.8901 -19.8122 -19.6825  -8.5545  -8.5315  -8.5101  -8.4245
    -8.3876  -8.3464  -8.2387  -8.1579  -8.1274  -7.9306  -7.8865  -7.8578
    -6.1335  -5.7102  -5.5996  -5.2116  -5.0769  -4.6299  -4.2366  -3.8495
    -3.7355  -3.5651  -3.4648  -3.0059  -2.6232  -2.5393  -2.4700  -2.4182
    -2.3793  -2.2858  -2.2207  -2.1839  -2.0756  -2.0136  -1.9465  -1.8481

     highest occupied level (ev):    -1.8106

!    total energy              =    -417.92522032 Ry
     estimated scf accuracy    <       0.00000002 Ry

     The total energy is the sum of the following terms:
     one-electron contribution =    -276.00200899 Ry
     hartree contribution      =     175.52867272 Ry
     xc contribution           =    -107.31273264 Ry
     ewald contribution        =    -210.13915140 Ry

     convergence has been achieved in  13 iterations

     Forces acting on atoms (cartesian axes, Ry/au):

     atom    1 type  2   force =     0.02413821   -0.08526025   -0.04836942
     atom    2 type  2   force =    -0.02413821    0.08526025    0.04836942
     atom    3 type  2   force =     0.06176844    0.06353443   -0.04836942
     atom    4 type  2   force =    -0.06176844   -0.06353443    0.04836942
     atom    5 type  2   force =    -0.08590665    0.02172583   -0.04836942
     atom    6 type  2   force =     0.08590665   -0.02172583    0.04836942
     atom    7 type  2   force =     0.06856343   -0.05200787    0.04110496
     atom    8 type  2   force =    -0.06856343    0.05200787   -0.04110496
     atom    9 type  2   force =     0.01075842    0.08538160    0.04110496
     atom   10 type  2   force =    -0.01075842   -0.08538160   -0.04110496
     atom   11 type  2   force =    -0.07932185   -0.03337374    0.04110496
     atom   12 type  2   force =     0.07932185    0.03337374   -0.04110496
     atom   13 type  1   force =    -0.03722148    0.06901855   -0.03848443
     atom   14 type  1   force =     0.03722148   -0.06901855    0.03848443
     atom   15 type  1   force =    -0.04116107   -0.06674402   -0.03848443
     atom   16 type  1   force =     0.04116107    0.06674402    0.03848443
     atom   17 type  1   force =     0.07838255   -0.00227453   -0.03848443
     atom   18 type  1   force =    -0.07838255    0.00227453    0.03848443
     atom   19 type  1   force =     0.01652185    0.01571133    0.08587110
     atom   20 type  1   force =    -0.01652185   -0.01571133   -0.08587110
     atom   21 type  1   force =    -0.02186734    0.00645268    0.08587110
     atom   22 type  1   force =     0.02186734   -0.00645268   -0.08587110
     atom   23 type  1   force =     0.00534549   -0.02216401    0.08587110
     atom   24 type  1   force =    -0.00534549    0.02216401   -0.08587110
     atom   25 type  1   force =     0.02551107    0.08345909    0.00139932
     atom   26 type  1   force =    -0.02551107   -0.08345909   -0.00139932
     atom   27 type  1   force =    -0.08503323   -0.01963631    0.00139932
     atom   28 type  1   force =     0.08503323    0.01963631   -0.00139932
     atom   29 type  1   force =     0.05952216   -0.06382278    0.00139932
     atom   30 type  1   force =    -0.05952216    0.06382278   -0.00139932
     atom   31 type  1   force =     0.05622802   -0.05212821   -0.04534819
     atom   32 type  1   force =    -0.05622802    0.05212821    0.04534819
     atom   33 type  1   force =     0.01703034    0.07475900   -0.04534819
     atom   34 type  1   force =    -0.01703034   -0.07475900    0.04534819
     atom   35 type  1   force =    -0.07325837   -0.02263079   -0.04534819
     atom   36 type  1   force =     0.07325837    0.02263079    0.04534819

     Total force =     0.549714     Total SCF correction =     0.000117


     Computing stress (Cartesian axis) and pressure

          total   stress  (Ry/bohr**3)                   (kbar)     P=      155.04
   0.00106089  -0.00000000   0.00000000          156.06       -0.00        0.00
   0.00000000   0.00106089   0.00000000            0.00      156.06        0.00
  -0.00000000   0.00000000   0.00104011           -0.00        0.00      153.01


     Writing all to output data dir ./iceII/iceII.save/ :
     XML data file, charge density, pseudopotentials, collected wavefunctions

     init_run     :      2.47s CPU      2.56s WALL (       1 calls)
     electrons    :     11.81s CPU     12.10s WALL (       1 calls)
     forces       :      0.10s CPU      0.12s WALL (       1 calls)
     stress       :      0.88s CPU      0.90s WALL (       1 calls)

     Called by init_run:
     wfcinit      :      0.32s CPU      0.33s WALL (       1 calls)
     potinit      :      1.63s CPU      1.67s WALL (       1 calls)
     hinit0       :      0.39s CPU      0.40s WALL (       1 calls)

     Called by electrons:
     c_bands      :      8.95s CPU      9.04s WALL (      13 calls)
     sum_band     :      1.29s CPU      1.30s WALL (      13 calls)
     v_of_rho     :      3.06s CPU      3.24s WALL (      14 calls)
     newd         :      0.05s CPU      0.06s WALL (      14 calls)
     mix_rho      :      0.04s CPU      0.04s WALL (      13 calls)
     vdW_kernel   :      1.51s CPU      1.52s WALL (       1 calls)

     Called by c_bands:
     init_us_2    :      0.13s CPU      0.14s WALL (     116 calls)
     cegterg      :      8.65s CPU      8.70s WALL (      52 calls)

     Called by *egterg:
     cdiaghg      :      0.69s CPU      0.69s WALL (     187 calls)
     h_psi        :      6.91s CPU      6.95s WALL (     191 calls)
     s_psi        :      0.26s CPU      0.26s WALL (     191 calls)
     g_psi        :      0.02s CPU      0.02s WALL (     135 calls)

     Called by h_psi:
     h_psi:calbec :      0.46s CPU      0.47s WALL (     191 calls)
     vloc_psi     :      6.12s CPU      6.16s WALL (     191 calls)
     add_vuspsi   :      0.27s CPU      0.28s WALL (     191 calls)

     General routines
     calbec       :      0.62s CPU      0.63s WALL (     263 calls)
     fft          :      1.13s CPU      1.15s WALL (     906 calls)
     ffts         :      0.01s CPU      0.01s WALL (      13 calls)
     fftw         :      6.42s CPU      6.45s WALL (   17936 calls)

     Parallel routines

     PWSCF        :     15.52s CPU     16.33s WALL


   This run was terminated on:  14:45:39  26Mar2026            

=------------------------------------------------------------------------------=
   JOB DONE.
=------------------------------------------------------------------------------=
