
     Program PWSCF v.7.3.1 starts on  1Apr2026 at 14: 5:35 

     This program is part of the open-source Quantum ESPRESSO suite
     for quantum simulation of materials; please cite
         "P. Giannozzi et al., J. Phys.:Condens. Matter 21 395502 (2009);
         "P. Giannozzi et al., J. Phys.:Condens. Matter 29 465901 (2017);
         "P. Giannozzi et al., J. Chem. Phys. 152 154105 (2020);
          URL http://www.quantum-espresso.org", 
     in publications or presentations arising from this work. More details at
     http://www.quantum-espresso.org/quote

     Parallel version (MPI), running on   128 processors

     MPI processes distributed on     1 nodes
     242726 MiB available memory on the printing compute node when the environment starts

     Waiting for input...
     Reading input from standard input

     Current dimensions of program PWSCF are:
     Max number of different atomic species (ntypx) = 10
     Max number of k-points (npk) =  40000
     Max angular momentum in pseudopotentials (lmaxx) =  4

     IMPORTANT: XC functional enforced from input :
     Exchange-correlation= VDW-DF2
                           (   1   4  13   0   2   0   0)
     Any further DFT definition will be discarded
     Please, verify this is what you really want


     K-points division:     npool     =       4
     R & G space division:  proc/nbgrp/npool/nimage =      32
     Subspace diagonalization in iterative solution of the eigenvalue problem:
     a serial algorithm will be used


     Parallelization info
     --------------------
     sticks:   dense  smooth     PW     G-vecs:    dense   smooth      PW
     Min         162     162     47                 6445     6445    1035
     Max         163     163     48                 6447     6447    1039
     Sum        5197    5197   1535               206267   206267   33199

     Using Slab Decomposition



     bravais-lattice index     =            5
     lattice parameter (alat)  =      14.0405  a.u.
     unit-cell volume          =    1788.2895 (a.u.)^3
     number of atoms/cell      =           36
     number of atomic types    =            2
     number of electrons       =        96.00
     number of Kohn-Sham states=           48
     kinetic-energy cutoff     =      90.0000  Ry
     charge density cutoff     =     360.0000  Ry
     scf convergence threshold =      1.0E-07
     mixing beta               =       0.7000
     number of iterations used =            8  plain     mixing
     energy convergence thresh.=      1.0E-04
     force convergence thresh. =      1.0E-03
     Exchange-correlation= VDW-DF2
                           (   1   4  13   0   2   0   0)
     nstep                     =           50


     celldm(1)=  14.040475  celldm(2)=   0.000000  celldm(3)=   0.000000
     celldm(4)=  -0.392337  celldm(5)=   0.000000  celldm(6)=   0.000000

     crystal axes: (cart. coord. in units of alat)
               a(1) = (   0.834367  -0.481722   0.267909 )  
               a(2) = (   0.000000   0.963444   0.267909 )  
               a(3) = (  -0.834367  -0.481722   0.267909 )  

     reciprocal axes: (cart. coord. in units 2 pi/alat)
               b(1) = (  0.599257 -0.345981  1.244203 )  
               b(2) = (  0.000000  0.691962  1.244203 )  
               b(3) = ( -0.599257 -0.345981  1.244203 )  


     PseudoPot. # 1 for H  read from file:
     ./H.pbe-van_ak.UPF
     MD5 check sum: 077eb6d537518a38cb46c6de387227b7
     Pseudo is Ultrasoft, Zval =  1.0
     Generated by new atomic code, or converted to UPF format
     Using radial grid of  615 points,  1 beta functions with: 
                l(1) =   0
     Q(r) pseudized with  8 coefficients,  rinner =    0.800

     PseudoPot. # 2 for O  read from file:
     ./O.pbe-van_ak.UPF
     MD5 check sum: 78c19812648e8988a0fe644b0f25305e
     Pseudo is Ultrasoft, Zval =  6.0
     Generated by new atomic code, or converted to UPF format
     Using radial grid of  737 points,  4 beta functions with: 
                l(1) =   0
                l(2) =   0
                l(3) =   1
                l(4) =   1
     Q(r) pseudized with  8 coefficients,  rinner =    0.800   0.800   0.800


     atomic species   valence    mass     pseudopotential
     H                 1.00     1.00800     H ( 1.00)
     O                 6.00    16.00000     O ( 1.00)

      6 Sym. Ops., with inversion, found



   Cartesian axes

     site n.     atom                  positions (alat units)
         1        O      tau(   1) = (  -0.4847673  -0.5197781   0.3083633  )
         2        O      tau(   2) = (   0.4847673   0.5197782   0.4953638  )
         3        O      tau(   3) = (   0.6925247  -0.1599317   0.3083633  )
         4        O      tau(   4) = (  -0.6925248   0.1599317   0.4953638  )
         5        O      tau(   5) = (  -0.2077574   0.6797099   0.3083633  )
         6        O      tau(   6) = (   0.2077574  -0.6797099   0.4953638  )
         7        O      tau(   7) = (   0.1218176   0.3323883   0.4179381  )
         8        O      tau(   8) = (  -0.1218176  -0.3323883   0.3857890  )
         9        O      tau(   9) = (  -0.3487655  -0.0606970   0.4179381  )
        10        O      tau(  10) = (   0.3487655   0.0606970   0.3857890  )
        11        O      tau(  11) = (   0.2269479  -0.2716913   0.4179381  )
        12        O      tau(  12) = (  -0.2269479   0.2716912   0.3857890  )
        13        H      tau(  13) = (  -0.5381668  -0.4032014   0.2796970  )
        14        H      tau(  14) = (   0.5381668   0.4032014   0.5240301  )
        15        H      tau(  15) = (   0.6182661  -0.2644654   0.2796970  )
        16        H      tau(  16) = (  -0.6182661   0.2644654   0.5240301  )
        17        H      tau(  17) = (  -0.0800993   0.6676668   0.2796970  )
        18        H      tau(  18) = (   0.0800993  -0.6676668   0.5240301  )
        19        H      tau(  19) = (  -0.4872704  -0.4817221   0.4326731  )
        20        H      tau(  20) = (   0.4872704   0.4817221   0.3710540  )
        21        H      tau(  21) = (   0.6608188  -0.1811275   0.4326731  )
        22        H      tau(  22) = (  -0.6608188   0.1811275   0.3710540  )
        23        H      tau(  23) = (  -0.1735484   0.6628496   0.4326731  )
        24        H      tau(  24) = (   0.1735484  -0.6628496   0.3710540  )
        25        H      tau(  25) = (   0.2703349  -0.1502973   0.4058822  )
        26        H      tau(  26) = (  -0.2703350   0.1502973   0.3978449  )
        27        H      tau(  27) = (  -0.0050062   0.3092656   0.4058822  )
        28        H      tau(  28) = (   0.0050062  -0.3092656   0.3978449  )
        29        H      tau(  29) = (  -0.2653287  -0.1589683   0.4058822  )
        30        H      tau(  30) = (   0.2653287   0.1589683   0.3978449  )
        31        H      tau(  31) = (   0.3178939  -0.3347969   0.3493534  )
        32        H      tau(  32) = (  -0.3178939   0.3347969   0.4543737  )
        33        H      tau(  33) = (   0.1309957   0.4427026   0.3493534  )
        34        H      tau(  34) = (  -0.1309956  -0.4427026   0.4543737  )
        35        H      tau(  35) = (  -0.4488895  -0.1079057   0.3493534  )
        36        H      tau(  36) = (   0.4488895   0.1079057   0.4543737  )

     number of k points=    14
                       cart. coord. in units 2pi/alat
        k(    1) = (   0.0000000   0.0000000   0.0000000), wk =   0.0312500
        k(    2) = (  -0.1498141  -0.0864952   0.3110508), wk =   0.1875000
        k(    3) = (   0.2996283   0.1729905  -0.6221017), wk =   0.0937500
        k(    4) = (  -0.1498141   0.0864952   0.6221017), wk =   0.1875000
        k(    5) = (   0.2996283   0.3459809  -0.3110508), wk =   0.1875000
        k(    6) = (   0.1498141   0.2594857   0.0000000), wk =   0.1875000
        k(    7) = (   0.2996283  -0.1729905  -1.2442034), wk =   0.0937500
        k(    8) = (   0.0000000   0.0000000   0.9331525), wk =   0.0625000
        k(    9) = (   0.4494424   0.2594857   0.0000000), wk =   0.1875000
        k(   10) = (   0.2996283   0.1729905   0.3110508), wk =   0.1875000
        k(   11) = (   0.4494424  -0.2594857  -0.9331525), wk =   0.1875000
        k(   12) = (   0.2996283  -0.3459809  -0.6221017), wk =   0.1875000
        k(   13) = (   0.0000000   0.0000000  -1.8663050), wk =   0.0312500
        k(   14) = (   0.2996283  -0.3459809   0.3110508), wk =   0.1875000

     Dense  grid:   206267 G-vectors     FFT dimensions: (  90,  90,  90)

     Estimated max dynamical RAM per process >      13.89 MB

     Estimated total dynamical RAM >       1.59 GB

     Initial potential from superposition of free atoms

     starting charge      95.9998, renormalised to      96.0000


     %%%%%%%%%%%%%%%%%%%%%%%%%%%%%%%%%%%%%%%%%%%%%%%%%%%%%%%%%%%%%%%%%%%%%%%%
     %                                                                      %
     % You are using vdW-DF, which was implemented by the Thonhauser group. %
     % Please cite the following two papers that made this development      %
     % possible and the two reviews that describe the various versions:     %
     %                                                                      %
     %   T. Thonhauser et al., PRL 115, 136402 (2015).                      %
     %   T. Thonhauser et al., PRB 76, 125112 (2007).                       %
     %   K. Berland et al., Rep. Prog. Phys. 78, 066501 (2015).             %
     %   D.C. Langreth et al., J. Phys.: Condens. Matter 21, 084203 (2009). %
     %                                                                      %
     % If you are calculating stress with vdW-DF, please also cite:         %
     %                                                                      %
     %   R. Sabatini et al., J. Phys.: Condens. Matter 24, 424209 (2012).   %
     %                                                                      %
     %%%%%%%%%%%%%%%%%%%%%%%%%%%%%%%%%%%%%%%%%%%%%%%%%%%%%%%%%%%%%%%%%%%%%%%%

     %%%%%%%%%%%%%%%%%%%%%%%%%%%%%%%%%%%%%%%%%%%%%%%%%%%%%%%%%%%%%%%%%%%%%%%%
     %                                                                      %
     %  vdW-DF NEWS:                                                        %
     %                                                                      %
     %  * vdW-DF3 is now available. DOI: 10.1021/acs.jctc.0c00471           %
     %    use with input_dft = 'vdW-DF3-opt1' or 'vdW-DF3-opt2'             %
     %                                                                      %
     %  * Unscreened and range-separated hybrid vdW-DF-cx functionals       %
     %    DOI: 10.1063/1.4986522 and 10.1088/1361-648X/ac2ad2               %
     %    use with input_dft = 'vdW-DF-cx0'    and 'vdW-DF-ahcx'            %
     %  * Unscreened and range-separated hybrid vdW-DF2-b86r functionals    %
     %    DOI: 10.1063/1.4986522 and DOI: 10.1103/PhysRevX.12.041003        %
     %    use with input_dft = 'vdW-DF2-br0' and 'vdW-DF2-ahbr'             %
     %                                                                      %
     %%%%%%%%%%%%%%%%%%%%%%%%%%%%%%%%%%%%%%%%%%%%%%%%%%%%%%%%%%%%%%%%%%%%%%%%


     Starting wfcs are   72 randomized atomic wfcs

     total cpu time spent up to now is        2.8 secs

     per-process dynamical memory:    18.6 Mb

     Self-consistent Calculation

     iteration #  1     ecut=    90.00 Ry     beta= 0.70
     Davidson diagonalization with overlap
     ethr =  1.00E-02,  avg # of iterations =  2.0

     total cpu time spent up to now is        3.6 secs

     total energy              =    -415.77333050 Ry
     estimated scf accuracy    <       4.82372374 Ry

     iteration #  2     ecut=    90.00 Ry     beta= 0.70
     Davidson diagonalization with overlap
     ethr =  5.02E-03,  avg # of iterations =  3.0

     total cpu time spent up to now is        4.7 secs

     total energy              =    -417.40077718 Ry
     estimated scf accuracy    <       2.81917169 Ry

     iteration #  3     ecut=    90.00 Ry     beta= 0.70
     Davidson diagonalization with overlap
     ethr =  2.94E-03,  avg # of iterations =  2.0

     total cpu time spent up to now is        5.5 secs

     total energy              =    -417.76308736 Ry
     estimated scf accuracy    <       0.11878847 Ry

     iteration #  4     ecut=    90.00 Ry     beta= 0.70
     Davidson diagonalization with overlap
     ethr =  1.24E-04,  avg # of iterations =  4.0

     total cpu time spent up to now is        6.8 secs

     total energy              =    -417.85213925 Ry
     estimated scf accuracy    <       0.14061849 Ry

     iteration #  5     ecut=    90.00 Ry     beta= 0.70
     Davidson diagonalization with overlap
     ethr =  1.24E-04,  avg # of iterations =  2.0

     total cpu time spent up to now is        7.5 secs

     total energy              =    -417.85636830 Ry
     estimated scf accuracy    <       0.02262860 Ry

     iteration #  6     ecut=    90.00 Ry     beta= 0.70
     Davidson diagonalization with overlap
     ethr =  2.36E-05,  avg # of iterations =  2.0

     total cpu time spent up to now is        8.4 secs

     total energy              =    -417.85679225 Ry
     estimated scf accuracy    <       0.00567654 Ry

     iteration #  7     ecut=    90.00 Ry     beta= 0.70
     Davidson diagonalization with overlap
     ethr =  5.91E-06,  avg # of iterations =  2.0

     total cpu time spent up to now is        9.2 secs

     total energy              =    -417.85814870 Ry
     estimated scf accuracy    <       0.00009683 Ry

     iteration #  8     ecut=    90.00 Ry     beta= 0.70
     Davidson diagonalization with overlap
     ethr =  1.01E-07,  avg # of iterations =  5.0

     total cpu time spent up to now is       10.5 secs

     total energy              =    -417.85825104 Ry
     estimated scf accuracy    <       0.00029903 Ry

     iteration #  9     ecut=    90.00 Ry     beta= 0.70
     Davidson diagonalization with overlap
     ethr =  1.01E-07,  avg # of iterations =  2.0

     total cpu time spent up to now is       11.3 secs

     total energy              =    -417.85821381 Ry
     estimated scf accuracy    <       0.00011335 Ry

     iteration # 10     ecut=    90.00 Ry     beta= 0.70
     Davidson diagonalization with overlap
     ethr =  1.01E-07,  avg # of iterations =  2.0

     total cpu time spent up to now is       12.1 secs

     total energy              =    -417.85823085 Ry
     estimated scf accuracy    <       0.00000628 Ry

     iteration # 11     ecut=    90.00 Ry     beta= 0.70
     Davidson diagonalization with overlap
     ethr =  6.54E-09,  avg # of iterations =  4.0

     total cpu time spent up to now is       13.1 secs

     total energy              =    -417.85823191 Ry
     estimated scf accuracy    <       0.00000120 Ry

     iteration # 12     ecut=    90.00 Ry     beta= 0.70
     Davidson diagonalization with overlap
     ethr =  1.26E-09,  avg # of iterations =  3.0

     total cpu time spent up to now is       14.0 secs

     total energy              =    -417.85823213 Ry
     estimated scf accuracy    <       0.00000011 Ry

     iteration # 13     ecut=    90.00 Ry     beta= 0.70
     Davidson diagonalization with overlap
     ethr =  1.10E-10,  avg # of iterations =  3.9

     total cpu time spent up to now is       15.0 secs

     End of self-consistent calculation

          k = 0.0000 0.0000 0.0000 ( 25805 PWs)   bands (ev):

   -21.2028 -20.5992 -20.5992 -20.3154 -20.3154 -20.2910 -20.2910 -20.2640
   -20.2546 -19.8688 -19.8688 -19.4682  -8.3830  -8.1492  -8.0924  -8.0924
    -7.9574  -7.9574  -7.5188  -7.3631  -7.3631  -7.1333  -7.1333  -6.9555
    -6.9075  -5.8149  -5.8149  -5.1195  -5.1195  -5.0436  -5.0436  -4.7164
    -4.4688  -3.7745  -3.7745  -3.0673  -2.5472  -2.5472  -2.4305  -2.3356
    -2.2746  -2.2746  -2.1201  -2.1201  -2.0677  -2.0490  -1.9854  -1.9854

          k =-0.1498-0.0865 0.3111 ( 25783 PWs)   bands (ev):

   -21.1072 -20.6504 -20.5839 -20.5014 -20.4759 -20.3798 -20.1944 -20.1413
   -20.0691 -19.8786 -19.8242 -19.5450  -8.3165  -8.2193  -8.1332  -8.0771
    -7.9419  -7.8720  -7.5386  -7.3419  -7.3061  -7.1707  -7.0070  -6.9706
    -6.7148  -5.9823  -5.8213  -5.5163  -5.1463  -4.9788  -4.8385  -4.5731
    -4.5096  -3.7640  -3.6962  -3.2079  -2.7027  -2.6122  -2.4649  -2.3904
    -2.3226  -2.2736  -2.2247  -2.1552  -2.0675  -2.0276  -1.9755  -1.9207

          k = 0.2996 0.1730-0.6221 ( 25786 PWs)   bands (ev):

   -20.8635 -20.8494 -20.6348 -20.5984 -20.4773 -20.4642 -20.1294 -20.1072
   -19.8943 -19.8804 -19.7508 -19.7139  -8.2740  -8.2161  -8.1255  -8.0876
    -7.9549  -7.8757  -7.4842  -7.3409  -7.2828  -7.1815  -6.9019  -6.9000
    -6.4097  -6.2508  -5.8746  -5.7164  -5.1466  -5.0533  -4.8220  -4.6507
    -4.0319  -3.9414  -3.6268  -3.3923  -2.8425  -2.6458  -2.4904  -2.4681
    -2.3747  -2.3401  -2.2343  -2.1558  -2.1431  -1.9823  -1.9604  -1.8674

          k =-0.1498 0.0865 0.6221 ( 25784 PWs)   bands (ev):

   -20.9118 -20.7344 -20.7152 -20.5593 -20.5336 -20.4516 -20.1323 -20.0277
   -19.9793 -19.8284 -19.8063 -19.6840  -8.2848  -8.1879  -8.1714  -8.0490
    -7.9681  -7.8561  -7.4810  -7.3966  -7.3263  -7.0450  -6.9626  -6.8962
    -6.4175  -6.1691  -6.0508  -5.5131  -5.3039  -5.0998  -4.7380  -4.5104
    -4.2847  -3.7344  -3.6877  -3.4176  -2.8128  -2.7006  -2.4817  -2.4197
    -2.3815  -2.3221  -2.2633  -2.1649  -2.1277  -1.9917  -1.9681  -1.8594

          k = 0.2996 0.3460-0.3111 ( 25776 PWs)   bands (ev):

   -20.9823 -20.7777 -20.6264 -20.6118 -20.4874 -20.4108 -20.1302 -20.0076
   -19.9910 -19.8727 -19.7987 -19.6533  -8.2980  -8.2683  -8.0946  -8.0641
    -7.9922  -7.8791  -7.5414  -7.4704  -7.3168  -7.0067  -6.9759  -6.8815
    -6.5629  -6.1979  -5.9247  -5.5398  -5.4894  -4.8942  -4.7059  -4.4059
    -4.1479  -3.9079  -3.6775  -3.3778  -2.6883  -2.6084  -2.5022  -2.4231
    -2.3458  -2.2804  -2.2167  -2.1952  -2.0886  -2.0457  -1.9684  -1.8392

          k = 0.1498 0.2595 0.0000 ( 25785 PWs)   bands (ev):

   -21.1343 -20.7037 -20.6285 -20.4549 -20.4219 -20.3176 -20.2209 -20.1260
   -20.0785 -19.8849 -19.8364 -19.5295  -8.3606  -8.2385  -8.1209  -8.0637
    -7.9223  -7.9116  -7.6270  -7.4540  -7.2297  -7.1352  -7.0407  -6.9010
    -6.8778  -5.9465  -5.7896  -5.5146  -5.3962  -4.8445  -4.6771  -4.5607
    -4.3343  -3.8513  -3.7595  -3.1500  -2.5517  -2.5214  -2.4754  -2.3831
    -2.3293  -2.2938  -2.1473  -2.1261  -2.0878  -2.0678  -1.9403  -1.9208

          k = 0.2996-0.1730-1.2442 ( 25742 PWs)   bands (ev):

   -20.9715 -20.9166 -20.6524 -20.5136 -20.4258 -20.3391 -20.1537 -20.0973
   -19.9630 -19.9277 -19.6986 -19.6767  -8.3344  -8.2856  -8.1204  -8.0879
    -7.9013  -7.8841  -7.6460  -7.5487  -7.2228  -7.1605  -6.9447  -6.8888
    -6.4529  -6.4135  -5.8711  -5.6499  -5.2962  -4.9729  -4.5229  -4.2600
    -4.1404  -4.1044  -3.5890  -3.3797  -2.5780  -2.5077  -2.4764  -2.4362
    -2.3353  -2.2441  -2.2359  -2.1372  -2.1315  -2.0605  -1.8949  -1.8818

          k = 0.0000 0.0000 0.9332 ( 25787 PWs)   bands (ev):

   -20.8439 -20.8439 -20.7415 -20.6692 -20.4379 -20.4379 -20.0349 -20.0349
   -19.8926 -19.8185 -19.7974 -19.7974  -8.2676  -8.2676  -8.1077  -8.0036
    -7.9866  -7.9866  -7.5534  -7.4312  -7.4312  -6.8970  -6.8970  -6.8479
    -6.3204  -6.3204  -6.3160  -5.5603  -5.2034  -5.2034  -4.4662  -4.2572
    -4.2572  -3.7507  -3.7507  -3.5932  -2.6161  -2.6161  -2.4825  -2.3798
    -2.3147  -2.3146  -2.2384  -2.1695  -2.1695  -2.0257  -2.0257  -1.8100

          k = 0.4494 0.2595 0.0000 ( 25763 PWs)   bands (ev):

   -21.0074 -20.7933 -20.7791 -20.5137 -20.3556 -20.3297 -20.1709 -20.1544
   -19.9637 -19.8370 -19.7915 -19.6397  -8.3255  -8.2749  -8.1893  -8.0115
    -7.9424  -7.8733  -7.6620  -7.4874  -7.3382  -7.0345  -6.9673  -6.9176
    -6.5846  -6.1473  -6.0555  -5.5970  -5.2945  -4.9748  -4.4574  -4.4201
    -4.1862  -3.8655  -3.7224  -3.3513  -2.5519  -2.5422  -2.4596  -2.4406
    -2.3482  -2.2723  -2.1939  -2.1637  -2.0937  -2.0328  -1.9582  -1.8595

          k = 0.2996 0.1730 0.3111 ( 25775 PWs)   bands (ev):

   -21.0428 -20.7126 -20.6007 -20.5802 -20.4743 -20.3984 -20.1502 -20.1191
   -20.0180 -19.8680 -19.7920 -19.5934  -8.3228  -8.2544  -8.1599  -8.0116
    -7.9904  -7.8098  -7.5847  -7.4216  -7.2156  -7.1319  -7.0666  -6.9458
    -6.5977  -5.9723  -5.7771  -5.6814  -5.4413  -5.0108  -4.6764  -4.4406
    -4.2897  -3.8262  -3.6974  -3.2437  -2.7118  -2.6302  -2.5303  -2.4708
    -2.3452  -2.2976  -2.2006  -2.1530  -2.0487  -2.0044  -1.9292  -1.9138

          k = 0.4494-0.2595-0.9332 ( 25793 PWs)   bands (ev):

   -20.8787 -20.8650 -20.6944 -20.6035 -20.4574 -20.3632 -20.1997 -20.0941
   -19.9067 -19.8445 -19.7744 -19.6666  -8.3519  -8.2379  -8.1902  -8.0122
    -7.9578  -7.7903  -7.6473  -7.3877  -7.2407  -7.1762  -6.9940  -6.9512
    -6.2764  -6.2295  -5.8543  -5.7094  -5.4919  -5.1157  -4.6197  -4.3084
    -3.9909  -3.9162  -3.7337  -3.3294  -2.7013  -2.6555  -2.6098  -2.4722
    -2.4289  -2.3242  -2.1350  -2.1073  -2.0608  -2.0184  -1.9317  -1.8698

          k = 0.2996-0.3460-0.6221 ( 25810 PWs)   bands (ev):

   -20.8190 -20.7979 -20.6758 -20.6518 -20.5020 -20.4962 -20.1046 -20.0896
   -19.8953 -19.8811 -19.7460 -19.7030  -8.3651  -8.1410  -8.1082  -8.0785
    -8.0345  -7.7910  -7.5139  -7.4076  -7.2022  -7.1559  -6.9613  -6.9548
    -6.2365  -6.0974  -5.9020  -5.7756  -5.3952  -5.3505  -4.5279  -4.4490
    -3.9978  -3.9564  -3.7229  -3.3118  -2.8784  -2.6780  -2.6045  -2.5226
    -2.4467  -2.2800  -2.1960  -2.1425  -2.1093  -1.9655  -1.9428  -1.8461

          k = 0.0000 0.0000-1.8663 ( 25878 PWs)   bands (ev):

   -20.7706 -20.7221 -20.6403 -20.6403 -20.6264 -20.6264 -20.0118 -20.0118
   -19.9490 -19.9490 -19.7260 -19.6867  -8.4221  -8.0855  -8.0855  -8.0754
    -8.0754  -7.7627  -7.5668  -7.4153  -7.0911  -7.0911  -7.0579  -7.0579
    -6.0185  -5.8652  -5.7772  -5.7772  -5.7395  -5.7395  -4.2693  -4.2693
    -4.0484  -4.0484  -3.7267  -3.2551  -2.9149  -2.6854  -2.6854  -2.5726
    -2.5726  -2.2119  -2.1970  -2.0565  -2.0565  -1.9823  -1.9823  -1.8140

          k = 0.2996-0.3460 0.3111 ( 25776 PWs)   bands (ev):

   -20.9826 -20.7737 -20.6483 -20.5957 -20.4833 -20.4106 -20.1339 -20.0285
   -19.9545 -19.8968 -19.7856 -19.6564  -8.3171  -8.2292  -8.1312  -8.0551
    -7.9714  -7.8834  -7.6005  -7.4291  -7.2933  -7.0530  -6.9314  -6.9055
    -6.5492  -6.1184  -6.0422  -5.5836  -5.3372  -4.9715  -4.7904  -4.3001
    -4.1137  -3.8959  -3.7739  -3.3438  -2.7009  -2.5708  -2.5179  -2.4166
    -2.3627  -2.2861  -2.2204  -2.1915  -2.1095  -2.0079  -1.9685  -1.8499

     highest occupied level (ev):    -1.8100

!    total energy              =    -417.85823218 Ry
     estimated scf accuracy    <       0.00000003 Ry

     The total energy is the sum of the following terms:
     one-electron contribution =    -274.71819818 Ry
     hartree contribution      =     174.79172036 Ry
     xc contribution           =    -106.89029659 Ry
     ewald contribution        =    -211.04145777 Ry

     convergence has been achieved in  13 iterations

     Forces acting on atoms (cartesian axes, Ry/au):

     atom    1 type  2   force =    -0.00639703   -0.00224993   -0.01509395
     atom    2 type  2   force =     0.00639703    0.00224993    0.01509395
     atom    3 type  2   force =     0.00514701   -0.00441502   -0.01509395
     atom    4 type  2   force =    -0.00514701    0.00441502    0.01509395
     atom    5 type  2   force =     0.00125002    0.00666495   -0.01509395
     atom    6 type  2   force =    -0.00125002   -0.00666495    0.01509395
     atom    7 type  2   force =     0.02460749   -0.01069805    0.01092210
     atom    8 type  2   force =    -0.02460749    0.01069805   -0.01092210
     atom    9 type  2   force =    -0.00303896    0.02665974    0.01092210
     atom   10 type  2   force =     0.00303896   -0.02665974   -0.01092210
     atom   11 type  2   force =    -0.02156853   -0.01596169    0.01092210
     atom   12 type  2   force =     0.02156853    0.01596169   -0.01092210
     atom   13 type  1   force =    -0.02307094    0.02901500   -0.07705838
     atom   14 type  1   force =     0.02307094   -0.02901500    0.07705838
     atom   15 type  1   force =    -0.01359225   -0.03448752   -0.07705838
     atom   16 type  1   force =     0.01359225    0.03448752    0.07705838
     atom   17 type  1   force =     0.03666320    0.00547252   -0.07705838
     atom   18 type  1   force =    -0.03666320   -0.00547252    0.07705838
     atom   19 type  1   force =     0.03373327   -0.03433031    0.07935418
     atom   20 type  1   force =    -0.03373327    0.03433031   -0.07935418
     atom   21 type  1   force =     0.01286428    0.04637903    0.07935418
     atom   22 type  1   force =    -0.01286428   -0.04637903   -0.07935418
     atom   23 type  1   force =    -0.04659756   -0.01204872    0.07935418
     atom   24 type  1   force =     0.04659756    0.01204872   -0.07935418
     atom   25 type  1   force =     0.00425997    0.06416074    0.00996032
     atom   26 type  1   force =    -0.00425997   -0.06416074   -0.00996032
     atom   27 type  1   force =    -0.05769482   -0.02839112    0.00996032
     atom   28 type  1   force =     0.05769482    0.02839112   -0.00996032
     atom   29 type  1   force =     0.05343484   -0.03576962    0.00996032
     atom   30 type  1   force =    -0.05343484    0.03576962   -0.00996032
     atom   31 type  1   force =     0.01636882   -0.04925820   -0.01955455
     atom   32 type  1   force =    -0.01636882    0.04925820    0.01955455
     atom   33 type  1   force =     0.03447444    0.03880492   -0.01955455
     atom   34 type  1   force =    -0.03447444   -0.03880492    0.01955455
     atom   35 type  1   force =    -0.05084326    0.01045328   -0.01955455
     atom   36 type  1   force =     0.05084326   -0.01045328    0.01955455

     Total force =     0.382226     Total SCF correction =     0.000162


     Computing stress (Cartesian axis) and pressure

          total   stress  (Ry/bohr**3)                   (kbar)     P=      115.41
   0.00071931   0.00000000   0.00000000          105.81        0.00        0.00
  -0.00000000   0.00071931   0.00000000           -0.00      105.81        0.00
   0.00000000   0.00000000   0.00091507            0.00        0.00      134.61


     BFGS Geometry Optimization
     Energy error            =      0.0E+00 Ry
     Gradient error          =      7.9E-02 Ry/Bohr

     number of scf cycles    =   1
     number of bfgs steps    =   0

     energy             new  =    -417.8582321841 Ry

     new trust radius        =       0.0928094262 bohr
     new conv_thr            =       0.0000001000 Ry


ATOMIC_POSITIONS (crystal)
O                0.2714448573        0.0225515586        0.8529908857
O                0.7285551427        0.9774484524        0.1470090843
O                0.8529908857        0.2714448573        0.0225515586
O                0.1470090843        0.7285551427        0.9774484524
O                0.0225515586        0.8529908857        0.2714448573
O                0.9774484524        0.1470090843        0.7285551427
O                0.4802817340        0.7504406310        0.3321812085
O                0.5197182660        0.2495593690        0.6678187615
O                0.3321812085        0.4802817340        0.7504406310
O                0.6678187615        0.5197182660        0.2495593690
O                0.7504406310        0.3321812085        0.4802817340
O                0.2495593690        0.6678187615        0.5197182660
H                0.1564717807        0.0636013896        0.8034411413
H                0.8435282053        0.9363986024        0.1965588587
H                0.8034411413        0.1564717807        0.0636013896
H                0.1965588587        0.8435282053        0.9363986024
H                0.0636013896        0.8034411413        0.1564717807
H                0.9363986024        0.1965588587        0.8435282053
H                0.4223177108        0.2103400929        1.0034381859
H                0.5776822892        0.7896599221       -0.0034382069
H                1.0034381859        0.4223177108        0.2103400929
H               -0.0034382069        0.5776822892        0.7896599221
H                0.2103400929        1.0034381859        0.4223177108
H                0.7896599221       -0.0034382069        0.5776822892
H                0.7184834105        0.4050446889        0.3941198026
H                0.2815165895        0.5949552811        0.6058802274
H                0.3941198026        0.7184834105        0.4050446889
H                0.6058802274        0.2815165895        0.5949552811
H                0.4050446889        0.3941198026        0.7184834105
H                0.5949552811        0.6058802274        0.2815165895
H                0.7411795983        0.1988395487        0.3587823514
H                0.2588204017        0.8011604363        0.6412176486
H                0.3587823514        0.7411795983        0.1988395487
H                0.6412176486        0.2588204017        0.8011604363
H                0.1988395487        0.3587823514        0.7411795983
H                0.8011604363        0.6412176486        0.2588204017



     Writing config-only to output data dir ./iceII/iceII.save/ :
     XML data file
     NEW-OLD atomic charge density approx. for the potential

     total cpu time spent up to now is       16.5 secs

     per-process dynamical memory:    18.1 Mb

     Self-consistent Calculation

     iteration #  1     ecut=    90.00 Ry     beta= 0.70
     Davidson diagonalization with overlap
     ethr =  1.00E-06,  avg # of iterations =  6.3

     total cpu time spent up to now is       18.2 secs

     total energy              =    -417.93837513 Ry
     estimated scf accuracy    <       0.01758640 Ry

     iteration #  2     ecut=    90.00 Ry     beta= 0.70
     Davidson diagonalization with overlap
     ethr =  1.83E-05,  avg # of iterations =  3.0

     total cpu time spent up to now is       19.2 secs

     total energy              =    -417.94341596 Ry
     estimated scf accuracy    <       0.00651789 Ry

     iteration #  3     ecut=    90.00 Ry     beta= 0.70
     Davidson diagonalization with overlap
     ethr =  6.79E-06,  avg # of iterations =  2.0

     total cpu time spent up to now is       20.0 secs

     total energy              =    -417.94440112 Ry
     estimated scf accuracy    <       0.00020879 Ry

     iteration #  4     ecut=    90.00 Ry     beta= 0.70
     Davidson diagonalization with overlap
     ethr =  2.17E-07,  avg # of iterations =  4.3

     total cpu time spent up to now is       21.2 secs

     total energy              =    -417.94453679 Ry
     estimated scf accuracy    <       0.00021273 Ry

     iteration #  5     ecut=    90.00 Ry     beta= 0.70
     Davidson diagonalization with overlap
     ethr =  2.17E-07,  avg # of iterations =  2.0

     total cpu time spent up to now is       22.0 secs

     total energy              =    -417.94454967 Ry
     estimated scf accuracy    <       0.00002506 Ry

     iteration #  6     ecut=    90.00 Ry     beta= 0.70
     Davidson diagonalization with overlap
     ethr =  2.61E-08,  avg # of iterations =  3.6

     total cpu time spent up to now is       23.1 secs

     total energy              =    -417.94456196 Ry
     estimated scf accuracy    <       0.00001695 Ry

     iteration #  7     ecut=    90.00 Ry     beta= 0.70
     Davidson diagonalization with overlap
     ethr =  1.77E-08,  avg # of iterations =  2.0

     total cpu time spent up to now is       24.0 secs

     total energy              =    -417.94456382 Ry
     estimated scf accuracy    <       0.00000112 Ry

     iteration #  8     ecut=    90.00 Ry     beta= 0.70
     Davidson diagonalization with overlap
     ethr =  1.17E-09,  avg # of iterations =  3.0

     total cpu time spent up to now is       25.0 secs

     End of self-consistent calculation

          k = 0.0000 0.0000 0.0000 ( 25805 PWs)   bands (ev):

   -20.8122 -20.1652 -20.1652 -19.8675 -19.8675 -19.8298 -19.8298 -19.8061
   -19.8028 -19.3781 -19.3781 -18.9356  -8.1506  -7.9219  -7.9219  -7.8422
    -7.6992  -7.6992  -7.5338  -7.1798  -7.1798  -6.9981  -6.9981  -6.8581
    -6.7653  -5.6443  -5.6443  -4.9398  -4.9398  -4.9212  -4.9212  -4.4870
    -4.3082  -3.5739  -3.5739  -2.8047  -2.4310  -2.4310  -2.2746  -2.2185
    -2.1485  -2.1485  -2.0094  -2.0094  -1.9550  -1.9296  -1.8972  -1.8972

          k =-0.1498-0.0865 0.3111 ( 25783 PWs)   bands (ev):

   -20.7115 -20.2211 -20.1505 -20.0667 -20.0261 -19.9263 -19.7387 -19.6795
   -19.5968 -19.3871 -19.3282 -19.0209  -8.0803  -8.0107  -7.9313  -7.8022
    -7.6873  -7.6539  -7.4592  -7.2129  -7.1555  -7.0352  -6.8762  -6.8355
    -6.5618  -5.8327  -5.6321  -5.3867  -5.0717  -4.7560  -4.6951  -4.3569
    -4.3282  -3.5602  -3.4842  -2.9840  -2.5827  -2.4989  -2.3200  -2.2972
    -2.2087  -2.1374  -2.1034  -2.0369  -1.9741  -1.9187  -1.8841  -1.8225

          k = 0.2996 0.1730-0.6221 ( 25786 PWs)   bands (ev):

   -20.4651 -20.4267 -20.1985 -20.1686 -20.0333 -20.0109 -19.6714 -19.6455
   -19.4194 -19.3776 -19.2358 -19.2157  -8.0481  -7.9893  -7.8943  -7.8502
    -7.7053  -7.6597  -7.3513  -7.2034  -7.1350  -7.0823  -6.7529  -6.7462
    -6.2413  -6.1163  -5.6668  -5.6362  -5.0546  -4.9779  -4.5716  -4.4084
    -3.7869  -3.7844  -3.4217  -3.2158  -2.7168  -2.5444  -2.3838  -2.3460
    -2.2624  -2.1887  -2.1189  -2.0785  -2.0234  -1.8994  -1.8404  -1.7716

          k =-0.1498 0.0865 0.6221 ( 25784 PWs)   bands (ev):

   -20.5075 -20.3133 -20.2890 -20.1236 -20.0899 -20.0015 -19.6735 -19.5577
   -19.5015 -19.3329 -19.3046 -19.1736  -8.0587  -7.9674  -7.9386  -7.8094
    -7.7236  -7.6165  -7.3693  -7.2692  -7.1890  -6.9061  -6.8222  -6.7499
    -6.2467  -6.0309  -5.9043  -5.3854  -5.1818  -5.0050  -4.5056  -4.2811
    -4.0907  -3.5523  -3.4621  -3.2455  -2.6939  -2.5915  -2.3787  -2.2772
    -2.2508  -2.2066  -2.1541  -2.0576  -2.0345  -1.9058  -1.8506  -1.7601

          k = 0.2996 0.3460-0.3111 ( 25776 PWs)   bands (ev):

   -20.5786 -20.3513 -20.2329 -20.1500 -20.0465 -19.9599 -19.6736 -19.5446
   -19.4763 -19.4052 -19.2884 -19.1444  -8.0709  -8.0258  -7.8609  -7.8449
    -7.7657  -7.6606  -7.4356  -7.3430  -7.1955  -6.8687  -6.8360  -6.7104
    -6.4201  -6.0349  -5.7613  -5.4500  -5.3550  -4.7441  -4.4522  -4.2121
    -3.9724  -3.6938  -3.4660  -3.1847  -2.5623  -2.4968  -2.3798  -2.3088
    -2.2228  -2.1560  -2.1095  -2.0845  -1.9939  -1.9558  -1.8496  -1.7387

          k = 0.1498 0.2595 0.0000 ( 25785 PWs)   bands (ev):

   -20.7392 -20.2769 -20.1958 -20.0171 -19.9807 -19.8689 -19.7559 -19.6575
   -19.5994 -19.3950 -19.3451 -19.0050  -8.1259  -8.0126  -7.9239  -7.7974
    -7.6839  -7.6748  -7.5930  -7.3017  -7.1326  -6.9966  -6.8871  -6.7543
    -6.7361  -5.7600  -5.6257  -5.3867  -5.2841  -4.6483  -4.4705  -4.3671
    -4.1653  -3.6484  -3.5645  -2.8923  -2.4364  -2.4042  -2.3471  -2.2673
    -2.2072  -2.1708  -2.0387  -2.0112  -1.9720  -1.9715  -1.8371  -1.8202

          k = 0.2996-0.1730-1.2442 ( 25742 PWs)   bands (ev):

   -20.5655 -20.5060 -20.2203 -20.0827 -19.9812 -19.8963 -19.6747 -19.6313
   -19.4640 -19.4489 -19.1918 -19.1723  -8.1028  -8.0491  -7.8938  -7.8263
    -7.7214  -7.6871  -7.5365  -7.4164  -7.1346  -7.0170  -6.7922  -6.7165
    -6.2865  -6.2792  -5.7383  -5.5240  -5.1414  -4.7727  -4.2877  -4.0695
    -3.9604  -3.9136  -3.3680  -3.1715  -2.4627  -2.3845  -2.3521  -2.3235
    -2.2169  -2.1219  -2.1117  -2.0421  -2.0179  -1.9694  -1.7877  -1.7725

          k = 0.0000 0.0000 0.9332 ( 25787 PWs)   bands (ev):

   -20.4282 -20.4282 -20.3306 -20.2345 -19.9927 -19.9927 -19.5620 -19.5620
   -19.3878 -19.3354 -19.2989 -19.2989  -8.0248  -8.0248  -7.8743  -7.8208
    -7.7628  -7.7628  -7.4257  -7.3097  -7.3097  -6.7443  -6.7443  -6.6719
    -6.2036  -6.2036  -6.1109  -5.5027  -5.0524  -5.0524  -4.2127  -4.0297
    -4.0297  -3.5554  -3.5554  -3.4441  -2.4987  -2.4987  -2.3430  -2.2760
    -2.1870  -2.1870  -2.0951  -2.0849  -2.0849  -1.9239  -1.9239  -1.7094

          k = 0.4494 0.2595 0.0000 ( 25763 PWs)   bands (ev):

   -20.6037 -20.3741 -20.3577 -20.0845 -19.9028 -19.8830 -19.7051 -19.6856
   -19.4663 -19.3461 -19.2974 -19.1289  -8.0884  -8.0401  -7.9586  -7.7639
    -7.7385  -7.6957  -7.5325  -7.3716  -7.2447  -6.8933  -6.8044  -6.7591
    -6.4398  -5.9790  -5.9292  -5.4929  -5.1176  -4.7683  -4.2623  -4.2396
    -3.9594  -3.6716  -3.5272  -3.1309  -2.4335  -2.4207  -2.3389  -2.3233
    -2.2296  -2.1556  -2.0775  -2.0528  -1.9898  -1.9298  -1.8617  -1.7469

          k = 0.2996 0.1730 0.3111 ( 25775 PWs)   bands (ev):

   -20.6427 -20.2857 -20.1723 -20.1493 -20.0295 -19.9464 -19.6927 -19.6422
   -19.5493 -19.3721 -19.2938 -19.0756  -8.0932  -8.0266  -7.9339  -7.7775
    -7.7413  -7.5777  -7.4914  -7.3008  -7.0969  -7.0215  -6.9266  -6.7852
    -6.4389  -5.8154  -5.6110  -5.5138  -5.3461  -4.8079  -4.4936  -4.2553
    -4.1338  -3.6053  -3.4881  -3.0204  -2.5905  -2.5190  -2.4054  -2.3603
    -2.2194  -2.1959  -2.0705  -2.0555  -1.9639  -1.8983  -1.8314  -1.7912

          k = 0.4494-0.2595-0.9332 ( 25793 PWs)   bands (ev):

   -20.4675 -20.4510 -20.2688 -20.1765 -20.0140 -19.9057 -19.7459 -19.6158
   -19.4276 -19.3434 -19.2763 -19.1573  -8.1250  -7.9980  -7.9500  -7.7722
    -7.7303  -7.6185  -7.4886  -7.2812  -7.1322  -7.0731  -6.8470  -6.7836
    -6.1039  -6.0912  -5.7235  -5.5693  -5.3074  -4.8842  -4.4770  -4.1542
    -3.8173  -3.6592  -3.5374  -3.1173  -2.5795  -2.5371  -2.4932  -2.3561
    -2.3146  -2.2179  -2.0339  -1.9949  -1.9744  -1.9213  -1.8275  -1.7386

          k = 0.2996-0.3460-0.6221 ( 25810 PWs)   bands (ev):

   -20.4148 -20.3735 -20.2435 -20.2316 -20.0570 -20.0458 -19.6387 -19.6254
   -19.4073 -19.3947 -19.2409 -19.1933  -8.1388  -7.9138  -7.8658  -7.8382
    -7.7921  -7.5717  -7.3790  -7.3108  -7.0646  -7.0396  -6.8151  -6.8083
    -6.0554  -5.9516  -5.7307  -5.6550  -5.2545  -5.1967  -4.3342  -4.2454
    -3.8374  -3.7890  -3.4698  -3.1355  -2.7447  -2.5677  -2.4920  -2.4032
    -2.3181  -2.1962  -2.0680  -2.0469  -2.0166  -1.8733  -1.8388  -1.7206

          k = 0.0000 0.0000-1.8663 ( 25878 PWs)   bands (ev):

   -20.3503 -20.2993 -20.2383 -20.2383 -20.1680 -20.1680 -19.5152 -19.5152
   -19.4885 -19.4885 -19.2284 -19.1665  -8.1986  -7.8422  -7.8422  -7.8188
    -7.8188  -7.6267  -7.3812  -7.3392  -6.9453  -6.9453  -6.9416  -6.9416
    -5.7934  -5.7802  -5.6299  -5.6299  -5.5464  -5.5464  -4.0587  -4.0587
    -3.9321  -3.9321  -3.4471  -3.0788  -2.7624  -2.5740  -2.5740  -2.4609
    -2.4609  -2.1441  -2.0622  -1.9694  -1.9694  -1.8780  -1.8780  -1.6753

          k = 0.2996-0.3460 0.3111 ( 25776 PWs)   bands (ev):

   -20.5778 -20.3597 -20.2042 -20.1726 -20.0441 -19.9623 -19.6677 -19.5292
   -19.5164 -19.3754 -19.2976 -19.1448  -8.0808  -7.9978  -7.9033  -7.8103
    -7.7572  -7.6696  -7.4994  -7.2902  -7.1713  -6.9335  -6.7908  -6.7305
    -6.3970  -5.9770  -5.8707  -5.4433  -5.2525  -4.8197  -4.5529  -4.0875
    -3.8952  -3.7084  -3.5888  -3.1351  -2.5781  -2.4519  -2.3982  -2.3027
    -2.2568  -2.1465  -2.1070  -2.0779  -2.0274  -1.9152  -1.8514  -1.7477

     highest occupied level (ev):    -1.6753

!    total energy              =    -417.94456423 Ry
     estimated scf accuracy    <          6.7E-09 Ry

     The total energy is the sum of the following terms:
     one-electron contribution =    -268.41569325 Ry
     hartree contribution      =     172.04814141 Ry
     xc contribution           =    -106.27045121 Ry
     ewald contribution        =    -215.30656118 Ry

     convergence has been achieved in   8 iterations

     Forces acting on atoms (cartesian axes, Ry/au):

     atom    1 type  2   force =    -0.01574155    0.03291185    0.03133019
     atom    2 type  2   force =     0.01574155   -0.03291185   -0.03133019
     atom    3 type  2   force =    -0.02063172   -0.03008851    0.03133019
     atom    4 type  2   force =     0.02063172    0.03008851   -0.03133019
     atom    5 type  2   force =     0.03637327   -0.00282334    0.03133019
     atom    6 type  2   force =    -0.03637327    0.00282334   -0.03133019
     atom    7 type  2   force =    -0.03133927    0.01158551   -0.01642491
     atom    8 type  2   force =     0.03133927   -0.01158551    0.01642491
     atom    9 type  2   force =     0.00563629   -0.03293336   -0.01642491
     atom   10 type  2   force =    -0.00563629    0.03293336    0.01642491
     atom   11 type  2   force =     0.02570298    0.02134785   -0.01642491
     atom   12 type  2   force =    -0.02570298   -0.02134785    0.01642491
     atom   13 type  1   force =    -0.00628483   -0.00504324   -0.04708541
     atom   14 type  1   force =     0.00628483    0.00504324    0.04708541
     atom   15 type  1   force =     0.00750999   -0.00292120   -0.04708541
     atom   16 type  1   force =    -0.00750999    0.00292120    0.04708541
     atom   17 type  1   force =    -0.00122516    0.00796444   -0.04708541
     atom   18 type  1   force =     0.00122516   -0.00796444    0.04708541
     atom   19 type  1   force =     0.02711104   -0.03483156    0.00407166
     atom   20 type  1   force =    -0.02711104    0.03483156   -0.00407166
     atom   21 type  1   force =     0.01660950    0.04089463    0.00407166
     atom   22 type  1   force =    -0.01660950   -0.04089463   -0.00407166
     atom   23 type  1   force =    -0.04372054   -0.00606307    0.00407166
     atom   24 type  1   force =     0.04372054    0.00606307   -0.00407166
     atom   25 type  1   force =    -0.01387099   -0.00022348    0.01521605
     atom   26 type  1   force =     0.01387099    0.00022348   -0.01521605
     atom   27 type  1   force =     0.00712903   -0.01190089    0.01521605
     atom   28 type  1   force =    -0.00712903    0.01190089   -0.01521605
     atom   29 type  1   force =     0.00674196    0.01212437    0.01521605
     atom   30 type  1   force =    -0.00674196   -0.01212437   -0.01521605
     atom   31 type  1   force =    -0.01362179   -0.02246173    0.00416210
     atom   32 type  1   force =     0.01362179    0.02246173   -0.00416210
     atom   33 type  1   force =     0.02626332   -0.00056596    0.00416210
     atom   34 type  1   force =    -0.02626332    0.00056596   -0.00416210
     atom   35 type  1   force =    -0.01264153    0.02302768    0.00416210
     atom   36 type  1   force =     0.01264153   -0.02302768   -0.00416210

     Total force =     0.233370     Total SCF correction =     0.000121


     Computing stress (Cartesian axis) and pressure

          total   stress  (Ry/bohr**3)                   (kbar)     P=       41.76
   0.00025155   0.00000000  -0.00000000           37.00        0.00       -0.00
  -0.00000000   0.00025155   0.00000000           -0.00       37.00        0.00
  -0.00000000   0.00000000   0.00034850           -0.00        0.00       51.27

     Energy error            =      8.6E-02 Ry
     Gradient error          =      4.7E-02 Ry/Bohr

     number of scf cycles    =   2
     number of bfgs steps    =   1

     energy             old  =    -417.8582321841 Ry
     energy             new  =    -417.9445642307 Ry

     CASE: energy            _new < energy            _old

     new trust radius        =       0.1042001557 bohr
     new conv_thr            =       0.0000000471 Ry


ATOMIC_POSITIONS (crystal)
O                0.2722769511        0.0274345630        0.8558434713
O                0.7277230489        0.9725654480        0.1441564987
O                0.8558434713        0.2722769511        0.0274345630
O                0.1441564987        0.7277230489        0.9725654480
O                0.0274345630        0.8558434713        0.2722769511
O                0.9725654480        0.1441564987        0.7277230489
O                0.4775420536        0.7495385079        0.3317592206
O                0.5224579464        0.2504614921        0.6682407494
O                0.3317592206        0.4775420536        0.7495385079
O                0.6682407494        0.5224579464        0.2504614921
O                0.7495385079        0.3317592206        0.4775420536
O                0.2504614921        0.6682407494        0.5224579464
H                0.1463583612        0.0550272350        0.7950710664
H                0.8536416248        0.9449727570        0.2049289336
H                0.7950710664        0.1463583612        0.0550272350
H                0.2049289336        0.8536416248        0.9449727570
H                0.0550272350        0.7950710664        0.1463583612
H                0.9449727570        0.2049289336        0.8536416248
H                0.4303576277        0.2114521011        1.0069612383
H                0.5696423723        0.7885479139       -0.0069612593
H                1.0069612383        0.4303576277        0.2114521011
H               -0.0069612593        0.5696423723        0.7885479139
H                0.2114521011        1.0069612383        0.4303576277
H                0.7885479139       -0.0069612593        0.5696423723
H                0.7191871317        0.4089281551        0.3961520993
H                0.2808128683        0.5910718149        0.6038479307
H                0.3961520993        0.7191871317        0.4089281551
H                0.6038479307        0.2808128683        0.5910718149
H                0.4089281551        0.3961520993        0.7191871317
H                0.5910718149        0.6038479307        0.2808128683
H                0.7417142023        0.1956649390        0.3600653621
H                0.2582857977        0.8043350460        0.6399346379
H                0.3600653621        0.7417142023        0.1956649390
H                0.6399346379        0.2582857977        0.8043350460
H                0.1956649390        0.3600653621        0.7417142023
H                0.8043350460        0.6399346379        0.2582857977



     Writing config-only to output data dir ./iceII/iceII.save/ :
     XML data file
     NEW-OLD atomic charge density approx. for the potential

     total cpu time spent up to now is       26.2 secs

     per-process dynamical memory:    18.2 Mb

     Self-consistent Calculation

     iteration #  1     ecut=    90.00 Ry     beta= 0.70
     Davidson diagonalization with overlap
     ethr =  1.00E-06,  avg # of iterations =  8.0

     total cpu time spent up to now is       28.0 secs

     total energy              =    -418.00303925 Ry
     estimated scf accuracy    <       0.00393432 Ry

     iteration #  2     ecut=    90.00 Ry     beta= 0.70
     Davidson diagonalization with overlap
     ethr =  4.10E-06,  avg # of iterations =  2.0

     total cpu time spent up to now is       28.9 secs

     total energy              =    -418.00364808 Ry
     estimated scf accuracy    <       0.00027305 Ry

     iteration #  3     ecut=    90.00 Ry     beta= 0.70
     Davidson diagonalization with overlap
     ethr =  2.84E-07,  avg # of iterations =  2.0

     total cpu time spent up to now is       29.8 secs

     total energy              =    -418.00369357 Ry
     estimated scf accuracy    <       0.00002649 Ry

     iteration #  4     ecut=    90.00 Ry     beta= 0.70
     Davidson diagonalization with overlap
     ethr =  2.76E-08,  avg # of iterations =  2.0

     total cpu time spent up to now is       30.7 secs

     total energy              =    -418.00369876 Ry
     estimated scf accuracy    <       0.00000205 Ry

     iteration #  5     ecut=    90.00 Ry     beta= 0.70
     Davidson diagonalization with overlap
     ethr =  2.14E-09,  avg # of iterations =  2.2

     total cpu time spent up to now is       31.6 secs

     total energy              =    -418.00369924 Ry
     estimated scf accuracy    <       0.00000010 Ry

     iteration #  6     ecut=    90.00 Ry     beta= 0.70
     Davidson diagonalization with overlap
     ethr =  1.01E-10,  avg # of iterations =  3.1

     total cpu time spent up to now is       32.6 secs

     End of self-consistent calculation

          k = 0.0000 0.0000 0.0000 ( 25805 PWs)   bands (ev):

   -20.7176 -20.0703 -20.0703 -19.7565 -19.7565 -19.7253 -19.7253 -19.7024
   -19.6968 -19.2650 -19.2650 -18.8254  -8.2122  -8.0402  -8.0402  -7.9298
    -7.8053  -7.8053  -7.5278  -7.3695  -7.3695  -7.3129  -7.3129  -7.1235
    -6.9093  -5.4744  -5.4744  -4.7969  -4.7969  -4.6693  -4.6693  -4.2830
    -4.2025  -3.4124  -3.4124  -2.6320  -2.3969  -2.3969  -2.2839  -2.1638
    -2.1502  -2.1502  -2.0097  -2.0097  -1.9425  -1.8668  -1.8447  -1.8447

          k =-0.1498-0.0865 0.3111 ( 25783 PWs)   bands (ev):

   -20.6163 -20.1219 -20.0586 -19.9573 -19.9214 -19.8253 -19.6323 -19.5680
   -19.4883 -19.2762 -19.2168 -18.9099  -8.1497  -8.0851  -8.0304  -7.9143
    -7.7971  -7.7509  -7.5465  -7.4453  -7.3405  -7.2887  -7.2043  -7.1404
    -6.6053  -5.6868  -5.4917  -5.1889  -4.9468  -4.5689  -4.4719  -4.1997
    -4.0991  -3.4045  -3.3102  -2.8180  -2.5289  -2.4581  -2.3080  -2.2704
    -2.2086  -2.1327  -2.0490  -2.0129  -1.9393  -1.9078  -1.8521  -1.8039

          k = 0.2996 0.1730-0.6221 ( 25786 PWs)   bands (ev):

   -20.3759 -20.3204 -20.1060 -20.0533 -19.9404 -19.9067 -19.5675 -19.5272
   -19.3209 -19.2611 -19.1323 -19.0971  -8.0988  -8.0754  -7.9953  -7.9349
    -7.8178  -7.7548  -7.5172  -7.4457  -7.3457  -7.3273  -7.0813  -7.0607
    -6.1435  -6.0116  -5.5339  -5.5172  -4.9240  -4.8486  -4.2934  -4.1575
    -3.6251  -3.5869  -3.2502  -3.0847  -2.6200  -2.5044  -2.3739  -2.3070
    -2.2360  -2.1637  -2.0943  -2.0486  -2.0096  -1.8871  -1.8131  -1.7640

          k =-0.1498 0.0865 0.6221 ( 25784 PWs)   bands (ev):

   -20.4126 -20.2132 -20.1875 -20.0234 -19.9856 -19.9007 -19.5640 -19.4494
   -19.3921 -19.2254 -19.1945 -19.0602  -8.1027  -8.0570  -8.0275  -7.9278
    -7.8154  -7.7202  -7.5018  -7.4919  -7.4313  -7.1777  -7.1319  -7.0726
    -6.1614  -5.8911  -5.8007  -5.2572  -5.0428  -4.8666  -4.2535  -4.0279
    -3.8866  -3.3980  -3.2978  -3.0988  -2.6106  -2.5399  -2.3645  -2.2490
    -2.2166  -2.1849  -2.1282  -2.0266  -2.0217  -1.8939  -1.8270  -1.7492

          k = 0.2996 0.3460-0.3111 ( 25776 PWs)   bands (ev):

   -20.4828 -20.2547 -20.1409 -20.0428 -19.9353 -19.8559 -19.5698 -19.4446
   -19.3520 -19.3059 -19.1742 -19.0320  -8.1144  -8.0927  -7.9785  -7.9293
    -7.8531  -7.7593  -7.6310  -7.5730  -7.4527  -7.1642  -7.1225  -7.0390
    -6.3004  -5.8687  -5.5705  -5.3297  -5.2365  -4.6072  -4.1634  -4.0247
    -3.8270  -3.5150  -3.2781  -3.0200  -2.5039  -2.4664  -2.3616  -2.2978
    -2.2041  -2.1172  -2.0936  -2.0657  -1.9770  -1.9361  -1.8168  -1.7151

          k = 0.1498 0.2595 0.0000 ( 25785 PWs)   bands (ev):

   -20.6443 -20.1830 -20.1012 -19.9096 -19.8701 -19.7582 -19.6543 -19.5559
   -19.4918 -19.2822 -19.2301 -18.8942  -8.1820  -8.0753  -8.0264  -7.8952
    -7.8017  -7.7957  -7.7185  -7.5080  -7.3964  -7.2668  -7.1725  -7.0949
    -6.6736  -5.5610  -5.4636  -5.2172  -5.1350  -4.4740  -4.2666  -4.1487
    -4.0365  -3.4656  -3.4069  -2.6981  -2.4063  -2.3745  -2.3549  -2.2665
    -2.1914  -2.1492  -2.0285  -1.9829  -1.9780  -1.9148  -1.8004  -1.7745

          k = 0.2996-0.1730-1.2442 ( 25742 PWs)   bands (ev):

   -20.4677 -20.4135 -20.1264 -19.9739 -19.8758 -19.7818 -19.5766 -19.5275
   -19.3598 -19.3312 -19.0834 -19.0557  -8.1474  -8.0857  -7.9778  -7.9048
    -7.8641  -7.8297  -7.7197  -7.6201  -7.4285  -7.2678  -7.1182  -7.0483
    -6.1139  -6.1054  -5.5368  -5.4198  -4.9870  -4.6076  -4.0716  -3.9369
    -3.7769  -3.7064  -3.1995  -2.9830  -2.4440  -2.3676  -2.3240  -2.3192
    -2.2216  -2.0896  -2.0770  -2.0181  -2.0150  -1.9357  -1.7464  -1.7408

          k = 0.0000 0.0000 0.9332 ( 25787 PWs)   bands (ev):

   -20.3292 -20.3292 -20.2512 -20.1171 -19.8862 -19.8862 -19.4582 -19.4582
   -19.2913 -19.2069 -19.1887 -19.1887  -8.0816  -8.0816  -7.9837  -7.9373
    -7.8518  -7.8518  -7.6197  -7.5484  -7.5484  -7.0625  -7.0625  -7.0094
    -6.0335  -6.0335  -5.8631  -5.4276  -4.9335  -4.9335  -3.9271  -3.8311
    -3.8311  -3.3741  -3.3741  -3.3060  -2.4570  -2.4570  -2.3253  -2.2715
    -2.1636  -2.1636  -2.0727  -2.0727  -2.0674  -1.8918  -1.8918  -1.6821

          k = 0.4494 0.2595 0.0000 ( 25763 PWs)   bands (ev):

   -20.5079 -20.2765 -20.2661 -19.9724 -19.8027 -19.7694 -19.6047 -19.5770
   -19.3640 -19.2347 -19.1815 -19.0163  -8.1341  -8.0821  -8.0182  -7.8974
    -7.8611  -7.8167  -7.7099  -7.5891  -7.5132  -7.1909  -7.1054  -7.0873
    -6.2869  -5.7732  -5.7388  -5.4025  -4.9540  -4.5952  -4.0906  -4.0677
    -3.7556  -3.4808  -3.3630  -2.9436  -2.4177  -2.3896  -2.3274  -2.3222
    -2.2119  -2.1350  -2.0655  -2.0380  -1.9592  -1.8972  -1.8259  -1.7086

          k = 0.2996 0.1730 0.3111 ( 25775 PWs)   bands (ev):

   -20.5473 -20.1900 -20.0814 -20.0390 -19.9193 -19.8443 -19.5851 -19.5407
   -19.4325 -19.2680 -19.1798 -18.9634  -8.1331  -8.0839  -8.0260  -7.8833
    -7.8397  -7.7026  -7.6677  -7.4572  -7.3754  -7.3236  -7.1986  -7.0970
    -6.4011  -5.6756  -5.5121  -5.2648  -5.2071  -4.5995  -4.2922  -4.0902
    -3.9725  -3.4332  -3.3163  -2.8380  -2.5325  -2.4857  -2.3872  -2.3259
    -2.2135  -2.1759  -2.0535  -2.0264  -1.9396  -1.8826  -1.8041  -1.7686

          k = 0.4494-0.2595-0.9332 ( 25793 PWs)   bands (ev):

   -20.3698 -20.3579 -20.1733 -20.0667 -19.9074 -19.8051 -19.6361 -19.5097
   -19.3156 -19.2404 -19.1675 -19.0394  -8.1229  -8.0651  -8.0096  -7.8898
    -7.8471  -7.7687  -7.6404  -7.5263  -7.4024  -7.3503  -7.1521  -7.0945
    -6.0122  -5.9200  -5.5496  -5.4769  -5.1083  -4.6324  -4.3352  -4.0181
    -3.6430  -3.4763  -3.3710  -2.9187  -2.5240  -2.4983  -2.4537  -2.3337
    -2.2893  -2.2162  -2.0149  -1.9808  -1.9583  -1.8970  -1.8027  -1.7138

          k = 0.2996-0.3460-0.6221 ( 25810 PWs)   bands (ev):

   -20.3270 -20.2664 -20.1488 -20.1237 -19.9561 -19.9408 -19.5342 -19.5135
   -19.3007 -19.2823 -19.1429 -19.0701  -8.1372  -8.0161  -7.9642  -7.9211
    -7.8783  -7.6866  -7.5721  -7.5338  -7.3171  -7.3033  -7.1369  -7.1228
    -5.9365  -5.8711  -5.6056  -5.5297  -5.0559  -4.9968  -4.1260  -4.0380
    -3.6775  -3.6299  -3.3044  -2.9867  -2.6278  -2.5258  -2.4586  -2.3694
    -2.2786  -2.1663  -2.0650  -2.0323  -1.9990  -1.8641  -1.8260  -1.6978

          k = 0.0000 0.0000-1.8663 ( 25878 PWs)   bands (ev):

   -20.2649 -20.1808 -20.1504 -20.1504 -20.0551 -20.0551 -19.4179 -19.4179
   -19.3689 -19.3689 -19.1326 -19.0417  -8.1649  -7.9249  -7.9249  -7.9152
    -7.9152  -7.7473  -7.6228  -7.5226  -7.2430  -7.2430  -7.2419  -7.2419
    -5.8209  -5.6829  -5.4370  -5.4370  -5.3182  -5.3182  -3.8606  -3.8606
    -3.7967  -3.7967  -3.2967  -2.9225  -2.5987  -2.5324  -2.5324  -2.4330
    -2.4330  -2.1105  -2.0665  -1.9514  -1.9514  -1.8759  -1.8759  -1.6468

          k = 0.2996-0.3460 0.3111 ( 25776 PWs)   bands (ev):

   -20.4818 -20.2658 -20.1092 -20.0654 -19.9336 -19.8591 -19.5613 -19.4319
   -19.4015 -19.2618 -19.1877 -19.0319  -8.1239  -8.0752  -7.9855  -7.8950
    -7.8720  -7.7811  -7.6795  -7.5175  -7.4426  -7.1722  -7.1204  -7.0490
    -6.2983  -5.8356  -5.6508  -5.2993  -5.1588  -4.6830  -4.2858  -3.8854
    -3.7139  -3.5480  -3.4153  -2.9601  -2.5171  -2.4289  -2.3718  -2.2980
    -2.2190  -2.1296  -2.0925  -2.0588  -2.0055  -1.8923  -1.8214  -1.7227

     highest occupied level (ev):    -1.6468

!    total energy              =    -418.00369927 Ry
     estimated scf accuracy    <       0.00000001 Ry

     The total energy is the sum of the following terms:
     one-electron contribution =    -267.10959102 Ry
     hartree contribution      =     171.48205592 Ry
     xc contribution           =    -106.23944531 Ry
     ewald contribution        =    -216.13671886 Ry

     convergence has been achieved in   6 iterations

     Forces acting on atoms (cartesian axes, Ry/au):

     atom    1 type  2   force =    -0.00725648    0.01585907    0.01262284
     atom    2 type  2   force =     0.00725648   -0.01585907   -0.01262284
     atom    3 type  2   force =    -0.01010612   -0.01421383    0.01262284
     atom    4 type  2   force =     0.01010612    0.01421383   -0.01262284
     atom    5 type  2   force =     0.01736260   -0.00164524    0.01262284
     atom    6 type  2   force =    -0.01736260    0.00164524   -0.01262284
     atom    7 type  2   force =    -0.01634283    0.01262842   -0.01752416
     atom    8 type  2   force =     0.01634283   -0.01262842    0.01752416
     atom    9 type  2   force =    -0.00276512   -0.02046752   -0.01752416
     atom   10 type  2   force =     0.00276512    0.02046752    0.01752416
     atom   11 type  2   force =     0.01910795    0.00783910   -0.01752416
     atom   12 type  2   force =    -0.01910795   -0.00783910    0.01752416
     atom   13 type  1   force =    -0.00188879   -0.00996699   -0.01532829
     atom   14 type  1   force =     0.00188879    0.00996699    0.01532829
     atom   15 type  1   force =     0.00957606    0.00334776   -0.01532829
     atom   16 type  1   force =    -0.00957606   -0.00334776    0.01532829
     atom   17 type  1   force =    -0.00768727    0.00661923   -0.01532829
     atom   18 type  1   force =     0.00768727   -0.00661923    0.01532829
     atom   19 type  1   force =     0.01514894   -0.01035701   -0.00637433
     atom   20 type  1   force =    -0.01514894    0.01035701    0.00637433
     atom   21 type  1   force =     0.00139497    0.01829787   -0.00637433
     atom   22 type  1   force =    -0.00139497   -0.01829787    0.00637433
     atom   23 type  1   force =    -0.01654391   -0.00794086   -0.00637433
     atom   24 type  1   force =     0.01654391    0.00794086    0.00637433
     atom   25 type  1   force =    -0.00404717   -0.00598633    0.00969790
     atom   26 type  1   force =     0.00404717    0.00598633   -0.00969790
     atom   27 type  1   force =     0.00720790   -0.00051179    0.00969790
     atom   28 type  1   force =    -0.00720790    0.00051179   -0.00969790
     atom   29 type  1   force =    -0.00316073    0.00649812    0.00969790
     atom   30 type  1   force =     0.00316073   -0.00649812   -0.00969790
     atom   31 type  1   force =    -0.01376292   -0.00438784    0.00679615
     atom   32 type  1   force =     0.01376292    0.00438784   -0.00679615
     atom   33 type  1   force =     0.01068144   -0.00972512    0.00679615
     atom   34 type  1   force =    -0.01068144    0.00972512   -0.00679615
     atom   35 type  1   force =     0.00308148    0.01411296    0.00679615
     atom   36 type  1   force =    -0.00308148   -0.01411296   -0.00679615

     Total force =     0.117819     Total SCF correction =     0.000159


     Computing stress (Cartesian axis) and pressure

          total   stress  (Ry/bohr**3)                   (kbar)     P=       32.23
   0.00019602   0.00000000   0.00000000           28.84        0.00        0.00
  -0.00000000   0.00019602   0.00000000           -0.00       28.84        0.00
  -0.00000000   0.00000000   0.00026522           -0.00        0.00       39.02

     Energy error            =      5.9E-02 Ry
     Gradient error          =      2.0E-02 Ry/Bohr

     number of scf cycles    =   3
     number of bfgs steps    =   2

     energy             old  =    -417.9445642307 Ry
     energy             new  =    -418.0036992670 Ry

     CASE: energy            _new < energy            _old

     new trust radius        =       0.0580884882 bohr
     new conv_thr            =       0.0000000205 Ry


ATOMIC_POSITIONS (crystal)
O                0.2724712494        0.0302527705        0.8573238880
O                0.7275287506        0.9697472405        0.1426760820
O                0.8573238880        0.2724712494        0.0302527705
O                0.1426760820        0.7275287506        0.9697472405
O                0.0302527705        0.8573238880        0.2724712494
O                0.9697472405        0.1426760820        0.7275287506
O                0.4741333430        0.7481789729        0.3299843699
O                0.5258666570        0.2518210271        0.6700156001
O                0.3299843699        0.4741333430        0.7481789729
O                0.6700156001        0.5258666570        0.2518210271
O                0.7481789729        0.3299843699        0.4741333430
O                0.2518210271        0.6700156001        0.5258666570
H                0.1409573519        0.0497572422        0.7906970560
H                0.8590426341        0.9502427498        0.2093029440
H                0.7906970560        0.1409573519        0.0497572422
H                0.2093029440        0.8590426341        0.9502427498
H                0.0497572422        0.7906970560        0.1409573519
H                0.9502427498        0.2093029440        0.8590426341
H                0.4345428875        0.2116331728        1.0078656318
H                0.5654571125        0.7883668422       -0.0078656528
H                1.0078656318        0.4345428875        0.2116331728
H               -0.0078656528        0.5654571125        0.7883668422
H                0.2116331728        1.0078656318        0.4345428875
H                0.7883668422       -0.0078656528        0.5654571125
H                0.7203580373        0.4114202352        0.3978346294
H                0.2796419627        0.5885797348        0.6021654006
H                0.3978346294        0.7203580373        0.4114202352
H                0.6021654006        0.2796419627        0.5885797348
H                0.4114202352        0.3978346294        0.7203580373
H                0.5885797348        0.6021654006        0.2796419627
H                0.7420027927        0.1946560499        0.3617642450
H                0.2579972073        0.8053439351        0.6382357550
H                0.3617642450        0.7420027927        0.1946560499
H                0.6382357550        0.2579972073        0.8053439351
H                0.1946560499        0.3617642450        0.7420027927
H                0.8053439351        0.6382357550        0.2579972073



     Writing config-only to output data dir ./iceII/iceII.save/ :
     XML data file
     NEW-OLD atomic charge density approx. for the potential

     total cpu time spent up to now is       33.8 secs

     per-process dynamical memory:    34.7 Mb

     Self-consistent Calculation

     iteration #  1     ecut=    90.00 Ry     beta= 0.70
     Davidson diagonalization with overlap
     ethr =  1.00E-06,  avg # of iterations =  7.1

     total cpu time spent up to now is       35.5 secs

     total energy              =    -418.01592329 Ry
     estimated scf accuracy    <       0.00230566 Ry

     iteration #  2     ecut=    90.00 Ry     beta= 0.70
     Davidson diagonalization with overlap
     ethr =  2.40E-06,  avg # of iterations =  2.0

     total cpu time spent up to now is       36.4 secs

     total energy              =    -418.01636639 Ry
     estimated scf accuracy    <       0.00030670 Ry

     iteration #  3     ecut=    90.00 Ry     beta= 0.70
     Davidson diagonalization with overlap
     ethr =  3.19E-07,  avg # of iterations =  2.0

     total cpu time spent up to now is       37.3 secs

     total energy              =    -418.01643816 Ry
     estimated scf accuracy    <       0.00002165 Ry

     iteration #  4     ecut=    90.00 Ry     beta= 0.70
     Davidson diagonalization with overlap
     ethr =  2.26E-08,  avg # of iterations =  2.0

     total cpu time spent up to now is       38.1 secs

     total energy              =    -418.01644031 Ry
     estimated scf accuracy    <       0.00000213 Ry

     iteration #  5     ecut=    90.00 Ry     beta= 0.70
     Davidson diagonalization with overlap
     ethr =  2.22E-09,  avg # of iterations =  2.9

     total cpu time spent up to now is       39.0 secs

     total energy              =    -418.01644100 Ry
     estimated scf accuracy    <       0.00000035 Ry

     iteration #  6     ecut=    90.00 Ry     beta= 0.70
     Davidson diagonalization with overlap
     ethr =  3.62E-10,  avg # of iterations =  2.4

     total cpu time spent up to now is       39.9 secs

     End of self-consistent calculation

          k = 0.0000 0.0000 0.0000 ( 25805 PWs)   bands (ev):

   -20.7155 -20.0793 -20.0793 -19.7394 -19.7394 -19.7362 -19.7362 -19.6995
   -19.6964 -19.2539 -19.2539 -18.8328  -8.3678  -8.1689  -8.1689  -8.0824
    -7.9953  -7.9953  -7.6373  -7.5509  -7.5509  -7.5048  -7.5048  -7.3370
    -6.7858  -5.3479  -5.3479  -4.7092  -4.7092  -4.5046  -4.5046  -4.1492
    -4.1461  -3.3192  -3.3192  -2.5690  -2.4027  -2.4027  -2.2984  -2.1552
    -2.1552  -2.1404  -1.9998  -1.9998  -1.9743  -1.8301  -1.8301  -1.8182

          k =-0.1498-0.0865 0.3111 ( 25783 PWs)   bands (ev):

   -20.6163 -20.1308 -20.0813 -19.9391 -19.8975 -19.8175 -19.6411 -19.5750
   -19.4980 -19.2627 -19.2066 -18.9122  -8.3073  -8.2194  -8.1653  -8.0682
    -7.9844  -7.9253  -7.6829  -7.6183  -7.5282  -7.4442  -7.4100  -7.3455
    -6.5021  -5.5643  -5.3766  -5.0591  -4.8550  -4.4765  -4.3000  -4.1024
    -3.9600  -3.3213  -3.2207  -2.7440  -2.5165  -2.4582  -2.3234  -2.2603
    -2.2166  -2.1400  -2.0286  -1.9952  -1.9416  -1.8912  -1.8403  -1.8002

          k = 0.2996 0.1730-0.6221 ( 25786 PWs)   bands (ev):

   -20.3955 -20.3103 -20.1247 -20.0285 -19.9341 -19.8814 -19.5944 -19.5245
   -19.3453 -19.2420 -19.1443 -19.0691  -8.2390  -8.2284  -8.1369  -8.1000
    -7.9933  -7.9089  -7.6701  -7.6132  -7.5304  -7.5041  -7.2952  -7.2687
    -6.0114  -5.8991  -5.4362  -5.3941  -4.8210  -4.7552  -4.1233  -4.0099
    -3.5313  -3.4848  -3.1664  -3.0243  -2.5716  -2.5067  -2.3799  -2.3030
    -2.2453  -2.1348  -2.0919  -2.0624  -1.9923  -1.8884  -1.7941  -1.7688

          k =-0.1498 0.0865 0.6221 ( 25784 PWs)   bands (ev):

   -20.4227 -20.2207 -20.1881 -20.0171 -19.9623 -19.8866 -19.5767 -19.4705
   -19.3943 -19.2220 -19.1882 -19.0451  -8.2464  -8.1993  -8.1802  -8.0880
    -7.9868  -7.8882  -7.6634  -7.6401  -7.6005  -7.3765  -7.3370  -7.2835
    -6.0436  -5.7595  -5.6905  -5.1504  -4.9443  -4.7614  -4.1048  -3.8734
    -3.7664  -3.3170  -3.2275  -3.0213  -2.5754  -2.5293  -2.3757  -2.2571
    -2.2034  -2.1880  -2.1091  -2.0256  -2.0148  -1.8932  -1.8130  -1.7489

          k = 0.2996 0.3460-0.3111 ( 25776 PWs)   bands (ev):

   -20.4847 -20.2602 -20.1595 -20.0205 -19.9188 -19.8493 -19.5793 -19.4669
   -19.3348 -19.3155 -19.1597 -19.0270  -8.2603  -8.2424  -8.1196  -8.0823
    -8.0191  -7.9087  -7.7954  -7.7373  -7.6249  -7.3664  -7.3265  -7.2562
    -6.1661  -5.7325  -5.4509  -5.2310  -5.1250  -4.5046  -3.9987  -3.9098
    -3.7414  -3.4276  -3.1811  -2.9330  -2.4845  -2.4658  -2.3707  -2.2979
    -2.2024  -2.1191  -2.0812  -2.0633  -1.9792  -1.9322  -1.7959  -1.7088

          k = 0.1498 0.2595 0.0000 ( 25785 PWs)   bands (ev):

   -20.6427 -20.1895 -20.1088 -19.9099 -19.8591 -19.7478 -19.6599 -19.5559
   -19.4984 -19.2719 -19.2172 -18.8991  -8.3345  -8.2066  -8.1659  -8.0552
    -7.9795  -7.9720  -7.8387  -7.6797  -7.5779  -7.4503  -7.3763  -7.3102
    -6.5414  -5.4216  -5.3577  -5.0970  -5.0200  -4.3554  -4.1492  -4.0167
    -3.9580  -3.3636  -3.3154  -2.6129  -2.4103  -2.3839  -2.3665  -2.2701
    -2.1883  -2.1356  -2.0254  -2.0063  -1.9761  -1.8799  -1.7874  -1.7574

          k = 0.2996-0.1730-1.2442 ( 25742 PWs)   bands (ev):

   -20.4671 -20.4156 -20.1336 -19.9729 -19.8684 -19.7704 -19.5898 -19.5252
   -19.3669 -19.3151 -19.0854 -19.0481  -8.2871  -8.2330  -8.1364  -8.0647
    -7.9856  -7.9807  -7.8942  -7.7833  -7.6123  -7.4434  -7.3315  -7.2668
    -5.9789  -5.9710  -5.3966  -5.3371  -4.8728  -4.4888  -3.9532  -3.8677
    -3.6578  -3.5894  -3.1215  -2.8758  -2.4457  -2.3776  -2.3278  -2.3259
    -2.2177  -2.0824  -2.0751  -2.0261  -2.0072  -1.9221  -1.7368  -1.7223

          k = 0.0000 0.0000 0.9332 ( 25787 PWs)   bands (ev):

   -20.3303 -20.3303 -20.2807 -20.0753 -19.8832 -19.8832 -19.4607 -19.4607
   -19.3444 -19.1833 -19.1833 -19.1609  -8.2338  -8.2338  -8.1190  -8.1029
    -8.0008  -8.0008  -7.7980  -7.7100  -7.7100  -7.2780  -7.2780  -7.2272
    -5.8870  -5.8870  -5.6895  -5.3733  -4.8334  -4.8334  -3.7553  -3.7310
    -3.7310  -3.2789  -3.2789  -3.2157  -2.4509  -2.4509  -2.3224  -2.2956
    -2.1558  -2.1558  -2.0807  -2.0807  -2.0588  -1.8741  -1.8741  -1.6725

          k = 0.4494 0.2595 0.0000 ( 25763 PWs)   bands (ev):

   -20.5075 -20.2784 -20.2721 -19.9583 -19.8196 -19.7609 -19.6068 -19.5602
   -19.3808 -19.2299 -19.1693 -19.0148  -8.2810  -8.2188  -8.1751  -8.0326
    -8.0212  -7.9684  -7.8798  -7.7505  -7.6838  -7.3838  -7.3173  -7.3024
    -6.1511  -5.6292  -5.6007  -5.3289  -4.8362  -4.4746  -4.0043  -3.9561
    -3.6409  -3.3757  -3.2711  -2.8452  -2.4197  -2.3903  -2.3404  -2.3298
    -2.2081  -2.1255  -2.0767  -2.0330  -1.9477  -1.8897  -1.8171  -1.6891

          k = 0.2996 0.1730 0.3111 ( 25775 PWs)   bands (ev):

   -20.5481 -20.1980 -20.1018 -20.0226 -19.9033 -19.8279 -19.5979 -19.5571
   -19.4155 -19.2768 -19.1658 -18.9614  -8.2838  -8.2240  -8.1610  -8.0352
    -8.0157  -7.8707  -7.8199  -7.6101  -7.5506  -7.5161  -7.3925  -7.3087
    -6.2939  -5.5676  -5.4189  -5.1088  -5.0908  -4.4839  -4.1452  -3.9864
    -3.8749  -3.3491  -3.2299  -2.7497  -2.5168  -2.4834  -2.3910  -2.3114
    -2.2207  -2.1673  -2.0458  -2.0228  -1.9467  -1.8793  -1.8016  -1.7480

          k = 0.4494-0.2595-0.9332 ( 25793 PWs)   bands (ev):

   -20.3721 -20.3633 -20.1819 -20.0510 -19.9025 -19.7956 -19.6416 -19.5113
   -19.3036 -19.2625 -19.1658 -19.0230  -8.2588  -8.2148  -8.1562  -8.0393
    -7.9976  -7.9216  -7.8092  -7.6976  -7.5791  -7.5237  -7.3594  -7.3086
    -5.9271  -5.7789  -5.4463  -5.3679  -4.9657  -4.4834  -4.2283  -3.9249
    -3.5452  -3.3963  -3.2856  -2.8153  -2.5065  -2.4879  -2.4452  -2.3197
    -2.2792  -2.2227  -2.0214  -1.9794  -1.9686  -1.8969  -1.7977  -1.6932

          k = 0.2996-0.3460-0.6221 ( 25810 PWs)   bands (ev):

   -20.3490 -20.2585 -20.1631 -20.1067 -19.9430 -19.9184 -19.5560 -19.5181
   -19.3004 -19.2667 -19.1769 -19.0352  -8.2711  -8.1608  -8.1144  -8.0856
    -8.0428  -7.8342  -7.7330  -7.6874  -7.5069  -7.4884  -7.3462  -7.3313
    -5.8327  -5.7826  -5.4884  -5.4127  -4.9203  -4.8604  -3.9957  -3.9071
    -3.5806  -3.5396  -3.2515  -2.9088  -2.5681  -2.5186  -2.4536  -2.3565
    -2.2544  -2.1766  -2.0581  -2.0339  -2.0055  -1.8709  -1.8304  -1.6804

          k = 0.0000 0.0000-1.8663 ( 25878 PWs)   bands (ev):

   -20.2892 -20.1776 -20.1776 -20.1415 -20.0255 -20.0255 -19.4495 -19.4495
   -19.3347 -19.3347 -19.1795 -19.0050  -8.2864  -8.0821  -8.0821  -8.0774
    -8.0774  -7.8432  -7.7871  -7.6994  -7.4465  -7.4465  -7.4384  -7.4384
    -5.7973  -5.5888  -5.3111  -5.3111  -5.1472  -5.1472  -3.7337  -3.7337
    -3.7152  -3.7152  -3.2650  -2.8405  -2.5237  -2.5237  -2.5002  -2.4167
    -2.4167  -2.1329  -2.0567  -1.9591  -1.9591  -1.8842  -1.8842  -1.6260

          k = 0.2996-0.3460 0.3111 ( 25776 PWs)   bands (ev):

   -20.4832 -20.2760 -20.1280 -20.0370 -19.9204 -19.8539 -19.5607 -19.4679
   -19.3933 -19.2484 -19.1826 -19.0251  -8.2727  -8.2194  -8.1325  -8.0664
    -8.0128  -7.9359  -7.8331  -7.6931  -7.6172  -7.3603  -7.3331  -7.2637
    -6.1680  -5.7223  -5.4987  -5.1850  -5.0771  -4.5787  -4.1303  -3.7669
    -3.6142  -3.4580  -3.3275  -2.8732  -2.4962  -2.4299  -2.3760  -2.3014
    -2.2129  -2.1283  -2.0793  -2.0584  -2.0168  -1.8852  -1.8022  -1.7150

     highest occupied level (ev):    -1.6260

!    total energy              =    -418.01644108 Ry
     estimated scf accuracy    <          5.9E-09 Ry

     The total energy is the sum of the following terms:
     one-electron contribution =    -267.29662371 Ry
     hartree contribution      =     171.57355497 Ry
     xc contribution           =    -106.30723186 Ry
     ewald contribution        =    -215.98614048 Ry

     convergence has been achieved in   6 iterations

     Forces acting on atoms (cartesian axes, Ry/au):

     atom    1 type  2   force =    -0.00005982    0.00086366    0.00446874
     atom    2 type  2   force =     0.00005982   -0.00086366   -0.00446874
     atom    3 type  2   force =    -0.00071804   -0.00048364    0.00446874
     atom    4 type  2   force =     0.00071804    0.00048364   -0.00446874
     atom    5 type  2   force =     0.00077786   -0.00038002    0.00446874
     atom    6 type  2   force =    -0.00077786    0.00038002   -0.00446874
     atom    7 type  2   force =    -0.00596513   -0.00699445   -0.00432131
     atom    8 type  2   force =     0.00596513    0.00699445    0.00432131
     atom    9 type  2   force =     0.00903994   -0.00166873   -0.00432131
     atom   10 type  2   force =    -0.00903994    0.00166873    0.00432131
     atom   11 type  2   force =    -0.00307480    0.00866318   -0.00432131
     atom   12 type  2   force =     0.00307480   -0.00866318    0.00432131
     atom   13 type  1   force =    -0.00207512   -0.00596964    0.00002128
     atom   14 type  1   force =     0.00207512    0.00596964   -0.00002128
     atom   15 type  1   force =     0.00620742    0.00118772    0.00002128
     atom   16 type  1   force =    -0.00620742   -0.00118772   -0.00002128
     atom   17 type  1   force =    -0.00413230    0.00478193    0.00002128
     atom   18 type  1   force =     0.00413230   -0.00478193   -0.00002128
     atom   19 type  1   force =     0.00803658    0.00285309   -0.01022367
     atom   20 type  1   force =    -0.00803658   -0.00285309    0.01022367
     atom   21 type  1   force =    -0.00648913    0.00553334   -0.01022367
     atom   22 type  1   force =     0.00648913   -0.00553334    0.01022367
     atom   23 type  1   force =    -0.00154744   -0.00838642   -0.01022367
     atom   24 type  1   force =     0.00154744    0.00838642    0.01022367
     atom   25 type  1   force =     0.00382415   -0.00665297    0.00478085
     atom   26 type  1   force =    -0.00382415    0.00665297   -0.00478085
     atom   27 type  1   force =     0.00384957    0.00663830    0.00478085
     atom   28 type  1   force =    -0.00384957   -0.00663830   -0.00478085
     atom   29 type  1   force =    -0.00767372    0.00001467    0.00478085
     atom   30 type  1   force =     0.00767372   -0.00001467   -0.00478085
     atom   31 type  1   force =     0.00137891   -0.00406948   -0.00312444
     atom   32 type  1   force =    -0.00137891    0.00406948    0.00312444
     atom   33 type  1   force =     0.00283482    0.00322891   -0.00312444
     atom   34 type  1   force =    -0.00283482   -0.00322891    0.00312444
     atom   35 type  1   force =    -0.00421373    0.00084057   -0.00312444
     atom   36 type  1   force =     0.00421373   -0.00084057    0.00312444

     Total force =     0.052023     Total SCF correction =     0.000156


     Computing stress (Cartesian axis) and pressure

          total   stress  (Ry/bohr**3)                   (kbar)     P=       36.66
   0.00024664  -0.00000000  -0.00000000           36.28       -0.00       -0.00
   0.00000000   0.00024664   0.00000000            0.00       36.28        0.00
  -0.00000000   0.00000000   0.00025441           -0.00        0.00       37.43

     Energy error            =      1.3E-02 Ry
     Gradient error          =      1.0E-02 Ry/Bohr

     number of scf cycles    =   4
     number of bfgs steps    =   3

     energy             old  =    -418.0036992670 Ry
     energy             new  =    -418.0164410761 Ry

     CASE: energy            _new < energy            _old

     new trust radius        =       0.0150783693 bohr
     new conv_thr            =       0.0000000102 Ry


ATOMIC_POSITIONS (crystal)
O                0.2728081563        0.0308817922        0.8577951152
O                0.7271918437        0.9691182188        0.1422048548
O                0.8577951152        0.2728081563        0.0308817922
O                0.1422048548        0.7271918437        0.9691182188
O                0.0308817922        0.8577951152        0.2728081563
O                0.9691182188        0.1422048548        0.7271918437
O                0.4733761444        0.7472593538        0.3298282813
O                0.5266238556        0.2527406462        0.6701716887
O                0.3298282813        0.4733761444        0.7472593538
O                0.6701716887        0.5266238556        0.2527406462
O                0.7472593538        0.3298282813        0.4733761444
O                0.2527406462        0.6701716887        0.5266238556
H                0.1402508160        0.0487781378        0.7903512704
H                0.8597491700        0.9512218542        0.2096487296
H                0.7903512704        0.1402508160        0.0487781378
H                0.2096487296        0.8597491700        0.9512218542
H                0.0487781378        0.7903512704        0.1402508160
H                0.9512218542        0.2096487296        0.8597491700
H                0.4345661154        0.2110280846        1.0067275541
H                0.5654338846        0.7889719304       -0.0067275751
H                1.0067275541        0.4345661154        0.2110280846
H               -0.0067275751        0.5654338846        0.7889719304
H                0.2110280846        1.0067275541        0.4345661154
H                0.7889719304       -0.0067275751        0.5654338846
H                0.7212814025        0.4119085404        0.3984121709
H                0.2787185975        0.5880914296        0.6015878591
H                0.3984121709        0.7212814025        0.4119085404
H                0.6015878591        0.2787185975        0.5880914296
H                0.4119085404        0.3984121709        0.7212814025
H                0.5880914296        0.6015878591        0.2787185975
H                0.7419035015        0.1939134497        0.3616308548
H                0.2580964985        0.8060865353        0.6383691452
H                0.3616308548        0.7419035015        0.1939134497
H                0.6383691452        0.2580964985        0.8060865353
H                0.1939134497        0.3616308548        0.7419035015
H                0.8060865353        0.6383691452        0.2580964985



     Writing config-only to output data dir ./iceII/iceII.save/ :
     XML data file
     NEW-OLD atomic charge density approx. for the potential

     total cpu time spent up to now is       41.2 secs

     per-process dynamical memory:    34.7 Mb

     Self-consistent Calculation

     iteration #  1     ecut=    90.00 Ry     beta= 0.70
     Davidson diagonalization with overlap
     ethr =  1.00E-06,  avg # of iterations =  4.0

     total cpu time spent up to now is       42.4 secs

     total energy              =    -418.01816988 Ry
     estimated scf accuracy    <       0.00035763 Ry

     iteration #  2     ecut=    90.00 Ry     beta= 0.70
     Davidson diagonalization with overlap
     ethr =  3.73E-07,  avg # of iterations =  2.0

     total cpu time spent up to now is       43.3 secs

     total energy              =    -418.01824710 Ry
     estimated scf accuracy    <       0.00003827 Ry

     iteration #  3     ecut=    90.00 Ry     beta= 0.70
     Davidson diagonalization with overlap
     ethr =  3.99E-08,  avg # of iterations =  2.0

     total cpu time spent up to now is       44.2 secs

     total energy              =    -418.01825574 Ry
     estimated scf accuracy    <       0.00000268 Ry

     iteration #  4     ecut=    90.00 Ry     beta= 0.70
     Davidson diagonalization with overlap
     ethr =  2.79E-09,  avg # of iterations =  2.0

     total cpu time spent up to now is       45.0 secs

     total energy              =    -418.01825625 Ry
     estimated scf accuracy    <       0.00000022 Ry

     iteration #  5     ecut=    90.00 Ry     beta= 0.70
     Davidson diagonalization with overlap
     ethr =  2.27E-10,  avg # of iterations =  2.7

     total cpu time spent up to now is       45.9 secs

     total energy              =    -418.01825630 Ry
     estimated scf accuracy    <       0.00000001 Ry

     iteration #  6     ecut=    90.00 Ry     beta= 0.70
     Davidson diagonalization with overlap
     ethr =  1.31E-11,  avg # of iterations =  3.1

     total cpu time spent up to now is       46.9 secs

[...]
H                0.9582510910        0.2098353412        0.8633276173
H                0.4349355356        0.2101937168        0.9938867667
H                0.5650644644        0.7898062982        0.0061132123
H                0.9938867667        0.4349355356        0.2101937168
H                0.0061132123        0.5650644644        0.7898062982
H                0.2101937168        0.9938867667        0.4349355356
H                0.7898062982        0.0061132123        0.5650644644
H                0.7285979612        0.4128495281        0.4014620590
H                0.2714020388        0.5871504419        0.5985379710
H                0.4014620590        0.7285979612        0.4128495281
H                0.5985379710        0.2714020388        0.5871504419
H                0.4128495281        0.4014620590        0.7285979612
H                0.5871504419        0.5985379710        0.2714020388
H                0.7365717808        0.1873847248        0.3557811342
H                0.2634282192        0.8126152602        0.6442188658
H                0.3557811342        0.7365717808        0.1873847248
H                0.6442188658        0.2634282192        0.8126152602
H                0.1873847248        0.3557811342        0.7365717808
H                0.8126152602        0.6442188658        0.2634282192



     Writing config-only to output data dir ./iceII/iceII.save/ :
     XML data file
     NEW-OLD atomic charge density approx. for the potential

     total cpu time spent up to now is      114.3 secs

     per-process dynamical memory:    34.7 Mb

     Self-consistent Calculation

     iteration #  1     ecut=    90.00 Ry     beta= 0.70
     Davidson diagonalization with overlap
     ethr =  1.00E-06,  avg # of iterations =  2.4

     Threshold (ethr) on eigenvalues was too large:
     Diagonalizing with lowered threshold

     Davidson diagonalization with overlap
     ethr =  1.37E-08,  avg # of iterations =  4.0

     total cpu time spent up to now is      116.1 secs

     total energy              =    -418.02715878 Ry
     estimated scf accuracy    <       0.00001884 Ry

     iteration #  2     ecut=    90.00 Ry     beta= 0.70
     Davidson diagonalization with overlap
     ethr =  1.96E-08,  avg # of iterations =  2.0

     total cpu time spent up to now is      116.9 secs

     total energy              =    -418.02716174 Ry
     estimated scf accuracy    <       0.00000110 Ry

     iteration #  3     ecut=    90.00 Ry     beta= 0.70
     Davidson diagonalization with overlap
     ethr =  1.14E-09,  avg # of iterations =  2.0

     total cpu time spent up to now is      117.8 secs

     total energy              =    -418.02716202 Ry
     estimated scf accuracy    <       0.00000016 Ry

     iteration #  4     ecut=    90.00 Ry     beta= 0.70
     Davidson diagonalization with overlap
     ethr =  1.70E-10,  avg # of iterations =  2.0

     total cpu time spent up to now is      118.7 secs

     total energy              =    -418.02716205 Ry
     estimated scf accuracy    <          9.3E-09 Ry

     iteration #  5     ecut=    90.00 Ry     beta= 0.70
     Davidson diagonalization with overlap
     ethr =  9.65E-12,  avg # of iterations =  2.9

     total cpu time spent up to now is      119.6 secs

     total energy              =    -418.02716205 Ry
     estimated scf accuracy    <          2.0E-09 Ry

     iteration #  6     ecut=    90.00 Ry     beta= 0.70
     Davidson diagonalization with overlap
     ethr =  2.12E-12,  avg # of iterations =  2.0

     total cpu time spent up to now is      120.5 secs

     End of self-consistent calculation

          k = 0.0000 0.0000 0.0000 ( 25805 PWs)   bands (ev):

   -20.7226 -20.0614 -20.0614 -19.7903 -19.7903 -19.7550 -19.7405 -19.7405
   -19.7156 -19.3216 -19.3216 -18.8801  -8.2265  -8.1746  -8.1746  -8.0543
    -7.9683  -7.9683  -7.6251  -7.6158  -7.6079  -7.6079  -7.5248  -7.5248
    -6.7135  -5.4115  -5.4115  -4.6124  -4.6124  -4.4761  -4.4761  -4.2365
    -4.1355  -3.3125  -3.3125  -2.4931  -2.4003  -2.4003  -2.3360  -2.2158
    -2.2158  -2.1541  -2.0949  -2.0949  -1.9876  -1.8412  -1.8322  -1.8322

          k =-0.1498-0.0865 0.3111 ( 25783 PWs)   bands (ev):

   -20.6223 -20.1222 -20.0517 -19.9790 -19.9280 -19.8382 -19.6743 -19.6191
   -19.5276 -19.3251 -19.2670 -18.9623  -8.1845  -8.1665  -8.1443  -8.0529
    -7.9519  -7.9179  -7.7143  -7.7011  -7.6388  -7.5273  -7.4491  -7.4281
    -6.4962  -5.6034  -5.4219  -5.0343  -4.7280  -4.4669  -4.3080  -4.0963
    -3.9497  -3.3009  -3.2317  -2.6750  -2.4967  -2.4254  -2.3581  -2.3170
    -2.2761  -2.1997  -2.0717  -2.0401  -1.9856  -1.9311  -1.8624  -1.8393

          k = 0.2996 0.1730-0.6221 ( 25786 PWs)   bands (ev):

   -20.3672 -20.3497 -20.1016 -20.0717 -19.9237 -19.9147 -19.6151 -19.6046
   -19.3345 -19.3291 -19.1699 -19.1511  -8.1747  -8.1459  -8.0740  -8.0411
    -7.9469  -7.9118  -7.7361  -7.7229  -7.6699  -7.5176  -7.3727  -7.3534
    -6.0740  -5.9244  -5.4410  -5.3541  -4.7508  -4.6614  -4.1586  -4.0400
    -3.4772  -3.4697  -3.1973  -2.9357  -2.5566  -2.4791  -2.3731  -2.3685
    -2.2953  -2.1980  -2.1513  -2.0502  -2.0189  -1.9463  -1.8494  -1.8462

          k =-0.1498 0.0865 0.6221 ( 25784 PWs)   bands (ev):

   -20.4191 -20.2263 -20.1947 -20.0252 -19.9880 -19.9031 -19.6199 -19.5093
   -19.4326 -19.2630 -19.2437 -19.1081  -8.1690  -8.1426  -8.0984  -8.0459
    -7.9368  -7.8685  -7.7473  -7.7280  -7.7138  -7.4520  -7.4057  -7.3617
    -6.1057  -5.7767  -5.6905  -5.1238  -4.8766  -4.6805  -4.1366  -3.8950
    -3.7355  -3.3017  -3.1922  -2.9790  -2.5630  -2.4973  -2.3571  -2.3338
    -2.2683  -2.2413  -2.1434  -2.0624  -2.0040  -1.9442  -1.8828  -1.8224

          k = 0.2996 0.3460-0.3111 ( 25776 PWs)   bands (ev):

   -20.4883 -20.2596 -20.1228 -20.0667 -19.9597 -19.8803 -19.6002 -19.4637
   -19.4395 -19.3119 -19.2367 -19.0856  -8.1776  -8.1463  -8.1120  -8.0402
    -7.9580  -7.9318  -7.8351  -7.7488  -7.7123  -7.4874  -7.4336  -7.3727
    -6.1402  -5.7258  -5.4854  -5.1734  -5.0984  -4.4581  -4.0402  -3.9421
    -3.6741  -3.4015  -3.1846  -2.8930  -2.4745  -2.4521  -2.3752  -2.3349
    -2.2715  -2.1679  -2.1391  -2.0704  -1.9833  -1.9711  -1.8662  -1.7626

          k = 0.1498 0.2595 0.0000 ( 25785 PWs)   bands (ev):

   -20.6494 -20.1740 -20.0894 -19.9418 -19.9079 -19.8001 -19.6661 -19.5712
   -19.5238 -19.3344 -19.2919 -18.9492  -8.2007  -8.1708  -8.1585  -8.0493
    -7.9776  -7.9649  -7.7823  -7.6998  -7.6684  -7.5606  -7.5047  -7.4326
    -6.4712  -5.4627  -5.3185  -5.0752  -5.0364  -4.3270  -4.1103  -4.0106
    -3.9642  -3.3522  -3.3172  -2.5742  -2.4045  -2.3966  -2.3722  -2.3019
    -2.2365  -2.1708  -2.1128  -2.0888  -1.9634  -1.9043  -1.8159  -1.7846

          k = 0.2996-0.1730-1.2442 ( 25742 PWs)   bands (ev):

   -20.4817 -20.4018 -20.1107 -20.0089 -19.9045 -19.8296 -19.5782 -19.5540
   -19.3956 -19.3791 -19.1268 -19.1264  -8.1832  -8.1369  -8.1218  -8.0364
    -8.0190  -7.9764  -7.8931  -7.7531  -7.7061  -7.5177  -7.5052  -7.4105
    -5.9227  -5.8818  -5.4251  -5.2840  -4.9606  -4.4855  -3.9033  -3.8580
    -3.6766  -3.5311  -3.1226  -2.8809  -2.4275  -2.3885  -2.3452  -2.3313
    -2.2687  -2.1773  -2.1332  -2.0473  -2.0058  -1.9340  -1.7780  -1.7676

          k = 0.0000 0.0000 0.9332 ( 25787 PWs)   bands (ev):

   -20.3403 -20.3403 -20.2117 -20.1610 -19.9059 -19.9059 -19.4886 -19.4886
   -19.3361 -19.2690 -19.2339 -19.2339  -8.1492  -8.1492  -8.1327  -7.9998
    -7.9998  -7.9710  -7.8501  -7.7626  -7.7626  -7.3933  -7.3933  -7.3621
    -5.8401  -5.8401  -5.7726  -5.2422  -4.8431  -4.8431  -3.7605  -3.7379
    -3.7379  -3.2622  -3.2622  -3.1647  -2.4363  -2.4363  -2.3400  -2.2828
    -2.2338  -2.2338  -2.1382  -2.0635  -2.0635  -1.9330  -1.9330  -1.7325

          k = 0.4494 0.2595 0.0000 ( 25763 PWs)   bands (ev):

   -20.5140 -20.2841 -20.2470 -20.0095 -19.8293 -19.8047 -19.6248 -19.6006
   -19.3792 -19.2835 -19.2467 -19.0739  -8.1654  -8.1496  -8.1346  -8.0337
    -8.0165  -7.9680  -7.8721  -7.7766  -7.7324  -7.5066  -7.4864  -7.4143
    -6.0781  -5.5696  -5.5106  -5.3828  -4.9212  -4.5041  -3.9761  -3.8761
    -3.6038  -3.3871  -3.2820  -2.8393  -2.4113  -2.3929  -2.3580  -2.3360
    -2.2600  -2.1989  -2.1138  -2.0797  -1.9790  -1.9040  -1.8277  -1.7466

          k = 0.2996 0.1730 0.3111 ( 25775 PWs)   bands (ev):

   -20.5528 -20.1814 -20.0733 -20.0599 -19.9597 -19.8524 -19.6332 -19.5599
   -19.4877 -19.2982 -19.2374 -19.0190  -8.1845  -8.1450  -8.1183  -8.0287
    -7.9664  -7.8996  -7.7762  -7.7065  -7.6639  -7.5842  -7.5195  -7.3960
    -6.2703  -5.5559  -5.4632  -5.1492  -5.0053  -4.4388  -4.1582  -3.9404
    -3.8734  -3.3115  -3.2318  -2.7171  -2.5167  -2.4518  -2.4065  -2.3532
    -2.3183  -2.1746  -2.1347  -2.0320  -1.9386  -1.9344  -1.8485  -1.8086

          k = 0.4494-0.2595-0.9332 ( 25793 PWs)   bands (ev):

   -20.3832 -20.3454 -20.1720 -20.0885 -19.9394 -19.8130 -19.6863 -19.5358
   -19.3625 -19.2668 -19.2088 -19.1117  -8.1655  -8.1259  -8.0977  -8.0090
    -7.9449  -7.9199  -7.8284  -7.7452  -7.7097  -7.6079  -7.5068  -7.4257
    -5.8716  -5.7354  -5.5221  -5.2879  -5.0235  -4.5176  -4.1707  -3.8390
    -3.5722  -3.3160  -3.2810  -2.8391  -2.5157  -2.4726  -2.4320  -2.3792
    -2.3579  -2.2166  -2.0771  -2.0536  -1.9617  -1.9099  -1.8183  -1.7915

          k = 0.2996-0.3460-0.6221 ( 25810 PWs)   bands (ev):

   -20.3146 -20.2926 -20.1528 -20.1307 -19.9622 -19.9575 -19.5798 -19.5694
   -19.3350 -19.3233 -19.1629 -19.1502  -8.1731  -8.1007  -8.0583  -8.0095
    -7.9873  -7.8255  -7.7897  -7.7667  -7.6689  -7.5603  -7.4341  -7.4167
    -5.8887  -5.8127  -5.4972  -5.3794  -4.8468  -4.7903  -4.0250  -3.9196
    -3.5349  -3.5041  -3.1807  -2.8998  -2.5784  -2.4888  -2.4471  -2.4339
    -2.3295  -2.2272  -2.0959  -2.0572  -1.9966  -1.8961  -1.8754  -1.7938

          k = 0.0000 0.0000-1.8663 ( 25878 PWs)   bands (ev):

   -20.2453 -20.1967 -20.1305 -20.1305 -20.1102 -20.1102 -19.4569 -19.4569
   -19.4072 -19.4072 -19.1405 -19.1368  -8.1749  -8.0122  -8.0122  -8.0113
    -8.0113  -7.8793  -7.7984  -7.7345  -7.6335  -7.6335  -7.5002  -7.5002
    -5.8870  -5.5642  -5.2707  -5.2707  -5.1419  -5.1419  -3.7015  -3.7015
    -3.6871  -3.6871  -3.1569  -2.8750  -2.5192  -2.5029  -2.5029  -2.4965
    -2.4965  -2.1737  -2.0905  -1.9909  -1.9909  -1.8988  -1.8988  -1.7459

          k = 0.2996-0.3460 0.3111 ( 25776 PWs)   bands (ev):

   -20.4887 -20.2538 -20.1396 -20.0552 -19.9603 -19.8779 -19.6010 -19.4791
   -19.4218 -19.3227 -19.2264 -19.0886  -8.1685  -8.1503  -8.1147  -8.0199
    -7.9760  -7.9401  -7.8495  -7.7381  -7.7070  -7.4735  -7.4326  -7.3870
    -6.1370  -5.7012  -5.5529  -5.1426  -5.0291  -4.5469  -4.1580  -3.7634
    -3.5962  -3.4240  -3.3254  -2.8370  -2.4851  -2.4330  -2.3590  -2.3137
    -2.2952  -2.1962  -2.1431  -2.0844  -1.9873  -1.9368  -1.8676  -1.7690

     highest occupied level (ev):    -1.7325

!    total energy              =    -418.02716205 Ry
     estimated scf accuracy    <          4.2E-11 Ry

     The total energy is the sum of the following terms:
     one-electron contribution =    -268.97035552 Ry
     hartree contribution      =     172.37120458 Ry
     xc contribution           =    -106.33205565 Ry
     ewald contribution        =    -215.09595545 Ry

     convergence has been achieved in   6 iterations

     Forces acting on atoms (cartesian axes, Ry/au):

     atom    1 type  2   force =    -0.00021775   -0.00082460    0.00028147
     atom    2 type  2   force =     0.00021775    0.00082460   -0.00028147
     atom    3 type  2   force =     0.00082301    0.00022372    0.00028147
     atom    4 type  2   force =    -0.00082301   -0.00022372   -0.00028147
     atom    5 type  2   force =    -0.00060525    0.00060088    0.00028147
     atom    6 type  2   force =     0.00060525   -0.00060088   -0.00028147
     atom    7 type  2   force =     0.00061127   -0.00038059   -0.00031505
     atom    8 type  2   force =    -0.00061127    0.00038059    0.00031505
     atom    9 type  2   force =     0.00002396    0.00071967   -0.00031505
     atom   10 type  2   force =    -0.00002396   -0.00071967    0.00031505
     atom   11 type  2   force =    -0.00063523   -0.00033908   -0.00031505
     atom   12 type  2   force =     0.00063523    0.00033908    0.00031505
     atom   13 type  1   force =     0.00061061    0.00041028   -0.00016689
     atom   14 type  1   force =    -0.00061061   -0.00041028    0.00016689
     atom   15 type  1   force =    -0.00066062    0.00032367   -0.00016689
     atom   16 type  1   force =     0.00066062   -0.00032367    0.00016689
     atom   17 type  1   force =     0.00005001   -0.00073395   -0.00016689
     atom   18 type  1   force =    -0.00005001    0.00073395    0.00016689
     atom   19 type  1   force =    -0.00005514    0.00089472    0.00024338
     atom   20 type  1   force =     0.00005514   -0.00089472   -0.00024338
     atom   21 type  1   force =    -0.00074729   -0.00049511    0.00024338
     atom   22 type  1   force =     0.00074729    0.00049511   -0.00024338
     atom   23 type  1   force =     0.00080242   -0.00039961    0.00024338
     atom   24 type  1   force =    -0.00080242    0.00039961   -0.00024338
     atom   25 type  1   force =     0.00034976    0.00028232    0.00004190
     atom   26 type  1   force =    -0.00034976   -0.00028232   -0.00004190
     atom   27 type  1   force =    -0.00041937    0.00016175    0.00004190
     atom   28 type  1   force =     0.00041937   -0.00016175   -0.00004190
     atom   29 type  1   force =     0.00006961   -0.00044406    0.00004190
     atom   30 type  1   force =    -0.00006961    0.00044406   -0.00004190
     atom   31 type  1   force =     0.00022239   -0.00052006    0.00023601
     atom   32 type  1   force =    -0.00022239    0.00052006   -0.00023601
     atom   33 type  1   force =     0.00033919    0.00045263    0.00023601
     atom   34 type  1   force =    -0.00033919   -0.00045263   -0.00023601
     atom   35 type  1   force =    -0.00056159    0.00006743    0.00023601
     atom   36 type  1   force =     0.00056159   -0.00006743   -0.00023601

     Total force =     0.004540     Total SCF correction =     0.000011


     Computing stress (Cartesian axis) and pressure

          total   stress  (Ry/bohr**3)                   (kbar)     P=       39.26
   0.00027967   0.00000000   0.00000000           41.14        0.00        0.00
  -0.00000000   0.00027967   0.00000000           -0.00       41.14        0.00
   0.00000000   0.00000000   0.00024137            0.00        0.00       35.51

     Energy error            =      6.0E-05 Ry
     Gradient error          =      8.9E-04 Ry/Bohr

     bfgs converged in  15 scf cycles and  14 bfgs steps
     (criteria: energy <  1.0E-04 Ry, force <  1.0E-03 Ry/Bohr)

     End of BFGS Geometry Optimization

     Final energy             =    -418.0271620505 Ry

     File ./iceII/iceII.bfgs deleted, as requested
Begin final coordinates

ATOMIC_POSITIONS (crystal)
O                0.2727076700        0.0285440141        0.8568704483
O                0.7272923300        0.9714559969        0.1431295217
O                0.8568704483        0.2727076700        0.0285440141
O                0.1431295217        0.7272923300        0.9714559969
O                0.0285440141        0.8568704483        0.2727076700
O                0.9714559969        0.1431295217        0.7272923300
O                0.4711018932        0.7456010459        0.3243913484
O                0.5288981068        0.2543989541        0.6756086216
O                0.3243913484        0.4711018932        0.7456010459
O                0.6756086216        0.5288981068        0.2543989541
O                0.7456010459        0.3243913484        0.4711018932
O                0.2543989541        0.6756086216        0.5288981068
H                0.1366723687        0.0417489010        0.7901646588
H                0.8633276173        0.9582510910        0.2098353412
H                0.7901646588        0.1366723687        0.0417489010
H                0.2098353412        0.8633276173        0.9582510910
H                0.0417489010        0.7901646588        0.1366723687
H                0.9582510910        0.2098353412        0.8633276173
H                0.4349355356        0.2101937168        0.9938867667
H                0.5650644644        0.7898062982        0.0061132123
H                0.9938867667        0.4349355356        0.2101937168
H                0.0061132123        0.5650644644        0.7898062982
H                0.2101937168        0.9938867667        0.4349355356
H                0.7898062982        0.0061132123        0.5650644644
H                0.7285979612        0.4128495281        0.4014620590
H                0.2714020388        0.5871504419        0.5985379710
H                0.4014620590        0.7285979612        0.4128495281
H                0.5985379710        0.2714020388        0.5871504419
H                0.4128495281        0.4014620590        0.7285979612
H                0.5871504419        0.5985379710        0.2714020388
H                0.7365717808        0.1873847248        0.3557811342
H                0.2634282192        0.8126152602        0.6442188658
H                0.3557811342        0.7365717808        0.1873847248
H                0.6442188658        0.2634282192        0.8126152602
H                0.1873847248        0.3557811342        0.7365717808
H                0.8126152602        0.6442188658        0.2634282192
End final coordinates



     Writing all to output data dir ./iceII/iceII.save/ :
     XML data file, charge density, pseudopotentials, collected wavefunctions

     init_run     :      2.46s CPU      2.55s WALL (       1 calls)
     electrons    :     98.30s CPU    100.77s WALL (      15 calls)
     update_pot   :      1.76s CPU      1.82s WALL (      14 calls)
     forces       :      1.62s CPU      1.64s WALL (      15 calls)
     stress       :     13.43s CPU     13.55s WALL (      15 calls)

     Called by init_run:
     wfcinit      :      0.32s CPU      0.33s WALL (       1 calls)
     potinit      :      1.62s CPU      1.68s WALL (       1 calls)
     hinit0       :      0.39s CPU      0.39s WALL (       1 calls)

     Called by electrons:
     c_bands      :     75.71s CPU     76.37s WALL (     104 calls)
     sum_band     :     10.31s CPU     10.42s WALL (     104 calls)
     v_of_rho     :     14.64s CPU     15.65s WALL (     115 calls)
     newd         :      0.37s CPU      0.38s WALL (     115 calls)
     mix_rho      :      0.21s CPU      0.21s WALL (     104 calls)
     vdW_kernel   :      1.50s CPU      1.52s WALL (       1 calls)

     Called by c_bands:
     init_us_2    :      1.19s CPU      1.23s WALL (     956 calls)
     cegterg      :     73.64s CPU     74.09s WALL (     416 calls)

     Called by *egterg:
     cdiaghg      :      5.84s CPU      5.85s WALL (    1502 calls)
     h_psi        :     56.66s CPU     57.05s WALL (    1578 calls)
     s_psi        :      2.17s CPU      2.18s WALL (    1578 calls)
     g_psi        :      0.14s CPU      0.14s WALL (    1158 calls)

     Called by h_psi:
     h_psi:calbec :      3.74s CPU      3.77s WALL (    1578 calls)
     vloc_psi     :     50.32s CPU     50.67s WALL (    1578 calls)
     add_vuspsi   :      2.25s CPU      2.26s WALL (    1578 calls)

     General routines
     calbec       :      5.27s CPU      5.32s WALL (    2294 calls)
     fft          :      7.20s CPU      7.27s WALL (    7813 calls)
     ffts         :      0.09s CPU      0.09s WALL (     104 calls)
     fftw         :     52.38s CPU     52.75s WALL (  146342 calls)

     Parallel routines

     PWSCF        :   1m58.60s CPU   2m 2.09s WALL


   This run was terminated on:  14: 7:37   1Apr2026            

=------------------------------------------------------------------------------=
   JOB DONE.
=------------------------------------------------------------------------------=
