
     Program PWSCF v.7.3.1 starts on  1Apr2026 at 14: 7:39 

     This program is part of the open-source Quantum ESPRESSO suite
     for quantum simulation of materials; please cite
         "P. Giannozzi et al., J. Phys.:Condens. Matter 21 395502 (2009);
         "P. Giannozzi et al., J. Phys.:Condens. Matter 29 465901 (2017);
         "P. Giannozzi et al., J. Chem. Phys. 152 154105 (2020);
          URL http://www.quantum-espresso.org", 
     in publications or presentations arising from this work. More details at
     http://www.quantum-espresso.org/quote

     Parallel version (MPI), running on   128 processors

     MPI processes distributed on     1 nodes
     242867 MiB available memory on the printing compute node when the environment starts

     Waiting for input...
     Reading input from standard input

     Current dimensions of program PWSCF are:
     Max number of different atomic species (ntypx) = 10
     Max number of k-points (npk) =  40000
     Max angular momentum in pseudopotentials (lmaxx) =  4

     IMPORTANT: XC functional enforced from input :
     Exchange-correlation= VDW-DF2
                           (   1   4  13   0   2   0   0)
     Any further DFT definition will be discarded
     Please, verify this is what you really want


     K-points division:     npool     =       4
     R & G space division:  proc/nbgrp/npool/nimage =      32
     Subspace diagonalization in iterative solution of the eigenvalue problem:
     a serial algorithm will be used


     Parallelization info
     --------------------
     sticks:   dense  smooth     PW     G-vecs:    dense   smooth      PW
     Min         163     163     48                 6507     6507    1047
     Max         164     164     49                 6511     6511    1049
     Sum        5217    5217   1551               208235   208235   33553

     Using Slab Decomposition



     bravais-lattice index     =            5
     lattice parameter (alat)  =      14.0846  a.u.
     unit-cell volume          =    1805.1954 (a.u.)^3
     number of atoms/cell      =           36
     number of atomic types    =            2
     number of electrons       =        96.00
     number of Kohn-Sham states=           48
     kinetic-energy cutoff     =      90.0000  Ry
     charge density cutoff     =     360.0000  Ry
     scf convergence threshold =      1.0E-07
     mixing beta               =       0.7000
     number of iterations used =            8  plain     mixing
     energy convergence thresh.=      1.0E-04
     force convergence thresh. =      1.0E-03
     Exchange-correlation= VDW-DF2
                           (   1   4  13   0   2   0   0)
     nstep                     =           50


     celldm(1)=  14.084581  celldm(2)=   0.000000  celldm(3)=   0.000000
     celldm(4)=  -0.392337  celldm(5)=   0.000000  celldm(6)=   0.000000

     crystal axes: (cart. coord. in units of alat)
               a(1) = (   0.834367  -0.481722   0.267909 )  
               a(2) = (   0.000000   0.963444   0.267909 )  
               a(3) = (  -0.834367  -0.481722   0.267909 )  

     reciprocal axes: (cart. coord. in units 2 pi/alat)
               b(1) = (  0.599257 -0.345981  1.244203 )  
               b(2) = (  0.000000  0.691962  1.244203 )  
               b(3) = ( -0.599257 -0.345981  1.244203 )  


     PseudoPot. # 1 for H  read from file:
     ./H.pbe-van_ak.UPF
     MD5 check sum: 077eb6d537518a38cb46c6de387227b7
     Pseudo is Ultrasoft, Zval =  1.0
     Generated by new atomic code, or converted to UPF format
     Using radial grid of  615 points,  1 beta functions with: 
                l(1) =   0
     Q(r) pseudized with  8 coefficients,  rinner =    0.800

     PseudoPot. # 2 for O  read from file:
     ./O.pbe-van_ak.UPF
     MD5 check sum: 78c19812648e8988a0fe644b0f25305e
     Pseudo is Ultrasoft, Zval =  6.0
     Generated by new atomic code, or converted to UPF format
     Using radial grid of  737 points,  4 beta functions with: 
                l(1) =   0
                l(2) =   0
                l(3) =   1
                l(4) =   1
     Q(r) pseudized with  8 coefficients,  rinner =    0.800   0.800   0.800


     atomic species   valence    mass     pseudopotential
     H                 1.00     1.00800     H ( 1.00)
     O                 6.00    16.00000     O ( 1.00)

      6 Sym. Ops., with inversion, found



   Cartesian axes

     site n.     atom                  positions (alat units)
         1        O      tau(   1) = (  -0.4847673  -0.5197781   0.3083633  )
         2        O      tau(   2) = (   0.4847673   0.5197782   0.4953638  )
         3        O      tau(   3) = (   0.6925247  -0.1599317   0.3083633  )
         4        O      tau(   4) = (  -0.6925248   0.1599317   0.4953638  )
         5        O      tau(   5) = (  -0.2077574   0.6797099   0.3083633  )
         6        O      tau(   6) = (   0.2077574  -0.6797099   0.4953638  )
         7        O      tau(   7) = (   0.1218176   0.3323883   0.4179381  )
         8        O      tau(   8) = (  -0.1218176  -0.3323883   0.3857890  )
         9        O      tau(   9) = (  -0.3487655  -0.0606970   0.4179381  )
        10        O      tau(  10) = (   0.3487655   0.0606970   0.3857890  )
        11        O      tau(  11) = (   0.2269479  -0.2716913   0.4179381  )
        12        O      tau(  12) = (  -0.2269479   0.2716912   0.3857890  )
        13        H      tau(  13) = (  -0.5381668  -0.4032014   0.2796970  )
        14        H      tau(  14) = (   0.5381668   0.4032014   0.5240301  )
        15        H      tau(  15) = (   0.6182661  -0.2644654   0.2796970  )
        16        H      tau(  16) = (  -0.6182661   0.2644654   0.5240301  )
        17        H      tau(  17) = (  -0.0800993   0.6676668   0.2796970  )
        18        H      tau(  18) = (   0.0800993  -0.6676668   0.5240301  )
        19        H      tau(  19) = (  -0.4872704  -0.4817221   0.4326731  )
        20        H      tau(  20) = (   0.4872704   0.4817221   0.3710540  )
        21        H      tau(  21) = (   0.6608188  -0.1811275   0.4326731  )
        22        H      tau(  22) = (  -0.6608188   0.1811275   0.3710540  )
        23        H      tau(  23) = (  -0.1735484   0.6628496   0.4326731  )
        24        H      tau(  24) = (   0.1735484  -0.6628496   0.3710540  )
        25        H      tau(  25) = (   0.2703349  -0.1502973   0.4058822  )
        26        H      tau(  26) = (  -0.2703350   0.1502973   0.3978449  )
        27        H      tau(  27) = (  -0.0050062   0.3092656   0.4058822  )
        28        H      tau(  28) = (   0.0050062  -0.3092656   0.3978449  )
        29        H      tau(  29) = (  -0.2653287  -0.1589683   0.4058822  )
        30        H      tau(  30) = (   0.2653287   0.1589683   0.3978449  )
        31        H      tau(  31) = (   0.3178939  -0.3347969   0.3493534  )
        32        H      tau(  32) = (  -0.3178939   0.3347969   0.4543737  )
        33        H      tau(  33) = (   0.1309957   0.4427026   0.3493534  )
        34        H      tau(  34) = (  -0.1309956  -0.4427026   0.4543737  )
        35        H      tau(  35) = (  -0.4488895  -0.1079057   0.3493534  )
        36        H      tau(  36) = (   0.4488895   0.1079057   0.4543737  )

     number of k points=    14
                       cart. coord. in units 2pi/alat
        k(    1) = (   0.0000000   0.0000000   0.0000000), wk =   0.0312500
        k(    2) = (  -0.1498141  -0.0864952   0.3110508), wk =   0.1875000
        k(    3) = (   0.2996283   0.1729905  -0.6221017), wk =   0.0937500
        k(    4) = (  -0.1498141   0.0864952   0.6221017), wk =   0.1875000
        k(    5) = (   0.2996283   0.3459809  -0.3110508), wk =   0.1875000
        k(    6) = (   0.1498141   0.2594857   0.0000000), wk =   0.1875000
        k(    7) = (   0.2996283  -0.1729905  -1.2442034), wk =   0.0937500
        k(    8) = (   0.0000000   0.0000000   0.9331525), wk =   0.0625000
        k(    9) = (   0.4494424   0.2594857   0.0000000), wk =   0.1875000
        k(   10) = (   0.2996283   0.1729905   0.3110508), wk =   0.1875000
        k(   11) = (   0.4494424  -0.2594857  -0.9331525), wk =   0.1875000
        k(   12) = (   0.2996283  -0.3459809  -0.6221017), wk =   0.1875000
        k(   13) = (   0.0000000   0.0000000  -1.8663050), wk =   0.0312500
        k(   14) = (   0.2996283  -0.3459809   0.3110508), wk =   0.1875000

     Dense  grid:   208235 G-vectors     FFT dimensions: (  90,  90,  90)

     Estimated max dynamical RAM per process >      13.99 MB

     Estimated total dynamical RAM >       1.60 GB

     Initial potential from superposition of free atoms

     starting charge      95.9998, renormalised to      96.0000


     %%%%%%%%%%%%%%%%%%%%%%%%%%%%%%%%%%%%%%%%%%%%%%%%%%%%%%%%%%%%%%%%%%%%%%%%
     %                                                                      %
     % You are using vdW-DF, which was implemented by the Thonhauser group. %
     % Please cite the following two papers that made this development      %
     % possible and the two reviews that describe the various versions:     %
     %                                                                      %
     %   T. Thonhauser et al., PRL 115, 136402 (2015).                      %
     %   T. Thonhauser et al., PRB 76, 125112 (2007).                       %
     %   K. Berland et al., Rep. Prog. Phys. 78, 066501 (2015).             %
     %   D.C. Langreth et al., J. Phys.: Condens. Matter 21, 084203 (2009). %
     %                                                                      %
     % If you are calculating stress with vdW-DF, please also cite:         %
     %                                                                      %
     %   R. Sabatini et al., J. Phys.: Condens. Matter 24, 424209 (2012).   %
     %                                                                      %
     %%%%%%%%%%%%%%%%%%%%%%%%%%%%%%%%%%%%%%%%%%%%%%%%%%%%%%%%%%%%%%%%%%%%%%%%

     %%%%%%%%%%%%%%%%%%%%%%%%%%%%%%%%%%%%%%%%%%%%%%%%%%%%%%%%%%%%%%%%%%%%%%%%
     %                                                                      %
     %  vdW-DF NEWS:                                                        %
     %                                                                      %
     %  * vdW-DF3 is now available. DOI: 10.1021/acs.jctc.0c00471           %
     %    use with input_dft = 'vdW-DF3-opt1' or 'vdW-DF3-opt2'             %
     %                                                                      %
     %  * Unscreened and range-separated hybrid vdW-DF-cx functionals       %
     %    DOI: 10.1063/1.4986522 and 10.1088/1361-648X/ac2ad2               %
     %    use with input_dft = 'vdW-DF-cx0'    and 'vdW-DF-ahcx'            %
     %  * Unscreened and range-separated hybrid vdW-DF2-b86r functionals    %
     %    DOI: 10.1063/1.4986522 and DOI: 10.1103/PhysRevX.12.041003        %
     %    use with input_dft = 'vdW-DF2-br0' and 'vdW-DF2-ahbr'             %
     %                                                                      %
     %%%%%%%%%%%%%%%%%%%%%%%%%%%%%%%%%%%%%%%%%%%%%%%%%%%%%%%%%%%%%%%%%%%%%%%%


     Starting wfcs are   72 randomized atomic wfcs

     total cpu time spent up to now is        2.8 secs

     per-process dynamical memory:    18.5 Mb

     Self-consistent Calculation

     iteration #  1     ecut=    90.00 Ry     beta= 0.70
     Davidson diagonalization with overlap
     ethr =  1.00E-02,  avg # of iterations =  2.0

     total cpu time spent up to now is        3.6 secs

     total energy              =    -415.79041425 Ry
     estimated scf accuracy    <       4.79989954 Ry

     iteration #  2     ecut=    90.00 Ry     beta= 0.70
     Davidson diagonalization with overlap
     ethr =  5.00E-03,  avg # of iterations =  3.0

     total cpu time spent up to now is        4.7 secs

     total energy              =    -417.40636030 Ry
     estimated scf accuracy    <       2.85512685 Ry

     iteration #  3     ecut=    90.00 Ry     beta= 0.70
     Davidson diagonalization with overlap
     ethr =  2.97E-03,  avg # of iterations =  2.0

     total cpu time spent up to now is        5.6 secs

     total energy              =    -417.77452325 Ry
     estimated scf accuracy    <       0.12049365 Ry

     iteration #  4     ecut=    90.00 Ry     beta= 0.70
     Davidson diagonalization with overlap
     ethr =  1.26E-04,  avg # of iterations =  4.0

     total cpu time spent up to now is        6.8 secs

     total energy              =    -417.86491996 Ry
     estimated scf accuracy    <       0.14376669 Ry

     iteration #  5     ecut=    90.00 Ry     beta= 0.70
     Davidson diagonalization with overlap
     ethr =  1.26E-04,  avg # of iterations =  2.0

     total cpu time spent up to now is        7.5 secs

     total energy              =    -417.86918430 Ry
     estimated scf accuracy    <       0.02279360 Ry

     iteration #  6     ecut=    90.00 Ry     beta= 0.70
     Davidson diagonalization with overlap
     ethr =  2.37E-05,  avg # of iterations =  2.0

     total cpu time spent up to now is        8.3 secs

     total energy              =    -417.86979904 Ry
     estimated scf accuracy    <       0.00544623 Ry

     iteration #  7     ecut=    90.00 Ry     beta= 0.70
     Davidson diagonalization with overlap
     ethr =  5.67E-06,  avg # of iterations =  2.0

     total cpu time spent up to now is        9.2 secs

     total energy              =    -417.87123548 Ry
     estimated scf accuracy    <       0.00006809 Ry

     iteration #  8     ecut=    90.00 Ry     beta= 0.70
     Davidson diagonalization with overlap
     ethr =  7.09E-08,  avg # of iterations =  5.1

     total cpu time spent up to now is       10.6 secs

     total energy              =    -417.87131033 Ry
     estimated scf accuracy    <       0.00031461 Ry

     iteration #  9     ecut=    90.00 Ry     beta= 0.70
     Davidson diagonalization with overlap
     ethr =  7.09E-08,  avg # of iterations =  2.0

     total cpu time spent up to now is       11.4 secs

     total energy              =    -417.87126893 Ry
     estimated scf accuracy    <       0.00012453 Ry

     iteration # 10     ecut=    90.00 Ry     beta= 0.70
     Davidson diagonalization with overlap
     ethr =  7.09E-08,  avg # of iterations =  3.0

     total cpu time spent up to now is       12.3 secs

     total energy              =    -417.87128685 Ry
     estimated scf accuracy    <       0.00000750 Ry

     iteration # 11     ecut=    90.00 Ry     beta= 0.70
     Davidson diagonalization with overlap
     ethr =  7.81E-09,  avg # of iterations =  3.0

     total cpu time spent up to now is       13.2 secs

     total energy              =    -417.87128832 Ry
     estimated scf accuracy    <       0.00000123 Ry

     iteration # 12     ecut=    90.00 Ry     beta= 0.70
     Davidson diagonalization with overlap
     ethr =  1.28E-09,  avg # of iterations =  3.4

     total cpu time spent up to now is       14.2 secs

     End of self-consistent calculation

          k = 0.0000 0.0000 0.0000 ( 26051 PWs)   bands (ev):

   -21.2044 -20.6113 -20.6113 -20.3319 -20.3319 -20.3073 -20.3073 -20.2811
   -20.2724 -19.8927 -19.8927 -19.4985  -8.3977  -8.1664  -8.1088  -8.1088
    -7.9779  -7.9779  -7.5400  -7.3858  -7.3858  -7.1567  -7.1567  -6.9816
    -6.9330  -5.8536  -5.8536  -5.1654  -5.1654  -5.0890  -5.0890  -4.7643
    -4.5205  -3.8296  -3.8296  -3.1246  -2.5940  -2.5940  -2.4792  -2.3844
    -2.3245  -2.3245  -2.1708  -2.1708  -2.1208  -2.1021  -2.0392  -2.0392

          k =-0.1498-0.0865 0.3111 ( 26044 PWs)   bands (ev):

   -21.1103 -20.6617 -20.5962 -20.5149 -20.4895 -20.3950 -20.2127 -20.1604
   -20.0895 -19.9022 -19.8488 -19.5741  -8.3320  -8.2356  -8.1502  -8.0950
    -7.9621  -7.8927  -7.5587  -7.3638  -7.3293  -7.1939  -7.0327  -6.9962
    -6.7440  -6.0196  -5.8606  -5.5579  -5.1909  -5.0259  -4.8855  -4.6229
    -4.5598  -3.8192  -3.7517  -3.2649  -2.7471  -2.6577  -2.5128  -2.4388
    -2.3718  -2.3240  -2.2752  -2.2060  -2.1199  -2.0800  -2.0291  -1.9749

          k = 0.2996 0.1730-0.6221 ( 26018 PWs)   bands (ev):

   -20.8705 -20.8571 -20.6460 -20.6110 -20.4908 -20.4782 -20.1485 -20.1271
   -19.9174 -19.9041 -19.7763 -19.7404  -8.2904  -8.2327  -8.1425  -8.1057
    -7.9747  -7.8963  -7.5045  -7.3628  -7.3057  -7.2047  -6.9290  -6.9273
    -6.4432  -6.2854  -5.9138  -5.7557  -5.1914  -5.0986  -4.8700  -4.6996
    -4.0864  -3.9937  -3.6829  -3.4485  -2.8848  -2.6904  -2.5379  -2.5154
    -2.4231  -2.3897  -2.2847  -2.2072  -2.1941  -2.0352  -2.0140  -1.9220

          k =-0.1498 0.0865 0.6221 ( 26001 PWs)   bands (ev):

   -20.9182 -20.7438 -20.7252 -20.5721 -20.5466 -20.4658 -20.1515 -20.0486
   -20.0012 -19.8528 -19.8309 -19.7109  -8.3011  -8.2048  -8.1883  -8.0669
    -7.9880  -7.8773  -7.5016  -7.4173  -7.3482  -7.0704  -6.9889  -6.9234
    -6.4508  -6.2046  -6.0877  -5.5547  -5.3478  -5.1451  -4.7865  -4.5603
    -4.3358  -3.7889  -3.7442  -3.4731  -2.8554  -2.7445  -2.5289  -2.4686
    -2.4302  -2.3713  -2.3134  -2.2159  -2.1790  -2.0445  -2.0214  -1.9142

          k = 0.2996 0.3460-0.3111 ( 26027 PWs)   bands (ev):

   -20.9875 -20.7864 -20.6380 -20.6231 -20.5016 -20.4256 -20.1498 -20.0288
   -20.0127 -19.8965 -19.8235 -19.6806  -8.3138  -8.2847  -8.1123  -8.0821
    -8.0113  -7.8992  -7.5606  -7.4905  -7.3386  -7.0324  -7.0018  -6.9090
    -6.5947  -6.2338  -5.9629  -5.5807  -5.5315  -4.9424  -4.7544  -4.4566
    -4.2007  -3.9616  -3.7330  -3.4342  -2.7334  -2.6540  -2.5492  -2.4709
    -2.3948  -2.3303  -2.2668  -2.2462  -2.1408  -2.0981  -2.0219  -1.8945

          k = 0.1498 0.2595 0.0000 ( 25995 PWs)   bands (ev):

   -21.1370 -20.7136 -20.6398 -20.4694 -20.4368 -20.3341 -20.2388 -20.1456
   -20.0986 -19.9084 -19.8609 -19.5589  -8.3757  -8.2545  -8.1379  -8.0820
    -7.9421  -7.9318  -7.6451  -7.4748  -7.2526  -7.1587  -7.0661  -6.9270
    -6.9060  -5.9849  -5.8297  -5.5559  -5.4378  -4.8924  -4.7271  -4.6100
    -4.3865  -3.9059  -3.8140  -3.2081  -2.5984  -2.5688  -2.5233  -2.4311
    -2.3781  -2.3430  -2.1984  -2.1779  -2.1398  -2.1203  -1.9944  -1.9753

          k = 0.2996-0.1730-1.2442 ( 26010 PWs)   bands (ev):

   -20.9766 -20.9229 -20.6630 -20.5274 -20.4404 -20.3558 -20.1725 -20.1177
   -19.9848 -19.9506 -19.7251 -19.7037  -8.3497  -8.3017  -8.1384  -8.1059
    -7.9206  -7.9043  -7.6631  -7.5675  -7.2452  -7.1839  -6.9706  -6.9156
    -6.4871  -6.4476  -5.9103  -5.6896  -5.3385  -5.0204  -4.5750  -4.3125
    -4.1938  -4.1554  -3.6447  -3.4371  -2.6241  -2.5551  -2.5249  -2.4832
    -2.3836  -2.2949  -2.2858  -2.1888  -2.1827  -2.1132  -1.9499  -1.9367

          k = 0.0000 0.0000 0.9332 ( 25997 PWs)   bands (ev):

   -20.8512 -20.8512 -20.7505 -20.6803 -20.4528 -20.4528 -20.0560 -20.0560
   -19.9155 -19.8435 -19.8221 -19.8221  -8.2840  -8.2840  -8.1257  -8.0210
    -8.0058  -8.0058  -7.5725  -7.4515  -7.4515  -6.9240  -6.9240  -6.8757
    -6.3545  -6.3545  -6.3507  -5.6015  -5.2483  -5.2483  -4.5165  -4.3087
    -4.3087  -3.8058  -3.8058  -3.6475  -2.6621  -2.6621  -2.5297  -2.4292
    -2.3638  -2.3638  -2.2893  -2.2202  -2.2202  -2.0783  -2.0783  -1.8657

          k = 0.4494 0.2595 0.0000 ( 26019 PWs)   bands (ev):

   -21.0120 -20.8015 -20.7878 -20.5277 -20.3713 -20.3465 -20.1894 -20.1737
   -19.9856 -19.8613 -19.8166 -19.6672  -8.3411  -8.2908  -8.2065  -8.0303
    -7.9618  -7.8930  -7.6792  -7.5069  -7.3591  -7.0595  -6.9935  -6.9438
    -6.6170  -6.1840  -6.0930  -5.6370  -5.3379  -5.0219  -4.5087  -4.4713
    -4.2394  -3.9197  -3.7768  -3.4086  -2.5985  -2.5890  -2.5083  -2.4878
    -2.3968  -2.3221  -2.2444  -2.2146  -2.1458  -2.0858  -2.0122  -1.9147

          k = 0.2996 0.1730 0.3111 ( 26032 PWs)   bands (ev):

   -21.0469 -20.7226 -20.6121 -20.5929 -20.4880 -20.4134 -20.1695 -20.1385
   -20.0395 -19.8915 -19.8173 -19.6217  -8.3385  -8.2706  -8.1769  -8.0299
    -8.0101  -7.8314  -7.6033  -7.4426  -7.2384  -7.1556  -7.0914  -6.9723
    -6.6291  -6.0104  -5.8168  -5.7220  -5.4823  -5.0574  -4.7258  -4.4923
    -4.3409  -3.8817  -3.7522  -3.3014  -2.7565  -2.6751  -2.5772  -2.5176
    -2.3940  -2.3469  -2.2513  -2.2044  -2.1015  -2.0575  -1.9834  -1.9680

          k = 0.4494-0.2595-0.9332 ( 26032 PWs)   bands (ev):

   -20.8854 -20.8724 -20.7043 -20.6160 -20.4715 -20.3786 -20.2182 -20.1142
   -19.9300 -19.8685 -19.7998 -19.6939  -8.3674  -8.2545  -8.2072  -8.0311
    -7.9772  -7.8118  -7.6649  -7.4082  -7.2632  -7.1992  -7.0196  -6.9777
    -6.3116  -6.2652  -5.8935  -5.7489  -5.5334  -5.1614  -4.6701  -4.3607
    -4.0440  -3.9719  -3.7889  -3.3861  -2.7468  -2.7003  -2.6549  -2.5189
    -2.4762  -2.3730  -2.1865  -2.1594  -2.1136  -2.0714  -1.9859  -1.9245

          k = 0.2996-0.3460-0.6221 ( 26052 PWs)   bands (ev):

   -20.8268 -20.8066 -20.6862 -20.6632 -20.5150 -20.5095 -20.1242 -20.1097
   -19.9186 -19.9048 -19.7714 -19.7298  -8.3806  -8.1583  -8.1257  -8.0968
    -8.0533  -7.8127  -7.5342  -7.4277  -7.2256  -7.1795  -6.9877  -6.9813
    -6.2722  -6.1340  -5.9406  -5.8145  -5.4376  -5.3938  -4.5788  -4.5006
    -4.0508  -4.0094  -3.7797  -3.3686  -2.9204  -2.7220  -2.6499  -2.5688
    -2.4943  -2.3295  -2.2466  -2.1939  -2.1614  -2.0189  -1.9967  -1.9012

          k = 0.0000 0.0000-1.8663 ( 26100 PWs)   bands (ev):

   -20.7797 -20.7332 -20.6506 -20.6506 -20.6376 -20.6376 -20.0329 -20.0329
   -19.9719 -19.9719 -19.7519 -19.7139  -8.4369  -8.1040  -8.1040  -8.0933
    -8.0933  -7.7839  -7.5870  -7.4349  -7.1157  -7.1157  -7.0827  -7.0827
    -6.0570  -5.9025  -5.8154  -5.8154  -5.7811  -5.7811  -4.3230  -4.3230
    -4.1008  -4.1008  -3.7843  -3.3125  -2.9567  -2.7291  -2.7291  -2.6177
    -2.6177  -2.2624  -2.2473  -2.1092  -2.1092  -2.0355  -2.0355  -1.8696

          k = 0.2996-0.3460 0.3111 ( 26027 PWs)   bands (ev):

   -20.9877 -20.7825 -20.6590 -20.6076 -20.4976 -20.4255 -20.1533 -20.0492
   -19.9772 -19.9198 -19.8108 -19.6837  -8.3328  -8.2458  -8.1487  -8.0737
    -7.9900  -7.9036  -7.6189  -7.4498  -7.3151  -7.0783  -6.9577  -6.9327
    -6.5814  -6.1549  -6.0790  -5.6252  -5.3794  -5.0188  -4.8385  -4.3520
    -4.1674  -3.9495  -3.8276  -3.4011  -2.7457  -2.6172  -2.5649  -2.4643
    -2.4112  -2.3362  -2.2703  -2.2427  -2.1615  -2.0607  -2.0221  -1.9051

     highest occupied level (ev):    -1.8657

!    total energy              =    -417.87128863 Ry
     estimated scf accuracy    <       0.00000006 Ry

     The total energy is the sum of the following terms:
     one-electron contribution =    -275.88450654 Ry
     hartree contribution      =     175.19216220 Ry
     xc contribution           =    -106.79836791 Ry
     ewald contribution        =    -210.38057638 Ry

     convergence has been achieved in  12 iterations

     Forces acting on atoms (cartesian axes, Ry/au):

     atom    1 type  2   force =    -0.00850787    0.00358440   -0.01107468
     atom    2 type  2   force =     0.00850787   -0.00358440    0.01107468
     atom    3 type  2   force =     0.00114975   -0.00916023   -0.01107468
     atom    4 type  2   force =    -0.00114975    0.00916023    0.01107468
     atom    5 type  2   force =     0.00735812    0.00557583   -0.01107468
     atom    6 type  2   force =    -0.00735812   -0.00557583    0.01107468
     atom    7 type  2   force =     0.01991366   -0.00754490    0.00792724
     atom    8 type  2   force =    -0.01991366    0.00754490   -0.00792724
     atom    9 type  2   force =    -0.00342275    0.02101819    0.00792724
     atom   10 type  2   force =     0.00342275   -0.02101819   -0.00792724
     atom   11 type  2   force =    -0.01649091   -0.01347329    0.00792724
     atom   12 type  2   force =     0.01649091    0.01347329   -0.00792724
     atom   13 type  1   force =    -0.02088278    0.02441067   -0.07521807
     atom   14 type  1   force =     0.02088278   -0.02441067    0.07521807
     atom   15 type  1   force =    -0.01069887   -0.03029035   -0.07521807
     atom   16 type  1   force =     0.01069887    0.03029035    0.07521807
     atom   17 type  1   force =     0.03158165    0.00587968   -0.07521807
     atom   18 type  1   force =    -0.03158165   -0.00587968    0.07521807
     atom   19 type  1   force =     0.03353150   -0.03542593    0.07373309
     atom   20 type  1   force =    -0.03353150    0.03542593   -0.07373309
     atom   21 type  1   force =     0.01391400    0.04675210    0.07373309
     atom   22 type  1   force =    -0.01391400   -0.04675210   -0.07373309
     atom   23 type  1   force =    -0.04744551   -0.01132617    0.07373309
     atom   24 type  1   force =     0.04744551    0.01132617   -0.07373309
     atom   25 type  1   force =     0.00268197    0.05863402    0.01023131
     atom   26 type  1   force =    -0.00268197   -0.05863402   -0.01023131
     atom   27 type  1   force =    -0.05211954   -0.02699436    0.01023131
     atom   28 type  1   force =     0.05211954    0.02699436   -0.01023131
     atom   29 type  1   force =     0.04943757   -0.03163967    0.01023131
     atom   30 type  1   force =    -0.04943757    0.03163967   -0.01023131
     atom   31 type  1   force =     0.01263424   -0.04611170   -0.01663477
     atom   32 type  1   force =    -0.01263424    0.04611170    0.01663477
     atom   33 type  1   force =     0.03361679    0.03399742   -0.01663477
     atom   34 type  1   force =    -0.03361679   -0.03399742    0.01663477
     atom   35 type  1   force =    -0.04625103    0.01211428   -0.01663477
     atom   36 type  1   force =     0.04625103   -0.01211428    0.01663477

     Total force =     0.357846     Total SCF correction =     0.000347


     Computing stress (Cartesian axis) and pressure

          total   stress  (Ry/bohr**3)                   (kbar)     P=      103.71
   0.00063861  -0.00000000   0.00000000           93.94       -0.00        0.00
   0.00000000   0.00063861   0.00000000            0.00       93.94        0.00
  -0.00000000   0.00000000   0.00083772           -0.00        0.00      123.23


     BFGS Geometry Optimization
     Energy error            =      0.0E+00 Ry
     Gradient error          =      7.5E-02 Ry/Bohr

     number of scf cycles    =   1
     number of bfgs steps    =   0

     energy             new  =    -417.8712886347 Ry

     new trust radius        =       0.0884077259 bohr
     new conv_thr            =       0.0000001000 Ry


ATOMIC_POSITIONS (crystal)
O                0.2715716538        0.0231977836        0.8532955924
O                0.7284283462        0.9768022274        0.1467043776
O                0.8532955924        0.2715716538        0.0231977836
O                0.1467043776        0.7284283462        0.9768022274
O                0.0231977836        0.8532955924        0.2715716538
O                0.9768022274        0.1467043776        0.7284283462
O                0.4797328646        0.7503296027        0.3320383339
O                0.5202671354        0.2496703973        0.6679616361
O                0.3320383339        0.4797328646        0.7503296027
O                0.6679616361        0.5202671354        0.2496703973
O                0.7503296027        0.3320383339        0.4797328646
O                0.2496703973        0.6679616361        0.5202671354
H                0.1568672592        0.0635546586        0.8036442532
H                0.8431327268        0.9364453334        0.1963557468
H                0.8036442532        0.1568672592        0.0635546586
H                0.1963557468        0.8431327268        0.9364453334
H                0.0635546586        0.8036442532        0.1568672592
H                0.9364453334        0.1963557468        0.8431327268
H                0.4218103047        0.2097729876        1.0029569665
H                0.5781896953        0.7902270274       -0.0029569875
H                1.0029569665        0.4218103047        0.2097729876
H               -0.0029569875        0.5781896953        0.7902270274
H                0.2097729876        1.0029569665        0.4218103047
H                0.7902270274       -0.0029569875        0.5781896953
H                0.7185775885        0.4047844392        0.3943493980
H                0.2814224115        0.5952155308        0.6056506320
H                0.3943493980        0.7185775885        0.4047844392
H                0.6056506320        0.2814224115        0.5952155308
H                0.4047844392        0.3943493980        0.7185775885
H                0.5952155308        0.6056506320        0.2814224115
H                0.7412007757        0.1992650887        0.3591256949
H                0.2587992243        0.8007348963        0.6408743051
H                0.3591256949        0.7412007757        0.1992650887
H                0.6408743051        0.2587992243        0.8007348963
H                0.1992650887        0.3591256949        0.7412007757
H                0.8007348963        0.6408743051        0.2587992243



     Writing config-only to output data dir ./iceII/iceII.save/ :
     XML data file
     NEW-OLD atomic charge density approx. for the potential

     total cpu time spent up to now is       15.5 secs

     per-process dynamical memory:    21.2 Mb

     Self-consistent Calculation

     iteration #  1     ecut=    90.00 Ry     beta= 0.70
     Davidson diagonalization with overlap
     ethr =  1.00E-06,  avg # of iterations =  7.0

     total cpu time spent up to now is       17.1 secs

     total energy              =    -417.94800500 Ry
     estimated scf accuracy    <       0.01295965 Ry

     iteration #  2     ecut=    90.00 Ry     beta= 0.70
     Davidson diagonalization with overlap
     ethr =  1.35E-05,  avg # of iterations =  3.0

     total cpu time spent up to now is       18.1 secs

     total energy              =    -417.95166813 Ry
     estimated scf accuracy    <       0.00503679 Ry

     iteration #  3     ecut=    90.00 Ry     beta= 0.70
     Davidson diagonalization with overlap
     ethr =  5.25E-06,  avg # of iterations =  2.0

     total cpu time spent up to now is       19.0 secs

     total energy              =    -417.95246903 Ry
     estimated scf accuracy    <       0.00015689 Ry

     iteration #  4     ecut=    90.00 Ry     beta= 0.70
     Davidson diagonalization with overlap
     ethr =  1.63E-07,  avg # of iterations =  4.3

     total cpu time spent up to now is       20.1 secs

     total energy              =    -417.95256805 Ry
     estimated scf accuracy    <       0.00016179 Ry

     iteration #  5     ecut=    90.00 Ry     beta= 0.70
     Davidson diagonalization with overlap
     ethr =  1.63E-07,  avg # of iterations =  2.0

     total cpu time spent up to now is       21.0 secs

     total energy              =    -417.95257909 Ry
     estimated scf accuracy    <       0.00001824 Ry

     iteration #  6     ecut=    90.00 Ry     beta= 0.70
     Davidson diagonalization with overlap
     ethr =  1.90E-08,  avg # of iterations =  3.9

     total cpu time spent up to now is       22.1 secs

     total energy              =    -417.95258802 Ry
     estimated scf accuracy    <       0.00001211 Ry

     iteration #  7     ecut=    90.00 Ry     beta= 0.70
     Davidson diagonalization with overlap
     ethr =  1.26E-08,  avg # of iterations =  2.0

     total cpu time spent up to now is       23.0 secs

     total energy              =    -417.95258926 Ry
     estimated scf accuracy    <       0.00000085 Ry

     iteration #  8     ecut=    90.00 Ry     beta= 0.70
     Davidson diagonalization with overlap
     ethr =  8.91E-10,  avg # of iterations =  3.0

     total cpu time spent up to now is       24.0 secs

     End of self-consistent calculation

          k = 0.0000 0.0000 0.0000 ( 26051 PWs)   bands (ev):

   -20.8626 -20.2321 -20.2321 -19.9427 -19.9427 -19.9050 -19.9050 -19.8815
   -19.8798 -19.4667 -19.4667 -19.0379  -8.2074  -7.9720  -7.9720  -7.9063
    -7.7695  -7.7695  -7.5440  -7.2511  -7.2511  -7.0748  -7.0748  -6.9224
    -6.8482  -5.6910  -5.6910  -4.9961  -4.9961  -4.9713  -4.9713  -4.5474
    -4.3764  -3.6474  -3.6474  -2.8865  -2.4954  -2.4954  -2.3487  -2.2812
    -2.2170  -2.2170  -2.0737  -2.0737  -2.0223  -2.0032  -1.9633  -1.9633

          k =-0.1498-0.0865 0.3111 ( 26044 PWs)   bands (ev):

   -20.7642 -20.2863 -20.2165 -20.1372 -20.0981 -20.0000 -19.8158 -19.7582
   -19.6782 -19.4759 -19.4186 -19.1205  -8.1383  -8.0620  -7.9832  -7.8663
    -7.7576  -7.7123  -7.4987  -7.2792  -7.2158  -7.1113  -6.9571  -6.9183
    -6.6283  -5.8786  -5.6844  -5.4335  -5.1242  -4.8090  -4.7510  -4.4210
    -4.3881  -3.6343  -3.5586  -3.0604  -2.6447  -2.5615  -2.3867  -2.3621
    -2.2752  -2.2060  -2.1728  -2.1025  -2.0397  -1.9850  -1.9508  -1.8909

          k = 0.2996 0.1730-0.6221 ( 26018 PWs)   bands (ev):

   -20.5219 -20.4879 -20.2625 -20.2380 -20.1039 -20.0841 -19.7483 -19.7259
   -19.5052 -19.4676 -19.3276 -19.3110  -8.1001  -8.0456  -7.9499  -7.9118
    -7.7721  -7.7190  -7.4076  -7.2681  -7.1983  -7.1546  -6.8410  -6.8332
    -6.2947  -6.1643  -5.7217  -5.6837  -5.1057  -5.0271  -4.6285  -4.4654
    -3.8591  -3.8478  -3.4958  -3.2883  -2.7762  -2.6047  -2.4476  -2.4087
    -2.3281  -2.2609  -2.1852  -2.1429  -2.0907  -1.9642  -1.9083  -1.8399

          k =-0.1498 0.0865 0.6221 ( 26001 PWs)   bands (ev):

   -20.5646 -20.3755 -20.3527 -20.1917 -20.1606 -20.0737 -19.7519 -19.6390
   -19.5862 -19.4231 -19.3957 -19.2691  -8.1105  -8.0218  -7.9968  -7.8700
    -7.7893  -7.6813  -7.4196  -7.3323  -7.2550  -6.9837  -6.9055  -6.8372
    -6.3012  -6.0763  -5.9548  -5.4380  -5.2334  -5.0555  -4.5627  -4.3397
    -4.1517  -3.6223  -3.5394  -3.3163  -2.7527  -2.6514  -2.4421  -2.3448
    -2.3184  -2.2727  -2.2211  -2.1233  -2.1004  -1.9709  -1.9183  -1.8288

          k = 0.2996 0.3460-0.3111 ( 26027 PWs)   bands (ev):

   -20.6344 -20.4133 -20.2957 -20.2195 -20.1172 -20.0324 -19.7529 -19.6262
   -19.5643 -19.4914 -19.3806 -19.2399  -8.1222  -8.0845  -7.9152  -7.9041
    -7.8257  -7.7184  -7.4968  -7.4079  -7.2612  -6.9430  -6.9176  -6.7992
    -6.4670  -6.0795  -5.8061  -5.4985  -5.4121  -4.8039  -4.5071  -4.2758
    -4.0399  -3.7642  -3.5396  -3.2568  -2.6260  -2.5600  -2.4453  -2.3735
    -2.2891  -2.2215  -2.1757  -2.1519  -2.0613  -2.0211  -1.9173  -1.8074

          k = 0.1498 0.2595 0.0000 ( 25995 PWs)   bands (ev):

   -20.7914 -20.3407 -20.2619 -20.0876 -20.0523 -19.9435 -19.8338 -19.7383
   -19.6813 -19.4831 -19.4346 -19.1049  -8.1823  -8.0626  -7.9768  -7.8617
    -7.7496  -7.7393  -7.6309  -7.3682  -7.1971  -7.0685  -6.9642  -6.8334
    -6.7971  -5.8060  -5.6732  -5.4375  -5.3336  -4.7101  -4.5330  -4.4258
    -4.2331  -3.7201  -3.6366  -2.9733  -2.5008  -2.4695  -2.4160  -2.3326
    -2.2719  -2.2367  -2.1046  -2.0781  -2.0427  -2.0378  -1.9048  -1.8879

          k = 0.2996-0.1730-1.2442 ( 26010 PWs)   bands (ev):

   -20.6216 -20.5641 -20.2858 -20.1515 -20.0528 -19.9701 -19.7551 -19.7128
   -19.5507 -19.5351 -19.2860 -19.2665  -8.1562  -8.1023  -7.9516  -7.8885
    -7.7680  -7.7455  -7.6033  -7.4797  -7.2034  -7.0849  -6.8753  -6.8037
    -6.3260  -6.3250  -5.7790  -5.5783  -5.1967  -4.8351  -4.3551  -4.1392
    -4.0220  -3.9822  -3.4417  -3.2451  -2.5270  -2.4513  -2.4202  -2.3883
    -2.2819  -2.1864  -2.1801  -2.1061  -2.0871  -2.0356  -1.8566  -1.8414

          k = 0.0000 0.0000 0.9332 ( 25997 PWs)   bands (ev):

   -20.4879 -20.4879 -20.3906 -20.3027 -20.0643 -20.0643 -19.6452 -19.6452
   -19.4719 -19.4283 -19.3900 -19.3900  -8.0812  -8.0812  -7.9327  -7.8733
    -7.8214  -7.8214  -7.4920  -7.3721  -7.3721  -6.8304  -6.8304  -6.7622
    -6.2413  -6.2413  -6.1506  -5.5536  -5.1109  -5.1109  -4.2689  -4.0970
    -4.0970  -3.6269  -3.6269  -3.5112  -2.5628  -2.5628  -2.4113  -2.3444
    -2.2530  -2.2530  -2.1657  -2.1486  -2.1486  -1.9891  -1.9891  -1.7785

          k = 0.4494 0.2595 0.0000 ( 26019 PWs)   bands (ev):

   -20.6591 -20.4351 -20.4196 -20.1538 -19.9747 -19.9583 -19.7837 -19.7669
   -19.5526 -19.4355 -19.3882 -19.2248  -8.1436  -8.0922  -8.0145  -7.8253
    -7.7921  -7.7509  -7.5997  -7.4328  -7.3093  -6.9685  -6.8864  -6.8428
    -6.4842  -6.0214  -5.9698  -5.5474  -5.1739  -4.8293  -4.3293  -4.3052
    -4.0274  -3.7401  -3.5977  -3.2060  -2.4987  -2.4864  -2.4074  -2.3893
    -2.2940  -2.2205  -2.1440  -2.1201  -2.0563  -1.9976  -1.9288  -1.8162

          k = 0.2996 0.1730 0.3111 ( 26032 PWs)   bands (ev):

   -20.6970 -20.3493 -20.2377 -20.2173 -20.1005 -20.0200 -19.7710 -19.7223
   -19.6330 -19.4607 -19.3854 -19.1734  -8.1452  -8.0821  -7.9873  -7.8362
    -7.8072  -7.6394  -7.5484  -7.3559  -7.1680  -7.0960  -6.9986  -6.8714
    -6.4982  -5.8628  -5.6668  -5.5613  -5.3927  -4.8627  -4.5553  -4.3195
    -4.1958  -3.6785  -3.5615  -3.0970  -2.6528  -2.5805  -2.4712  -2.4217
    -2.2855  -2.2601  -2.1396  -2.1223  -2.0301  -1.9672  -1.8985  -1.8605

          k = 0.4494-0.2595-0.9332 ( 26032 PWs)   bands (ev):

   -20.5259 -20.5105 -20.3324 -20.2438 -20.0847 -19.9802 -19.8228 -19.6977
   -19.5146 -19.4329 -19.3679 -19.2527  -8.1729  -8.0560  -8.0063  -7.8330
    -7.7879  -7.6723  -7.5586  -7.3449  -7.1979  -7.1437  -6.9263  -6.8685
    -6.1575  -6.1345  -5.7662  -5.6279  -5.3610  -4.9388  -4.5396  -4.2196
    -3.8831  -3.7334  -3.6079  -3.1909  -2.6425  -2.5996  -2.5552  -2.4181
    -2.3766  -2.2839  -2.1004  -2.0639  -2.0419  -1.9887  -1.8957  -1.8087

          k = 0.2996-0.3460-0.6221 ( 26052 PWs)   bands (ev):

   -20.4727 -20.4364 -20.3068 -20.2981 -20.1273 -20.1173 -19.7175 -19.7063
   -19.4949 -19.4835 -19.3313 -19.2899  -8.1863  -7.9704  -7.9250  -7.9002
    -7.8548  -7.6289  -7.4397  -7.3744  -7.1330  -7.1118  -6.8994  -6.8931
    -6.1081  -6.0043  -5.7816  -5.7102  -5.2998  -5.2447  -4.3955  -4.3088
    -3.9018  -3.8539  -3.5472  -3.2078  -2.8038  -2.6281  -2.5538  -2.4645
    -2.3824  -2.2593  -2.1382  -2.1130  -2.0839  -1.9404  -1.9070  -1.7907

          k = 0.0000 0.0000-1.8663 ( 26100 PWs)   bands (ev):

   -20.4095 -20.3669 -20.3003 -20.3003 -20.2370 -20.2370 -19.5968 -19.5968
   -19.5763 -19.5763 -19.3188 -19.2641  -8.2424  -7.9058  -7.9058  -7.8804
    -7.8804  -7.6636  -7.4523  -7.4054  -7.0228  -7.0228  -7.0178  -7.0178
    -5.8547  -5.8429  -5.6718  -5.6718  -5.5968  -5.5968  -4.1270  -4.1270
    -3.9926  -3.9926  -3.5248  -3.1509  -2.8224  -2.6339  -2.6339  -2.5201
    -2.5201  -2.2069  -2.1335  -2.0366  -2.0366  -1.9461  -1.9461  -1.7466

          k = 0.2996-0.3460 0.3111 ( 26027 PWs)   bands (ev):

   -20.6337 -20.4207 -20.2691 -20.2409 -20.1146 -20.0346 -19.7477 -19.6127
   -19.5996 -19.4655 -19.3882 -19.2405  -8.1349  -8.0533  -7.9592  -7.8733
    -7.8106  -7.7303  -7.5577  -7.3563  -7.2389  -7.0025  -6.8751  -6.8177
    -6.4489  -6.0200  -5.9150  -5.4965  -5.3046  -4.8783  -4.6096  -4.1509
    -3.9647  -3.7798  -3.6567  -3.2102  -2.6408  -2.5169  -2.4634  -2.3679
    -2.3189  -2.2156  -2.1722  -2.1467  -2.0931  -1.9808  -1.9192  -1.8165

     highest occupied level (ev):    -1.7466

!    total energy              =    -417.95258960 Ry
     estimated scf accuracy    <          5.2E-09 Ry

     The total energy is the sum of the following terms:
     one-electron contribution =    -270.42001927 Ry
     hartree contribution      =     172.81523300 Ry
     xc contribution           =    -106.27131499 Ry
     ewald contribution        =    -214.07648835 Ry

     convergence has been achieved in   8 iterations

     Forces acting on atoms (cartesian axes, Ry/au):

     atom    1 type  2   force =    -0.01435656    0.02995279    0.02917396
     atom    2 type  2   force =     0.01435656   -0.02995279   -0.02917396
     atom    3 type  2   force =    -0.01876160   -0.02740954    0.02917396
     atom    4 type  2   force =     0.01876160    0.02740954   -0.02917396
     atom    5 type  2   force =     0.03311816   -0.00254325    0.02917396
     atom    6 type  2   force =    -0.03311816    0.00254325   -0.02917396
     atom    7 type  2   force =    -0.02869504    0.00962190   -0.01487059
     atom    8 type  2   force =     0.02869504   -0.00962190    0.01487059
     atom    9 type  2   force =     0.00601472   -0.02966159   -0.01487059
     atom   10 type  2   force =    -0.00601472    0.02966159    0.01487059
     atom   11 type  2   force =     0.02268033    0.02003969   -0.01487059
     atom   12 type  2   force =    -0.02268033   -0.02003969    0.01487059
     atom   13 type  1   force =    -0.00718812   -0.00293203   -0.04714603
     atom   14 type  1   force =     0.00718812    0.00293203    0.04714603
     atom   15 type  1   force =     0.00613327   -0.00475908   -0.04714603
     atom   16 type  1   force =    -0.00613327    0.00475908    0.04714603
     atom   17 type  1   force =     0.00105485    0.00769111   -0.04714603
     atom   18 type  1   force =    -0.00105485   -0.00769111    0.04714603
     atom   19 type  1   force =     0.02674970   -0.03377532    0.00660549
     atom   20 type  1   force =    -0.02674970    0.03377532   -0.00660549
     atom   21 type  1   force =     0.01587543    0.04005358    0.00660549
     atom   22 type  1   force =    -0.01587543   -0.04005358   -0.00660549
     atom   23 type  1   force =    -0.04262513   -0.00627826    0.00660549
     atom   24 type  1   force =     0.04262513    0.00627826   -0.00660549
     atom   25 type  1   force =    -0.01257971    0.00138467    0.01448440
     atom   26 type  1   force =     0.01257971   -0.00138467   -0.01448440
     atom   27 type  1   force =     0.00509070   -0.01158669    0.01448440
     atom   28 type  1   force =    -0.00509070    0.01158669   -0.01448440
     atom   29 type  1   force =     0.00748902    0.01020202    0.01448440
     atom   30 type  1   force =    -0.00748902   -0.01020202   -0.01448440
     atom   31 type  1   force =    -0.01190336   -0.02264214    0.00303483
     atom   32 type  1   force =     0.01190336    0.02264214   -0.00303483
     atom   33 type  1   force =     0.02556035    0.00101246    0.00303483
     atom   34 type  1   force =    -0.02556035   -0.00101246   -0.00303483
     atom   35 type  1   force =    -0.01365699    0.02162968    0.00303483
     atom   36 type  1   force =     0.01365699   -0.02162968   -0.00303483

     Total force =     0.223267     Total SCF correction =     0.000066


     Computing stress (Cartesian axis) and pressure

          total   stress  (Ry/bohr**3)                   (kbar)     P=       41.31
   0.00024709   0.00000000  -0.00000000           36.35        0.00       -0.00
  -0.00000000   0.00024709   0.00000000           -0.00       36.35        0.00
   0.00000000   0.00000000   0.00034830            0.00        0.00       51.24

     Energy error            =      8.1E-02 Ry
     Gradient error          =      4.7E-02 Ry/Bohr

     number of scf cycles    =   2
     number of bfgs steps    =   1

     energy             old  =    -417.8712886347 Ry
     energy             new  =    -417.9525896025 Ry

     CASE: energy            _new < energy            _old

     new trust radius        =       0.1160130083 bohr
     new conv_thr            =       0.0000000471 Ry


ATOMIC_POSITIONS (crystal)
O                0.2724560565        0.0284865452        0.8563655051
O                0.7275439435        0.9715134658        0.1436344649
O                0.8563655051        0.2724560565        0.0284865452
O                0.1436344649        0.7275439435        0.9715134658
O                0.0284865452        0.8563655051        0.2724560565
O                0.9715134658        0.1436344649        0.7275439435
O                0.4768359659        0.7493306087        0.3315920303
O                0.5231640341        0.2506693913        0.6684079397
O                0.3315920303        0.4768359659        0.7493306087
O                0.6684079397        0.5231640341        0.2506693913
O                0.7493306087        0.3315920303        0.4768359659
O                0.2506693913        0.6684079397        0.5231640341
H                0.1456250589        0.0540810186        0.7943597575
H                0.8543749271        0.9459189734        0.2056402425
H                0.7943597575        0.1456250589        0.0540810186
H                0.2056402425        0.8543749271        0.9459189734
H                0.0540810186        0.7943597575        0.1456250589
H                0.9459189734        0.2056402425        0.8543749271
H                0.4308296088        0.2111510598        1.0069858249
H                0.5691703912        0.7888489552       -0.0069858459
H                1.0069858249        0.4308296088        0.2111510598
H               -0.0069858459        0.5691703912        0.7888489552
H                0.2111510598        1.0069858249        0.4308296088
H                0.7888489552       -0.0069858459        0.5691703912
H                0.7193334833        0.4090178076        0.3964937715
H                0.2806665167        0.5909821624        0.6035062585
H                0.3964937715        0.7193334833        0.4090178076
H                0.6035062585        0.2806665167        0.5909821624
H                0.4090178076        0.3964937715        0.7193334833
H                0.5909821624        0.6035062585        0.2806665167
H                0.7417769540        0.1957802206        0.3604912575
H                0.2582230460        0.8042197644        0.6395087425
H                0.3604912575        0.7417769540        0.1957802206
H                0.6395087425        0.2582230460        0.8042197644
H                0.1957802206        0.3604912575        0.7417769540
H                0.8042197644        0.6395087425        0.2582230460



     Writing config-only to output data dir ./iceII/iceII.save/ :
     XML data file
     NEW-OLD atomic charge density approx. for the potential

     total cpu time spent up to now is       25.3 secs

     per-process dynamical memory:    21.2 Mb

     Self-consistent Calculation

     iteration #  1     ecut=    90.00 Ry     beta= 0.70
     Davidson diagonalization with overlap
     ethr =  1.00E-06,  avg # of iterations =  7.3

     total cpu time spent up to now is       27.2 secs

     total energy              =    -418.01190595 Ry
     estimated scf accuracy    <       0.00458043 Ry

     iteration #  2     ecut=    90.00 Ry     beta= 0.70
     Davidson diagonalization with overlap
     ethr =  4.77E-06,  avg # of iterations =  2.0

     total cpu time spent up to now is       28.0 secs

     total energy              =    -418.01261000 Ry
     estimated scf accuracy    <       0.00032381 Ry

     iteration #  3     ecut=    90.00 Ry     beta= 0.70
     Davidson diagonalization with overlap
     ethr =  3.37E-07,  avg # of iterations =  2.0

     total cpu time spent up to now is       28.9 secs

     total energy              =    -418.01266224 Ry
     estimated scf accuracy    <       0.00003278 Ry

     iteration #  4     ecut=    90.00 Ry     beta= 0.70
     Davidson diagonalization with overlap
     ethr =  3.41E-08,  avg # of iterations =  2.5

     total cpu time spent up to now is       29.8 secs

     total energy              =    -418.01266942 Ry
     estimated scf accuracy    <       0.00000340 Ry

     iteration #  5     ecut=    90.00 Ry     beta= 0.70
     Davidson diagonalization with overlap
     ethr =  3.54E-09,  avg # of iterations =  2.3

     total cpu time spent up to now is       30.7 secs

     total energy              =    -418.01267014 Ry
     estimated scf accuracy    <       0.00000011 Ry

     iteration #  6     ecut=    90.00 Ry     beta= 0.70
     Davidson diagonalization with overlap
     ethr =  1.11E-10,  avg # of iterations =  4.2

     total cpu time spent up to now is       31.8 secs

     End of self-consistent calculation

          k = 0.0000 0.0000 0.0000 ( 26051 PWs)   bands (ev):

   -20.7485 -20.1173 -20.1173 -19.8071 -19.8071 -19.7791 -19.7791 -19.7562
   -19.7492 -19.3278 -19.3278 -18.9020  -8.2705  -8.1047  -8.1047  -8.0006
    -7.8801  -7.8801  -7.5887  -7.4565  -7.4565  -7.4128  -7.4128  -7.2316
    -6.9202  -5.4904  -5.4904  -4.8323  -4.8323  -4.6888  -4.6888  -4.3127
    -4.2478  -3.4611  -3.4611  -2.6910  -2.4547  -2.4547  -2.3520  -2.2182
    -2.2132  -2.2132  -2.0678  -2.0678  -2.0123  -1.9227  -1.9037  -1.9037

          k =-0.1498-0.0865 0.3111 ( 26044 PWs)   bands (ev):

   -20.6494 -20.1672 -20.1070 -20.0033 -19.9688 -19.8761 -19.6871 -19.6238
   -19.5470 -19.3390 -19.2814 -18.9838  -8.2104  -8.1456  -8.0939  -7.9850
    -7.8725  -7.8248  -7.6185  -7.5336  -7.4391  -7.3689  -7.3088  -7.2447
    -6.6259  -5.7036  -5.5139  -5.2083  -4.9801  -4.6043  -4.4885  -4.2393
    -4.1270  -3.4544  -3.3600  -2.8725  -2.5824  -2.5134  -2.3734  -2.3256
    -2.2705  -2.1952  -2.1093  -2.0707  -1.9993  -1.9670  -1.9124  -1.8658

          k = 0.2996 0.1730-0.6221 ( 26018 PWs)   bands (ev):

   -20.4163 -20.3582 -20.1528 -20.0966 -19.9899 -19.9545 -19.6248 -19.5819
   -19.3861 -19.3233 -19.2018 -19.1631  -8.1581  -8.1386  -8.0592  -8.0035
    -7.8911  -7.8240  -7.6004  -7.5375  -7.4381  -7.4166  -7.1901  -7.1679
    -6.1566  -6.0301  -5.5589  -5.5403  -4.9521  -4.8797  -4.3119  -4.1832
    -3.6660  -3.6297  -3.3016  -3.1391  -2.6681  -2.5583  -2.4323  -2.3631
    -2.2968  -2.2251  -2.1540  -2.1088  -2.0689  -1.9475  -1.8732  -1.8274

          k =-0.1498 0.0865 0.6221 ( 26001 PWs)   bands (ev):

   -20.4509 -20.2555 -20.2302 -20.0702 -20.0315 -19.9497 -19.6200 -19.5090
   -19.4524 -19.2907 -19.2602 -19.1289  -8.1617  -8.1195  -8.0913  -7.9982
    -7.8871  -7.7929  -7.5890  -7.5719  -7.5207  -7.2782  -7.2366  -7.1805
    -6.1790  -5.9047  -5.8220  -5.2842  -5.0720  -4.8955  -4.2776  -4.0513
    -3.9203  -3.4471  -3.3503  -3.1513  -2.6586  -2.5920  -2.4236  -2.3110
    -2.2747  -2.2449  -2.1877  -2.0861  -2.0812  -1.9541  -1.8873  -1.8126

          k = 0.2996 0.3460-0.3111 ( 26027 PWs)   bands (ev):

   -20.5190 -20.2965 -20.1867 -20.0868 -19.9821 -19.9054 -19.6267 -19.5064
   -19.4097 -19.3719 -19.2393 -19.1017  -8.1732  -8.1544  -8.0447  -7.9952
    -7.9221  -7.8270  -7.7129  -7.6590  -7.5443  -7.2673  -7.2251  -7.1489
    -6.3091  -5.8812  -5.5872  -5.3564  -5.2645  -4.6433  -4.1822  -4.0591
    -3.8737  -3.5600  -3.3271  -3.0711  -2.5590  -2.5231  -2.4208  -2.3572
    -2.2633  -2.1779  -2.1518  -2.1259  -2.0389  -1.9956  -1.8765  -1.7775

          k = 0.1498 0.2595 0.0000 ( 25995 PWs)   bands (ev):

   -20.6768 -20.2271 -20.1474 -19.9576 -19.9182 -19.8089 -19.7100 -19.6136
   -19.5508 -19.3447 -19.2935 -18.9686  -8.2404  -8.1358  -8.0912  -7.9655
    -7.8761  -7.8711  -7.7830  -7.5935  -7.4905  -7.3613  -7.2744  -7.2030
    -6.6801  -5.5744  -5.4857  -5.2399  -5.1594  -4.5083  -4.3019  -4.1787
    -4.0797  -3.5119  -3.4550  -2.7549  -2.4648  -2.4341  -2.4177  -2.3269
    -2.2506  -2.2068  -2.0880  -2.0476  -2.0395  -1.9722  -1.8608  -1.8346

          k = 0.2996-0.1730-1.2442 ( 26010 PWs)   bands (ev):

   -20.5036 -20.4521 -20.1720 -20.0203 -19.9244 -19.8315 -19.6354 -19.5854
   -19.4231 -19.3913 -19.1526 -19.1236  -8.2048  -8.1443  -8.0453  -7.9723
    -7.9286  -7.9003  -7.8000  -7.7022  -7.5232  -7.3598  -7.2244  -7.1575
    -6.1241  -6.1158  -5.5495  -5.4486  -5.0136  -4.6414  -4.1096  -3.9825
    -3.8163  -3.7457  -3.2495  -3.0331  -2.5027  -2.4289  -2.3834  -2.3814
    -2.2800  -2.1466  -2.1381  -2.0788  -2.0756  -1.9949  -1.8084  -1.8016

          k = 0.0000 0.0000 0.9332 ( 25997 PWs)   bands (ev):

   -20.3685 -20.3685 -20.2966 -20.1569 -19.9354 -19.9354 -19.5180 -19.5180
   -19.3592 -19.2672 -19.2544 -19.2544  -8.1433  -8.1433  -8.0470  -8.0060
    -7.9182  -7.9182  -7.7048  -7.6354  -7.6354  -7.1706  -7.1706  -7.1207
    -6.0410  -6.0410  -5.8634  -5.4632  -4.9668  -4.9668  -3.9456  -3.8695
    -3.8695  -3.4227  -3.4227  -3.3566  -2.5138  -2.5138  -2.3862  -2.3355
    -2.2219  -2.2219  -2.1318  -2.1318  -2.1302  -1.9498  -1.9498  -1.7446

          k = 0.4494 0.2595 0.0000 ( 26019 PWs)   bands (ev):

   -20.5434 -20.3172 -20.3086 -20.0179 -19.8552 -19.8198 -19.6616 -19.6324
   -19.4279 -19.2989 -19.2461 -19.0864  -8.1922  -8.1408  -8.0823  -7.9629
    -7.9313  -7.8876  -7.7891  -7.6721  -7.6025  -7.2907  -7.2104  -7.1947
    -6.2949  -5.7834  -5.7516  -5.4341  -4.9801  -4.6265  -4.1337  -4.1077
    -3.7938  -3.5247  -3.4101  -2.9949  -2.4774  -2.4489  -2.3879  -2.3853
    -2.2701  -2.1919  -2.1281  -2.0971  -2.0189  -1.9581  -1.8863  -1.7699

          k = 0.2996 0.1730 0.3111 ( 26032 PWs)   bands (ev):

   -20.5820 -20.2340 -20.1287 -20.0834 -19.9656 -19.8942 -19.6410 -19.5998
   -19.4898 -19.3333 -19.2448 -19.0353  -8.1917  -8.1432  -8.0899  -7.9524
    -7.9115  -7.7767  -7.7467  -7.5352  -7.4699  -7.4219  -7.2973  -7.2034
    -6.4195  -5.6967  -5.5408  -5.2740  -5.2339  -4.6299  -4.3193  -4.1295
    -4.0119  -3.4808  -3.3651  -2.8919  -2.5853  -2.5411  -2.4469  -2.3805
    -2.2748  -2.2334  -2.1145  -2.0870  -2.0013  -1.9446  -1.8654  -1.8297

          k = 0.4494-0.2595-0.9332 ( 26032 PWs)   bands (ev):

   -20.4081 -20.3981 -20.2172 -20.1105 -19.9552 -19.8564 -19.6902 -19.5682
   -19.3772 -19.3074 -19.2342 -19.1075  -8.1757  -8.1276  -8.0722  -7.9579
    -7.9159  -7.8436  -7.7177  -7.6138  -7.4956  -7.4423  -7.2558  -7.2012
    -6.0354  -5.9327  -5.5709  -5.5041  -5.1281  -4.6535  -4.3734  -4.0618
    -3.6852  -3.5232  -3.4180  -2.9690  -2.5770  -2.5540  -2.5087  -2.3887
    -2.3442  -2.2777  -2.0766  -2.0426  -2.0210  -1.9582  -1.8645  -1.7758

          k = 0.2996-0.3460-0.6221 ( 26052 PWs)   bands (ev):

   -20.3690 -20.3056 -20.1938 -20.1666 -20.0035 -19.9875 -19.5923 -19.5702
   -19.3642 -19.3448 -19.2139 -19.1358  -8.1900  -8.0802  -8.0307  -7.9896
    -7.9478  -7.7560  -7.6574  -7.6164  -7.4127  -7.3979  -7.2433  -7.2286
    -5.9563  -5.8994  -5.6268  -5.5540  -5.0754  -5.0176  -4.1564  -4.0708
    -3.7194  -3.6740  -3.3553  -3.0404  -2.6731  -2.5792  -2.5138  -2.4236
    -2.3344  -2.2250  -2.1277  -2.0936  -2.0609  -1.9266  -1.8888  -1.7602

          k = 0.0000 0.0000-1.8663 ( 26100 PWs)   bands (ev):

   -20.3094 -20.2202 -20.1966 -20.1966 -20.0970 -20.0970 -19.4812 -19.4812
   -19.4268 -19.4268 -19.2046 -19.1079  -8.2118  -7.9940  -7.9940  -7.9832
    -7.9832  -7.8074  -7.7093  -7.6051  -7.3439  -7.3439  -7.3429  -7.3429
    -5.8629  -5.7134  -5.4565  -5.4565  -5.3297  -5.3297  -3.8959  -3.8959
    -3.8419  -3.8419  -3.3481  -2.9762  -2.6399  -2.5853  -2.5853  -2.4852
    -2.4852  -2.1702  -2.1307  -2.0140  -2.0140  -1.9389  -1.9389  -1.7098

          k = 0.2996-0.3460 0.3111 ( 26027 PWs)   bands (ev):

   -20.5179 -20.3080 -20.1557 -20.1082 -19.9806 -19.9088 -19.6177 -19.4950
   -19.4604 -19.3249 -19.2535 -19.1014  -8.1826  -8.1376  -8.0507  -7.9632
    -7.9385  -7.8509  -7.7584  -7.6058  -7.5353  -7.2686  -7.2275  -7.1578
    -6.3093  -5.8531  -5.6600  -5.3244  -5.1922  -4.7172  -4.3069  -3.9197
    -3.7585  -3.5945  -3.4611  -3.0134  -2.5708  -2.4881  -2.4297  -2.3585
    -2.2747  -2.1907  -2.1514  -2.1206  -2.0667  -1.9517  -1.8814  -1.7850

     highest occupied level (ev):    -1.7098

!    total energy              =    -418.01267017 Ry
     estimated scf accuracy    <       0.00000003 Ry

     The total energy is the sum of the following terms:
     one-electron contribution =    -268.79148649 Ry
     hartree contribution      =     172.11004089 Ry
     xc contribution           =    -106.21659110 Ry
     ewald contribution        =    -215.11463348 Ry

     convergence has been achieved in   6 iterations

     Forces acting on atoms (cartesian axes, Ry/au):

     atom    1 type  2   force =    -0.00576529    0.01254213    0.00986863
     atom    2 type  2   force =     0.00576529   -0.01254213   -0.00986863
     atom    3 type  2   force =    -0.00797916   -0.01126395    0.00986863
     atom    4 type  2   force =     0.00797916    0.01126395   -0.00986863
     atom    5 type  2   force =     0.01374445   -0.00127818    0.00986863
     atom    6 type  2   force =    -0.01374445    0.00127818   -0.00986863
     atom    7 type  2   force =    -0.01320834    0.01157798   -0.01671664
     atom    8 type  2   force =     0.01320834   -0.01157798    0.01671664
     atom    9 type  2   force =    -0.00342265   -0.01722775   -0.01671664
     atom   10 type  2   force =     0.00342265    0.01722775    0.01671664
     atom   11 type  2   force =     0.01663100    0.00564977   -0.01671664
     atom   12 type  2   force =    -0.01663100   -0.00564977    0.01671664
     atom   13 type  1   force =    -0.00175757   -0.00948549   -0.01160332
     atom   14 type  1   force =     0.00175757    0.00948549    0.01160332
     atom   15 type  1   force =     0.00909346    0.00322064   -0.01160332
     atom   16 type  1   force =    -0.00909346   -0.00322064    0.01160332
     atom   17 type  1   force =    -0.00733589    0.00626485   -0.01160332
     atom   18 type  1   force =     0.00733589   -0.00626485    0.01160332
     atom   19 type  1   force =     0.01352517   -0.00711344   -0.00668912
     atom   20 type  1   force =    -0.01352517    0.00711344    0.00668912
     atom   21 type  1   force =    -0.00060217    0.01526986   -0.00668912
     atom   22 type  1   force =     0.00060217   -0.01526986    0.00668912
     atom   23 type  1   force =    -0.01292301   -0.00815642   -0.00668912
     atom   24 type  1   force =     0.01292301    0.00815642    0.00668912
     atom   25 type  1   force =    -0.00239024   -0.00570179    0.00869003
     atom   26 type  1   force =     0.00239024    0.00570179   -0.00869003
     atom   27 type  1   force =     0.00613302    0.00078089    0.00869003
     atom   28 type  1   force =    -0.00613302   -0.00078089   -0.00869003
     atom   29 type  1   force =    -0.00374278    0.00492090    0.00869003
     atom   30 type  1   force =     0.00374278   -0.00492090   -0.00869003
     atom   31 type  1   force =    -0.01285564   -0.00259112    0.00649755
     atom   32 type  1   force =     0.01285564    0.00259112   -0.00649755
     atom   33 type  1   force =     0.00867180   -0.00983775    0.00649755
     atom   34 type  1   force =    -0.00867180    0.00983775   -0.00649755
     atom   35 type  1   force =     0.00418384    0.01242887    0.00649755
     atom   36 type  1   force =    -0.00418384   -0.01242887   -0.00649755

     Total force =     0.101286     Total SCF correction =     0.000194


     Computing stress (Cartesian axis) and pressure

          total   stress  (Ry/bohr**3)                   (kbar)     P=       29.05
   0.00017598  -0.00000000  -0.00000000           25.89       -0.00       -0.00
   0.00000000   0.00017598   0.00000000            0.00       25.89        0.00
   0.00000000   0.00000000   0.00024056            0.00        0.00       35.39

     Energy error            =      6.0E-02 Ry
     Gradient error          =      1.7E-02 Ry/Bohr

     number of scf cycles    =   3
     number of bfgs steps    =   2

     energy             old  =    -417.9525896025 Ry
     energy             new  =    -418.0126701749 Ry

     CASE: energy            _new < energy            _old

     new trust radius        =       0.0453808471 bohr
     new conv_thr            =       0.0000000172 Ry


ATOMIC_POSITIONS (crystal)
O                0.2725544041        0.0306460333        0.8574777098
O                0.7274455959        0.9693539777        0.1425222602
O                0.8574777098        0.2725544041        0.0306460333
O                0.1425222602        0.7274455959        0.9693539777
O                0.0306460333        0.8574777098        0.2725544041
O                0.9693539777        0.1425222602        0.7274455959
O                0.4739390787        0.7481106928        0.3299264988
O                0.5260609213        0.2518893072        0.6700734712
O                0.3299264988        0.4739390787        0.7481106928
O                0.6700734712        0.5260609213        0.2518893072
O                0.7481106928        0.3299264988        0.4739390787
O                0.2518893072        0.6700734712        0.5260609213
H                0.1414656163        0.0499206772        0.7910226322
H                0.8585343697        0.9500793148        0.2089773678
H                0.7910226322        0.1414656163        0.0499206772
H                0.2089773678        0.8585343697        0.9500793148
H                0.0499206772        0.7910226322        0.1414656163
H                0.9500793148        0.2089773678        0.8585343697
H                0.4340628492        0.2112683657        1.0075295087
H                0.5659371508        0.7887316493       -0.0075295297
H                1.0075295087        0.4340628492        0.2112683657
H               -0.0075295297        0.5659371508        0.7887316493
H                0.2112683657        1.0075295087        0.4340628492
H                0.7887316493       -0.0075295297        0.5659371508
H                0.7203722295        0.4110054157        0.3978372939
H                0.2796277705        0.5889945543        0.6021627361
H                0.3978372939        0.7203722295        0.4110054157
H                0.6021627361        0.2796277705        0.5889945543
H                0.4110054157        0.3978372939        0.7203722295
H                0.5889945543        0.6021627361        0.2796277705
H                0.7419938450        0.1951377095        0.3619639092
H                0.2580061550        0.8048622755        0.6380360908
H                0.3619639092        0.7419938450        0.1951377095
H                0.6380360908        0.2580061550        0.8048622755
H                0.1951377095        0.3619639092        0.7419938450
H                0.8048622755        0.6380360908        0.2580061550



     Writing config-only to output data dir ./iceII/iceII.save/ :
     XML data file
     NEW-OLD atomic charge density approx. for the potential

     total cpu time spent up to now is       33.0 secs

     per-process dynamical memory:    21.2 Mb

     Self-consistent Calculation

     iteration #  1     ecut=    90.00 Ry     beta= 0.70
     Davidson diagonalization with overlap
     ethr =  1.00E-06,  avg # of iterations =  7.0

     total cpu time spent up to now is       34.6 secs

     total energy              =    -418.02090181 Ry
     estimated scf accuracy    <       0.00168004 Ry

     iteration #  2     ecut=    90.00 Ry     beta= 0.70
     Davidson diagonalization with overlap
     ethr =  1.75E-06,  avg # of iterations =  2.0

     total cpu time spent up to now is       35.5 secs

     total energy              =    -418.02125940 Ry
     estimated scf accuracy    <       0.00025373 Ry

     iteration #  3     ecut=    90.00 Ry     beta= 0.70
     Davidson diagonalization with overlap
     ethr =  2.64E-07,  avg # of iterations =  2.0

     total cpu time spent up to now is       36.4 secs

     total energy              =    -418.02131341 Ry
     estimated scf accuracy    <       0.00001298 Ry

     iteration #  4     ecut=    90.00 Ry     beta= 0.70
     Davidson diagonalization with overlap
     ethr =  1.35E-08,  avg # of iterations =  2.0

     total cpu time spent up to now is       37.2 secs

     total energy              =    -418.02131511 Ry
     estimated scf accuracy    <       0.00000175 Ry

     iteration #  5     ecut=    90.00 Ry     beta= 0.70
     Davidson diagonalization with overlap
     ethr =  1.82E-09,  avg # of iterations =  2.4

     total cpu time spent up to now is       38.2 secs

     total energy              =    -418.02131562 Ry
     estimated scf accuracy    <       0.00000019 Ry

     iteration #  6     ecut=    90.00 Ry     beta= 0.70
     Davidson diagonalization with overlap
     ethr =  1.93E-10,  avg # of iterations =  2.1

     total cpu time spent up to now is       39.0 secs

     total energy              =    -418.02131564 Ry
     estimated scf accuracy    <       0.00000004 Ry

     iteration #  7     ecut=    90.00 Ry     beta= 0.70
     Davidson diagonalization with overlap
     ethr =  3.73E-11,  avg # of iterations =  3.0

     total cpu time spent up to now is       40.2 secs

     total energy              =    -418.02131565 Ry
     estimated scf accuracy    <       0.00000002 Ry

     iteration #  8     ecut=    90.00 Ry     beta= 0.70
     Davidson diagonalization with overlap
     ethr =  2.16E-11,  avg # of iterations =  2.0

     total cpu time spent up to now is       41.1 secs

     End of self-consistent calculation

          k = 0.0000 0.0000 0.0000 ( 26051 PWs)   bands (ev):

   -20.7533 -20.1327 -20.1327 -19.7980 -19.7980 -19.7967 -19.7967 -19.7596
   -19.7569 -19.3242 -19.3242 -18.9150  -8.4096  -8.2132  -8.2132  -8.1309
    -8.0462  -8.0462  -7.6874  -7.6075  -7.6075  -7.5641  -7.5641  -7.3992
    -6.8081  -5.3884  -5.3884  -4.7642  -4.7642  -4.5567  -4.5567  -4.2083
    -4.2009  -3.3877  -3.3877  -2.6427  -2.4631  -2.4631  -2.3649  -2.2171
    -2.2171  -2.2013  -2.0575  -2.0575  -2.0397  -1.8954  -1.8954  -1.8872

          k =-0.1498-0.0865 0.3111 ( 26044 PWs)   bands (ev):

   -20.6563 -20.1827 -20.1347 -19.9940 -19.9530 -19.8756 -19.7024 -19.6378
   -19.5634 -19.3329 -19.2784 -18.9922  -8.3506  -8.2630  -8.2098  -8.1162
    -8.0359  -7.9769  -7.7345  -7.6735  -7.5874  -7.5010  -7.4707  -7.4088
    -6.5316  -5.6035  -5.4191  -5.1061  -4.9065  -4.5302  -4.3516  -4.1625
    -4.0158  -3.3893  -3.2909  -2.8149  -2.5761  -2.5173  -2.3868  -2.3202
    -2.2773  -2.2017  -2.0956  -2.0555  -2.0046  -1.9529  -1.9045  -1.8643

          k = 0.2996 0.1730-0.6221 ( 26018 PWs)   bands (ev):

   -20.4411 -20.3565 -20.1770 -20.0816 -19.9898 -19.9377 -19.6569 -19.5877
   -19.4149 -19.3128 -19.2188 -19.1440  -8.2825  -8.2730  -8.1821  -8.1479
    -8.0433  -7.9589  -7.7242  -7.6702  -7.5882  -7.5610  -7.3605  -7.3342
    -6.0450  -5.9378  -5.4790  -5.4376  -4.8684  -4.8054  -4.1766  -4.0666
    -3.5914  -3.5503  -3.2381  -3.0914  -2.6343  -2.5637  -2.4385  -2.3627
    -2.3074  -2.2010  -2.1532  -2.1247  -2.0544  -1.9496  -1.8576  -1.8320

          k =-0.1498 0.0865 0.6221 ( 26001 PWs)   bands (ev):

   -20.4674 -20.2697 -20.2381 -20.0709 -20.0167 -19.9432 -19.6392 -19.5362
   -19.4617 -19.2939 -19.2608 -19.1211  -8.2903  -8.2434  -8.2257  -8.1346
    -8.0375  -7.9396  -7.7176  -7.6945  -7.6563  -7.4386  -7.4004  -7.3489
    -6.0800  -5.7965  -5.7296  -5.1965  -4.9932  -4.8104  -4.1604  -3.9282
    -3.8248  -3.3845  -3.2966  -3.0908  -2.6349  -2.5871  -2.4345  -2.3206
    -2.2646  -2.2495  -2.1740  -2.0872  -2.0768  -1.9541  -1.8763  -1.8127

          k = 0.2996 0.3460-0.3111 ( 26027 PWs)   bands (ev):

   -20.5277 -20.3088 -20.2107 -20.0733 -19.9741 -19.9065 -19.6425 -19.5334
   -19.4052 -19.3836 -19.2328 -19.1033  -8.3043  -8.2864  -8.1648  -8.1293
    -8.0684  -7.9576  -7.8468  -7.7904  -7.6807  -7.4282  -7.3895  -7.3220
    -6.1979  -5.7690  -5.4944  -5.2767  -5.1716  -4.5591  -4.0540  -3.9670
    -3.8062  -3.4922  -3.2527  -3.0024  -2.5464  -2.5255  -2.4307  -2.3582
    -2.2630  -2.1792  -2.1448  -2.1257  -2.0424  -1.9939  -1.8596  -1.7738

          k = 0.1498 0.2595 0.0000 ( 25995 PWs)   bands (ev):

   -20.6821 -20.2399 -20.1613 -19.9653 -19.9154 -19.8064 -19.7223 -19.6201
   -19.5644 -19.3419 -19.2882 -18.9794  -8.3770  -8.2506  -8.2106  -8.1035
    -8.0300  -8.0225  -7.8854  -7.7339  -7.6343  -7.5092  -7.4378  -7.3733
    -6.5678  -5.4614  -5.4017  -5.1445  -5.0672  -4.4121  -4.2091  -4.0741
    -4.0184  -3.4323  -3.3827  -2.6899  -2.4707  -2.4440  -2.4291  -2.3295
    -2.2476  -2.1965  -2.0860  -2.0693  -2.0377  -1.9462  -1.8520  -1.8234

          k = 0.2996-0.1730-1.2442 ( 26010 PWs)   bands (ev):

   -20.5101 -20.4607 -20.1855 -20.0270 -19.9248 -19.8284 -19.6546 -19.5898
   -19.4368 -19.3833 -19.1608 -19.1233  -8.3301  -8.2775  -8.1827  -8.1126
    -8.0304  -8.0279  -7.9456  -7.8358  -7.6678  -7.5014  -7.3939  -7.3315
    -6.0133  -6.0068  -5.4374  -5.3826  -4.9220  -4.5442  -4.0159  -3.9295
    -3.7231  -3.6529  -3.1895  -2.9485  -2.5052  -2.4388  -2.3921  -2.3855
    -2.2752  -2.1428  -2.1377  -2.0902  -2.0683  -1.9854  -1.8015  -1.7889

          k = 0.0000 0.0000 0.9332 ( 25997 PWs)   bands (ev):

   -20.3766 -20.3766 -20.3298 -20.1255 -19.9402 -19.9402 -19.5269 -19.5269
   -19.4152 -19.2558 -19.2558 -19.2325  -8.2783  -8.2783  -8.1668  -8.1451
    -8.0491  -8.0491  -7.8514  -7.7635  -7.7635  -7.3428  -7.3428  -7.2939
    -5.9211  -5.9211  -5.7240  -5.4220  -4.8840  -4.8840  -3.8079  -3.7923
    -3.7923  -3.3498  -3.3498  -3.2838  -2.5116  -2.5116  -2.3845  -2.3585
    -2.2162  -2.2162  -2.1407  -2.1407  -2.1239  -1.9361  -1.9361  -1.7383

          k = 0.4494 0.2595 0.0000 ( 26019 PWs)   bands (ev):

   -20.5499 -20.3260 -20.3208 -20.0121 -19.8780 -19.8201 -19.6697 -19.6237
   -19.4507 -19.3010 -19.2416 -19.0914  -8.3245  -8.2629  -8.2206  -8.0786
    -8.0697  -8.0153  -7.9312  -7.8023  -7.7373  -7.4444  -7.3803  -7.3658
    -6.1834  -5.6674  -5.6403  -5.3755  -4.8854  -4.5284  -4.0665  -4.0194
    -3.7029  -3.4435  -3.3380  -2.9178  -2.4798  -2.4519  -2.4033  -2.3896
    -2.2678  -2.1851  -2.1380  -2.0946  -2.0110  -1.9540  -1.8815  -1.7554

          k = 0.2996 0.1730 0.3111 ( 26032 PWs)   bands (ev):

   -20.5896 -20.2484 -20.1544 -20.0755 -19.9581 -19.8854 -19.6608 -19.6215
   -19.4817 -19.3479 -19.2385 -19.0397  -8.3274  -8.2679  -8.2057  -8.0833
    -8.0661  -7.9227  -7.8692  -7.6637  -7.6075  -7.5746  -7.4525  -7.3729
    -6.3266  -5.6087  -5.4630  -5.1569  -5.1339  -4.5393  -4.2001  -4.0465
    -3.9352  -3.4156  -3.2982  -2.8233  -2.5765  -2.5414  -2.4521  -2.3706
    -2.2812  -2.2270  -2.1081  -2.0870  -2.0099  -1.9433  -1.8657  -1.8121

          k = 0.4494-0.2595-0.9332 ( 26032 PWs)   bands (ev):

   -20.4174 -20.4098 -20.2323 -20.1032 -19.9579 -19.8542 -19.7029 -19.5769
   -19.3725 -19.3350 -19.2390 -19.0989  -8.3020  -8.2599  -8.2022  -8.0870
    -8.0458  -7.9699  -7.8607  -7.7511  -7.6356  -7.5799  -7.4213  -7.3724
    -5.9646  -5.8174  -5.4904  -5.4120  -5.0137  -4.5365  -4.2860  -3.9866
    -3.6089  -3.4614  -3.3515  -2.8890  -2.5658  -2.5479  -2.5045  -2.3783
    -2.3372  -2.2829  -2.0840  -2.0423  -2.0319  -1.9609  -1.8621  -1.7582

          k = 0.2996-0.3460-0.6221 ( 26052 PWs)   bands (ev):

   -20.3960 -20.3061 -20.2142 -20.1581 -19.9978 -19.9734 -19.6198 -19.5823
   -19.3703 -19.3369 -19.2512 -19.1108  -8.3141  -8.2058  -8.1608  -8.1340
    -8.0921  -7.8839  -7.7846  -7.7415  -7.5655  -7.5464  -7.4097  -7.3952
    -5.8728  -5.8229  -5.5308  -5.4569  -4.9666  -4.9079  -4.0532  -3.9667
    -3.6422  -3.6032  -3.3156  -2.9799  -2.6298  -2.5763  -2.5122  -2.4147
    -2.3166  -2.2377  -2.1200  -2.0969  -2.0685  -1.9333  -1.8936  -1.7454

          k = 0.0000 0.0000-1.8663 ( 26100 PWs)   bands (ev):

   -20.3382 -20.2283 -20.2283 -20.1916 -20.0770 -20.0770 -19.5171 -19.5171
   -19.4024 -19.4024 -19.2544 -19.0813  -8.3284  -8.1315  -8.1315  -8.1247
    -8.1247  -7.8872  -7.8371  -7.7552  -7.5075  -7.5075  -7.4980  -7.4980
    -5.8413  -5.6321  -5.3572  -5.3572  -5.1905  -5.1905  -3.7940  -3.7940
    -3.7782  -3.7782  -3.3255  -2.9131  -2.5810  -2.5810  -2.5659  -2.4728
    -2.4728  -2.1947  -2.1204  -2.0227  -2.0227  -1.9462  -1.9462  -1.6924

          k = 0.2996-0.3460 0.3111 ( 26027 PWs)   bands (ev):

   -20.5262 -20.3244 -20.1799 -20.0890 -19.9759 -19.9110 -19.6239 -19.5351
   -19.4606 -19.3196 -19.2550 -19.1014  -8.3163  -8.2637  -8.1782  -8.1152
    -8.0593  -7.9849  -7.8836  -7.7477  -7.6730  -7.4215  -7.3963  -7.3293
    -6.1999  -5.7608  -5.5387  -5.2314  -5.1259  -4.6316  -4.1844  -3.8258
    -3.6809  -3.5233  -3.3938  -2.9455  -2.5579  -2.4902  -2.4363  -2.3619
    -2.2722  -2.1895  -2.1405  -2.1221  -2.0791  -1.9478  -1.8657  -1.7801

     highest occupied level (ev):    -1.6924

!    total energy              =    -418.02131565 Ry
     estimated scf accuracy    <          1.2E-10 Ry

     The total energy is the sum of the following terms:
     one-electron contribution =    -269.07284155 Ry
     hartree contribution      =     172.24223802 Ry
     xc contribution           =    -106.28071367 Ry
     ewald contribution        =    -214.90999845 Ry

     convergence has been achieved in   8 iterations

     Forces acting on atoms (cartesian axes, Ry/au):

     atom    1 type  2   force =     0.00009141    0.00023767    0.00422671
     atom    2 type  2   force =    -0.00009141   -0.00023767   -0.00422671
     atom    3 type  2   force =    -0.00025153   -0.00003967    0.00422671
     atom    4 type  2   force =     0.00025153    0.00003967   -0.00422671
     atom    5 type  2   force =     0.00016012   -0.00019800    0.00422671
     atom    6 type  2   force =    -0.00016012    0.00019800   -0.00422671
     atom    7 type  2   force =    -0.00601634   -0.00724716   -0.00421989
     atom    8 type  2   force =     0.00601634    0.00724716    0.00421989
     atom    9 type  2   force =     0.00928439   -0.00158672   -0.00421989
     atom   10 type  2   force =    -0.00928439    0.00158672    0.00421989
     atom   11 type  2   force =    -0.00326805    0.00883388   -0.00421989
     atom   12 type  2   force =     0.00326805   -0.00883388    0.00421989
     atom   13 type  1   force =    -0.00223712   -0.00548287   -0.00006019
     atom   14 type  1   force =     0.00223712    0.00548287    0.00006019
     atom   15 type  1   force =     0.00586687    0.00080403   -0.00006019
     atom   16 type  1   force =    -0.00586687   -0.00080403    0.00006019
     atom   17 type  1   force =    -0.00362975    0.00467884   -0.00006019
     atom   18 type  1   force =     0.00362975   -0.00467884    0.00006019
     atom   19 type  1   force =     0.00792435    0.00299603   -0.00979251
     atom   20 type  1   force =    -0.00792435   -0.00299603    0.00979251
     atom   21 type  1   force =    -0.00655681    0.00536467   -0.00979251
     atom   22 type  1   force =     0.00655681   -0.00536467    0.00979251
     atom   23 type  1   force =    -0.00136754   -0.00836070   -0.00979251
     atom   24 type  1   force =     0.00136754    0.00836070    0.00979251
     atom   25 type  1   force =     0.00370200   -0.00662743    0.00470204
     atom   26 type  1   force =    -0.00370200    0.00662743   -0.00470204
     atom   27 type  1   force =     0.00388852    0.00651974    0.00470204
     atom   28 type  1   force =    -0.00388852   -0.00651974   -0.00470204
     atom   29 type  1   force =    -0.00759052    0.00010769    0.00470204
     atom   30 type  1   force =     0.00759052   -0.00010769   -0.00470204
     atom   31 type  1   force =     0.00144310   -0.00426219   -0.00316186
     atom   32 type  1   force =    -0.00144310    0.00426219    0.00316186
     atom   33 type  1   force =     0.00296961    0.00338086   -0.00316186
     atom   34 type  1   force =    -0.00296961   -0.00338086    0.00316186
     atom   35 type  1   force =    -0.00441272    0.00088133   -0.00316186
     atom   36 type  1   force =     0.00441272   -0.00088133    0.00316186

     Total force =     0.051216     Total SCF correction =     0.000031


     Computing stress (Cartesian axis) and pressure

          total   stress  (Ry/bohr**3)                   (kbar)     P=       33.64
   0.00022492  -0.00000000   0.00000000           33.09       -0.00        0.00
   0.00000000   0.00022492   0.00000000            0.00       33.09        0.00
   0.00000000   0.00000000   0.00023613            0.00        0.00       34.74

     Energy error            =      8.6E-03 Ry
     Gradient error          =      9.8E-03 Ry/Bohr

     number of scf cycles    =   4
     number of bfgs steps    =   3

     energy             old  =    -418.0126701749 Ry
     energy             new  =    -418.0213156519 Ry

     CASE: energy            _new < energy            _old

     new trust radius        =       0.0158281791 bohr
     new conv_thr            =       0.0000000098 Ry


ATOMIC_POSITIONS (crystal)
O                0.2728837767        0.0312708476        0.8579578154
O                0.7271162233        0.9687291634        0.1420421546
O                0.8579578154        0.2728837767        0.0312708476
O                0.1420421546        0.7271162233        0.9687291634
O                0.0312708476        0.8579578154        0.2728837767
O                0.9687291634        0.1420421546        0.7271162233
O                0.4730840364        0.7471226568        0.3297043911
O                0.5269159636        0.2528773432        0.6702955789
O                0.3297043911        0.4730840364        0.7471226568
O                0.6702955789        0.5269159636        0.2528773432
O                0.7471226568        0.3297043911        0.4730840364
O                0.2528773432        0.6702955789        0.5269159636
H                0.1406432942        0.0488443823        0.7905992322
H                0.8593566918        0.9511556097        0.2094007678
H                0.7905992322        0.1406432942        0.0488443823
H                0.2094007678        0.8593566918        0.9511556097
H                0.0488443823        0.7905992322        0.1406432942
H                0.9511556097        0.2094007678        0.8593566918
H                0.4341857973        0.2107031391        1.0064052512
H                0.5658142027        0.7892968759       -0.0064052722
H                1.0064052512        0.4341857973        0.2107031391
H               -0.0064052722        0.5658142027        0.7892968759
H                0.2107031391        1.0064052512        0.4341857973
H                0.7892968759       -0.0064052722        0.5658142027
H                0.7213369671        0.4115450105        0.3984537385
H                0.2786630329        0.5884549595        0.6015462915
H                0.3984537385        0.7213369671        0.4115450105
H                0.6015462915        0.2786630329        0.5884549595
H                0.4115450105        0.3984537385        0.7213369671
H                0.5884549595        0.6015462915        0.2786630329
H                0.7419010951        0.1943810860        0.3618842294
H                0.2580989049        0.8056188990        0.6381157706
H                0.3618842294        0.7419010951        0.1943810860
H                0.6381157706        0.2580989049        0.8056188990
H                0.1943810860        0.3618842294        0.7419010951
H                0.8056188990        0.6381157706        0.2580989049



     Writing config-only to output data dir ./iceII/iceII.save/ :
     XML data file
     NEW-OLD atomic charge density approx. for the potential

     total cpu time spent up to now is       42.3 secs

     per-process dynamical memory:    21.2 Mb

     Self-consistent Calculation

     iteration #  1     ecut=    90.00 Ry     beta= 0.70
     Davidson diagonalization with overlap
     ethr =  1.00E-06,  avg # of iterations =  4.0

     total cpu time spent up to now is       43.5 secs

     total energy              =    -418.02305869 Ry
     estimated scf accuracy    <       0.00036899 Ry

     iteration #  2     ecut=    90.00 Ry     beta= 0.70
     Davidson diagonalization with overlap
     ethr =  3.84E-07,  avg # of iterations =  2.0

     total cpu time spent up to now is       44.4 secs

     total energy              =    -418.02313858 Ry
     estimated scf accuracy    <       0.00004158 Ry

     iteration #  3     ecut=    90.00 Ry     beta= 0.70
     Davidson diagonalization with overlap
     ethr =  4.33E-08,  avg # of iterations =  2.0

     total cpu time spent up to now is       45.3 secs

     total energy              =    -418.02314805 Ry
     estimated scf accuracy    <       0.00000299 Ry

     iteration #  4     ecut=    90.00 Ry     beta= 0.70
     Davidson diagonalization with overlap
     ethr =  3.12E-09,  avg # of iterations =  2.0

     total cpu time spent up to now is       46.1 secs

     total energy              =    -418.02314862 Ry
     estimated scf accuracy    <       0.00000024 Ry

     iteration #  5     ecut=    90.00 Ry     beta= 0.70
     Davidson diagonalization with overlap
     ethr =  2.54E-10,  avg # of iterations =  2.6

     total cpu time spent up to now is       47.1 secs

[...]
H                0.1372021868        0.0419022026        0.7904707869
H                0.8627977992        0.9580977894        0.2095292131
H                0.7904707869        0.1372021868        0.0419022026
H                0.2095292131        0.8627977992        0.9580977894
H                0.0419022026        0.7904707869        0.1372021868
H                0.9580977894        0.2095292131        0.8627977992
H                0.4344190060        0.2097535626        0.9936034813
H                0.5655809940        0.7902464524        0.0063964977
H                0.9936034813        0.4344190060        0.2097535626
H                0.0063964977        0.5655809940        0.7902464524
H                0.2097535626        0.9936034813        0.4344190060
H                0.7902464524        0.0063964977        0.5655809940
H                0.7284310158        0.4123691682        0.4013588741
H                0.2715689842        0.5876308018        0.5986411559
H                0.4013588741        0.7284310158        0.4123691682
H                0.5986411559        0.2715689842        0.5876308018
H                0.4123691682        0.4013588741        0.7284310158
H                0.5876308018        0.5986411559        0.2715689842
H                0.7366413061        0.1879057729        0.3562226223
H                0.2633586939        0.8120942121        0.6437773777
H                0.3562226223        0.7366413061        0.1879057729
H                0.6437773777        0.2633586939        0.8120942121
H                0.1879057729        0.3562226223        0.7366413061
H                0.8120942121        0.6437773777        0.2633586939



     Writing config-only to output data dir ./iceII/iceII.save/ :
     XML data file
     NEW-OLD atomic charge density approx. for the potential

     total cpu time spent up to now is      113.5 secs

     per-process dynamical memory:    21.2 Mb

     Self-consistent Calculation

     iteration #  1     ecut=    90.00 Ry     beta= 0.70
     Davidson diagonalization with overlap
     ethr =  1.00E-06,  avg # of iterations =  2.0

     Threshold (ethr) on eigenvalues was too large:
     Diagonalizing with lowered threshold

     Davidson diagonalization with overlap
     ethr =  8.92E-09,  avg # of iterations =  3.8

     total cpu time spent up to now is      115.2 secs

     total energy              =    -418.03188366 Ry
     estimated scf accuracy    <       0.00001177 Ry

     iteration #  2     ecut=    90.00 Ry     beta= 0.70
     Davidson diagonalization with overlap
     ethr =  1.23E-08,  avg # of iterations =  2.0

     total cpu time spent up to now is      116.1 secs

     total energy              =    -418.03188547 Ry
     estimated scf accuracy    <       0.00000064 Ry

     iteration #  3     ecut=    90.00 Ry     beta= 0.70
     Davidson diagonalization with overlap
     ethr =  6.65E-10,  avg # of iterations =  2.0

     total cpu time spent up to now is      117.0 secs

     total energy              =    -418.03188562 Ry
     estimated scf accuracy    <       0.00000009 Ry

     iteration #  4     ecut=    90.00 Ry     beta= 0.70
     Davidson diagonalization with overlap
     ethr =  8.87E-11,  avg # of iterations =  2.0

     total cpu time spent up to now is      117.8 secs

     total energy              =    -418.03188564 Ry
     estimated scf accuracy    <          6.0E-09 Ry

     iteration #  5     ecut=    90.00 Ry     beta= 0.70
     Davidson diagonalization with overlap
     ethr =  6.25E-12,  avg # of iterations =  2.1

     total cpu time spent up to now is      118.7 secs

     End of self-consistent calculation

          k = 0.0000 0.0000 0.0000 ( 26051 PWs)   bands (ev):

   -20.7585 -20.1125 -20.1125 -19.8474 -19.8474 -19.8115 -19.7980 -19.7980
   -19.7748 -19.3893 -19.3893 -18.9592  -8.2700  -8.2165  -8.2165  -8.1041
    -8.0169  -8.0169  -7.6782  -7.6645  -7.6634  -7.6634  -7.5815  -7.5815
    -6.7359  -5.4520  -5.4520  -4.6668  -4.6668  -4.5293  -4.5293  -4.2922
    -4.1927  -3.3805  -3.3805  -2.5674  -2.4585  -2.4585  -2.3990  -2.2757
    -2.2757  -2.2180  -2.1534  -2.1534  -2.0518  -1.9088  -1.8971  -1.8971

          k =-0.1498-0.0865 0.3111 ( 26044 PWs)   bands (ev):

   -20.6603 -20.1718 -20.1028 -20.0318 -19.9820 -19.8939 -19.7333 -19.6791
   -19.5901 -19.3930 -19.3363 -19.0392  -8.2270  -8.2110  -8.1881  -8.1012
    -8.0013  -7.9678  -7.7657  -7.7502  -7.6937  -7.5834  -7.5066  -7.4876
    -6.5224  -5.6423  -5.4644  -5.0813  -4.7790  -4.5190  -4.3621  -4.1552
    -4.0080  -3.3688  -3.3007  -2.7452  -2.5551  -2.4831  -2.4207  -2.3746
    -2.3358  -2.2609  -2.1328  -2.1046  -2.0465  -1.9949  -1.9264  -1.9035

          k = 0.2996 0.1730-0.6221 ( 26018 PWs)   bands (ev):

   -20.4102 -20.3941 -20.1512 -20.1230 -19.9778 -19.9693 -19.6747 -19.6647
   -19.4022 -19.3967 -19.2416 -19.2232  -8.2178  -8.1904  -8.1207  -8.0896
    -7.9969  -7.9599  -7.7860  -7.7761  -7.7224  -7.5730  -7.4333  -7.4148
    -6.1061  -5.9607  -5.4817  -5.4000  -4.7980  -4.7107  -4.2145  -4.0982
    -3.5375  -3.5361  -3.2663  -3.0028  -2.6179  -2.5348  -2.4327  -2.4260
    -2.3562  -2.2620  -2.2113  -2.1119  -2.0812  -2.0071  -1.9140  -1.9088

          k =-0.1498 0.0865 0.6221 ( 26001 PWs)   bands (ev):

   -20.4614 -20.2729 -20.2425 -20.0771 -20.0409 -19.9577 -19.6797 -19.5717
   -19.4976 -19.3325 -19.3135 -19.1814  -8.2125  -8.1869  -8.1441  -8.0942
    -7.9872  -7.9196  -7.7970  -7.7795  -7.7643  -7.5102  -7.4651  -7.4226
    -6.1394  -5.8128  -5.7294  -5.1702  -4.9250  -4.7296  -4.1934  -3.9523
    -3.7951  -3.3679  -3.2623  -3.0454  -2.6209  -2.5542  -2.4159  -2.3955
    -2.3277  -2.3038  -2.2059  -2.1223  -2.0663  -2.0052  -1.9467  -1.8860

          k = 0.2996 0.3460-0.3111 ( 26027 PWs)   bands (ev):

   -20.5291 -20.3056 -20.1722 -20.1175 -20.0132 -19.9349 -19.6614 -19.5274
   -19.5048 -19.3801 -19.3066 -19.1593  -8.2204  -8.1912  -8.1574  -8.0873
    -8.0066  -7.9799  -7.8821  -7.8000  -7.7642  -7.5443  -7.4922  -7.4334
    -6.1712  -5.7639  -5.5274  -5.2206  -5.1442  -4.5130  -4.0970  -4.0001
    -3.7382  -3.4654  -3.2547  -2.9618  -2.5343  -2.5110  -2.4348  -2.3925
    -2.3319  -2.2304  -2.1984  -2.1333  -2.0448  -2.0338  -1.9302  -1.8274

          k = 0.1498 0.2595 0.0000 ( 25995 PWs)   bands (ev):

   -20.6868 -20.2222 -20.1398 -19.9952 -19.9619 -19.8565 -19.7260 -19.6334
   -19.5866 -19.4018 -19.3602 -19.0264  -8.2447  -8.2129  -8.2016  -8.0976
    -8.0253  -8.0134  -7.8299  -7.7513  -7.7212  -7.6151  -7.5616  -7.4915
    -6.4981  -5.5038  -5.3624  -5.1222  -5.0836  -4.3842  -4.1694  -4.0685
    -4.0245  -3.4200  -3.3838  -2.6501  -2.4632  -2.4554  -2.4316  -2.3589
    -2.2955  -2.2343  -2.1728  -2.1494  -2.0266  -1.9704  -1.8805  -1.8498

          k = 0.2996-0.1730-1.2442 ( 26010 PWs)   bands (ev):

   -20.5224 -20.4449 -20.1604 -20.0611 -19.9584 -19.8857 -19.6402 -19.6166
   -19.4613 -19.4457 -19.1996 -19.1986  -8.2268  -8.1823  -8.1665  -8.0835
    -8.0628  -8.0234  -7.9391  -7.8044  -7.7576  -7.5726  -7.5621  -7.4699
    -5.9589  -5.9176  -5.4696  -5.3263  -5.0099  -4.5412  -3.9632  -3.9224
    -3.7397  -3.5961  -3.1892  -2.9517  -2.4857  -2.4483  -2.4022  -2.3928
    -2.3263  -2.2401  -2.1938  -2.1083  -2.0711  -1.9973  -1.8429  -1.8328

          k = 0.0000 0.0000 0.9332 ( 25997 PWs)   bands (ev):

   -20.3843 -20.3843 -20.2583 -20.2106 -19.9604 -19.9604 -19.5526 -19.5526
   -19.4025 -19.3384 -19.3039 -19.3039  -8.1942  -8.1942  -8.1761  -8.0465
    -8.0465  -8.0187  -7.8997  -7.8126  -7.8126  -7.4533  -7.4533  -7.4233
    -5.8752  -5.8752  -5.8091  -5.2889  -4.8935  -4.8935  -3.8169  -3.7992
    -3.7992  -3.3315  -3.3315  -3.2301  -2.4959  -2.4959  -2.4000  -2.3450
    -2.2933  -2.2933  -2.2026  -2.1236  -2.1236  -1.9954  -1.9954  -1.7975

          k = 0.4494 0.2595 0.0000 ( 26019 PWs)   bands (ev):

   -20.5542 -20.3292 -20.2937 -20.0619 -19.8850 -19.8614 -19.6856 -19.6621
   -19.4459 -19.3523 -19.3161 -19.1477  -8.2101  -8.1931  -8.1795  -8.0809
    -8.0625  -8.0130  -7.9203  -7.8261  -7.7825  -7.5631  -7.5433  -7.4739
    -6.1114  -5.6096  -5.5516  -5.4279  -4.9701  -4.5582  -4.0378  -3.9400
    -3.6668  -3.4534  -3.3474  -2.9105  -2.4699  -2.4521  -2.4181  -2.3931
    -2.3198  -2.2605  -2.1747  -2.1409  -2.0442  -1.9676  -1.8921  -1.8120

          k = 0.2996 0.1730 0.3111 ( 26032 PWs)   bands (ev):

   -20.5922 -20.2297 -20.1236 -20.1110 -20.0125 -19.9081 -19.6931 -19.6219
   -19.5513 -19.3668 -19.3074 -19.0944  -8.2269  -8.1905  -8.1630  -8.0768
    -8.0152  -7.9490  -7.8264  -7.7570  -7.7153  -7.6390  -7.5746  -7.4561
    -6.3013  -5.5962  -5.5074  -5.1946  -5.0515  -4.4939  -4.2154  -4.0001
    -3.9332  -3.3779  -3.3003  -2.7895  -2.5745  -2.5090  -2.4660  -2.4119
    -2.3768  -2.2338  -2.1968  -2.0949  -2.0019  -1.9971  -1.9127  -1.8735

          k = 0.4494-0.2595-0.9332 ( 26032 PWs)   bands (ev):

   -20.4260 -20.3899 -20.2199 -20.1393 -19.9926 -19.8693 -19.7450 -19.5987
   -19.4293 -19.3362 -19.2795 -19.1844  -8.2088  -8.1712  -8.1444  -8.0557
    -7.9940  -7.9685  -7.8756  -7.7968  -7.7602  -7.6609  -7.5624  -7.4846
    -5.9081  -5.7744  -5.5660  -5.3319  -5.0720  -4.5705  -4.2298  -3.9008
    -3.6348  -3.3834  -3.3457  -2.9106  -2.5739  -2.5306  -2.4907  -2.4375
    -2.4156  -2.2754  -2.1382  -2.1153  -2.0242  -1.9739  -1.8831  -1.8571

          k = 0.2996-0.3460-0.6221 ( 26052 PWs)   bands (ev):

   -20.3589 -20.3383 -20.2013 -20.1804 -20.0150 -20.0106 -19.6407 -19.6307
   -19.4027 -19.3913 -19.2347 -19.2223  -8.2160  -8.1462  -8.1057  -8.0588
    -8.0363  -7.8760  -7.8403  -7.8145  -7.7209  -7.6151  -7.4926  -7.4756
    -5.9247  -5.8518  -5.5382  -5.4251  -4.8942  -4.8392  -4.0828  -3.9805
    -3.5972  -3.5661  -3.2484  -2.9680  -2.6382  -2.5461  -2.5039  -2.4923
    -2.3913  -2.2855  -2.1556  -2.1190  -2.0589  -1.9592  -1.9387  -1.8595

          k = 0.0000 0.0000-1.8663 ( 26100 PWs)   bands (ev):

   -20.2917 -20.2461 -20.1783 -20.1783 -20.1599 -20.1599 -19.5213 -19.5213
   -19.4731 -19.4731 -19.2130 -19.2092  -8.2170  -8.0615  -8.0615  -8.0600
    -8.0600  -7.9256  -7.8447  -7.7878  -7.6867  -7.6867  -7.5559  -7.5559
    -5.9229  -5.6112  -5.3151  -5.3151  -5.1879  -5.1879  -3.7646  -3.7646
    -3.7476  -3.7476  -3.2222  -2.9437  -2.5845  -2.5579  -2.5579  -2.5537
    -2.5537  -2.2316  -2.1516  -2.0515  -2.0515  -1.9633  -1.9633  -1.8132

          k = 0.2996-0.3460 0.3111 ( 26027 PWs)   bands (ev):

   -20.5295 -20.3002 -20.1882 -20.1066 -20.0136 -19.9326 -19.6620 -19.5427
   -19.4873 -19.3905 -19.2966 -19.1621  -8.2125  -8.1942  -8.1604  -8.0673
    -8.0234  -7.9887  -7.8968  -7.7895  -7.7587  -7.5313  -7.4903  -7.4475
    -6.1688  -5.7395  -5.5935  -5.1900  -5.0765  -4.5998  -4.2137  -3.8234
    -3.6611  -3.4904  -3.3901  -2.9076  -2.5465  -2.4912  -2.4182  -2.3729
    -2.3549  -2.2564  -2.2030  -2.1471  -2.0497  -1.9994  -1.9312  -1.8338

     highest occupied level (ev):    -1.7975

!    total energy              =    -418.03188564 Ry
     estimated scf accuracy    <          6.4E-10 Ry

     The total energy is the sum of the following terms:
     one-electron contribution =    -270.70136986 Ry
     hartree contribution      =     173.01976725 Ry
     xc contribution           =    -106.30161640 Ry
     ewald contribution        =    -214.04866662 Ry

     convergence has been achieved in   5 iterations

     Forces acting on atoms (cartesian axes, Ry/au):

     atom    1 type  2   force =    -0.00017097   -0.00087899    0.00026016
     atom    2 type  2   force =     0.00017097    0.00087899   -0.00026016
     atom    3 type  2   force =     0.00084672    0.00029143    0.00026016
     atom    4 type  2   force =    -0.00084672   -0.00029143   -0.00026016
     atom    5 type  2   force =    -0.00067575    0.00058756    0.00026016
     atom    6 type  2   force =     0.00067575   -0.00058756   -0.00026016
     atom    7 type  2   force =     0.00074310   -0.00039822   -0.00028382
     atom    8 type  2   force =    -0.00074310    0.00039822    0.00028382
     atom    9 type  2   force =    -0.00002668    0.00084265   -0.00028382
     atom   10 type  2   force =     0.00002668   -0.00084265    0.00028382
     atom   11 type  2   force =    -0.00071642   -0.00044444   -0.00028382
     atom   12 type  2   force =     0.00071642    0.00044444    0.00028382
     atom   13 type  1   force =     0.00062953    0.00043917   -0.00017816
     atom   14 type  1   force =    -0.00062953   -0.00043917    0.00017816
     atom   15 type  1   force =    -0.00069510    0.00032561   -0.00017816
     atom   16 type  1   force =     0.00069510   -0.00032561    0.00017816
     atom   17 type  1   force =     0.00006557   -0.00076478   -0.00017816
     atom   18 type  1   force =    -0.00006557    0.00076478    0.00017816
     atom   19 type  1   force =     0.00000739    0.00090277    0.00022241
     atom   20 type  1   force =    -0.00000739   -0.00090277   -0.00022241
     atom   21 type  1   force =    -0.00078552   -0.00044499    0.00022241
     atom   22 type  1   force =     0.00078552    0.00044499   -0.00022241
     atom   23 type  1   force =     0.00077813   -0.00045778    0.00022241
     atom   24 type  1   force =    -0.00077813    0.00045778   -0.00022241
     atom   25 type  1   force =     0.00039732    0.00027418    0.00002513
     atom   26 type  1   force =    -0.00039732   -0.00027418   -0.00002513
     atom   27 type  1   force =    -0.00043611    0.00020700    0.00002513
     atom   28 type  1   force =     0.00043611   -0.00020700   -0.00002513
     atom   29 type  1   force =     0.00003879   -0.00048118    0.00002513
     atom   30 type  1   force =    -0.00003879    0.00048118   -0.00002513
     atom   31 type  1   force =     0.00018812   -0.00042524    0.00024867
     atom   32 type  1   force =    -0.00018812    0.00042524   -0.00024867
     atom   33 type  1   force =     0.00027421    0.00037554    0.00024867
     atom   34 type  1   force =    -0.00027421   -0.00037554   -0.00024867
     atom   35 type  1   force =    -0.00046233    0.00004971    0.00024867
     atom   36 type  1   force =     0.00046233   -0.00004971   -0.00024867

     Total force =     0.004685     Total SCF correction =     0.000093


     Computing stress (Cartesian axis) and pressure

          total   stress  (Ry/bohr**3)                   (kbar)     P=       35.79
   0.00025489   0.00000000  -0.00000000           37.50        0.00       -0.00
  -0.00000000   0.00025489   0.00000000           -0.00       37.50        0.00
  -0.00000000   0.00000000   0.00022000           -0.00        0.00       32.36

     Energy error            =      5.0E-05 Ry
     Gradient error          =      9.0E-04 Ry/Bohr

     bfgs converged in  15 scf cycles and  14 bfgs steps
     (criteria: energy <  1.0E-04 Ry, force <  1.0E-03 Ry/Bohr)

     End of BFGS Geometry Optimization

     Final energy             =    -418.0318856363 Ry

     File ./iceII/iceII.bfgs deleted, as requested
Begin final coordinates

ATOMIC_POSITIONS (crystal)
O                0.2727571232        0.0287414216        0.8568729472
O                0.7272428768        0.9712585894        0.1431270228
O                0.8568729472        0.2727571232        0.0287414216
O                0.1431270228        0.7272428768        0.9712585894
O                0.0287414216        0.8568729472        0.2727571232
O                0.9712585894        0.1431270228        0.7272428768
O                0.4709623426        0.7454990924        0.3244135307
O                0.5290376574        0.2545009076        0.6755864393
O                0.3244135307        0.4709623426        0.7454990924
O                0.6755864393        0.5290376574        0.2545009076
O                0.7454990924        0.3244135307        0.4709623426
O                0.2545009076        0.6755864393        0.5290376574
H                0.1372021868        0.0419022026        0.7904707869
H                0.8627977992        0.9580977894        0.2095292131
H                0.7904707869        0.1372021868        0.0419022026
H                0.2095292131        0.8627977992        0.9580977894
H                0.0419022026        0.7904707869        0.1372021868
H                0.9580977894        0.2095292131        0.8627977992
H                0.4344190060        0.2097535626        0.9936034813
H                0.5655809940        0.7902464524        0.0063964977
H                0.9936034813        0.4344190060        0.2097535626
H                0.0063964977        0.5655809940        0.7902464524
H                0.2097535626        0.9936034813        0.4344190060
H                0.7902464524        0.0063964977        0.5655809940
H                0.7284310158        0.4123691682        0.4013588741
H                0.2715689842        0.5876308018        0.5986411559
H                0.4013588741        0.7284310158        0.4123691682
H                0.5986411559        0.2715689842        0.5876308018
H                0.4123691682        0.4013588741        0.7284310158
H                0.5876308018        0.5986411559        0.2715689842
H                0.7366413061        0.1879057729        0.3562226223
H                0.2633586939        0.8120942121        0.6437773777
H                0.3562226223        0.7366413061        0.1879057729
H                0.6437773777        0.2633586939        0.8120942121
H                0.1879057729        0.3562226223        0.7366413061
H                0.8120942121        0.6437773777        0.2633586939
End final coordinates



     Writing all to output data dir ./iceII/iceII.save/ :
     XML data file, charge density, pseudopotentials, collected wavefunctions

     init_run     :      2.44s CPU      2.56s WALL (       1 calls)
     electrons    :     95.72s CPU     98.94s WALL (      15 calls)
     update_pot   :      1.57s CPU      1.80s WALL (      14 calls)
     forces       :      1.65s CPU      1.66s WALL (      15 calls)
     stress       :     13.43s CPU     13.65s WALL (      15 calls)

     Called by init_run:
     wfcinit      :      0.32s CPU      0.34s WALL (       1 calls)
     potinit      :      1.62s CPU      1.67s WALL (       1 calls)
     hinit0       :      0.38s CPU      0.40s WALL (       1 calls)

     Called by electrons:
     c_bands      :     73.86s CPU     74.61s WALL (     102 calls)
     sum_band     :     10.21s CPU     10.31s WALL (     102 calls)
     v_of_rho     :     13.89s CPU     15.46s WALL (     113 calls)
     newd         :      0.38s CPU      0.39s WALL (     113 calls)
     mix_rho      :      0.20s CPU      0.21s WALL (     102 calls)
     vdW_kernel   :      1.50s CPU      1.52s WALL (       1 calls)

     Called by c_bands:
     init_us_2    :      1.16s CPU      1.21s WALL (     940 calls)
     cegterg      :     71.49s CPU     72.01s WALL (     408 calls)

     Called by *egterg:
     cdiaghg      :      5.65s CPU      5.67s WALL (    1449 calls)
     h_psi        :     55.06s CPU     55.48s WALL (    1525 calls)
     s_psi        :      2.09s CPU      2.12s WALL (    1525 calls)
     g_psi        :      0.14s CPU      0.14s WALL (    1113 calls)

     Called by h_psi:
     h_psi:calbec :      3.66s CPU      3.68s WALL (    1525 calls)
     vloc_psi     :     48.86s CPU     49.25s WALL (    1525 calls)
     add_vuspsi   :      2.19s CPU      2.19s WALL (    1525 calls)

     General routines
     calbec       :      5.28s CPU      5.31s WALL (    2233 calls)
     fft          :      6.87s CPU      6.97s WALL (    7691 calls)
     ffts         :      0.08s CPU      0.09s WALL (     102 calls)
     fftw         :     51.10s CPU     51.51s WALL (  143076 calls)

     Parallel routines

     PWSCF        :   1m55.82s CPU   2m 0.66s WALL


   This run was terminated on:  14: 9:39   1Apr2026            

=------------------------------------------------------------------------------=
   JOB DONE.
=------------------------------------------------------------------------------=
