
     Program PWSCF v.7.3.1 starts on  1Apr2026 at 14: 9:41 

     This program is part of the open-source Quantum ESPRESSO suite
     for quantum simulation of materials; please cite
         "P. Giannozzi et al., J. Phys.:Condens. Matter 21 395502 (2009);
         "P. Giannozzi et al., J. Phys.:Condens. Matter 29 465901 (2017);
         "P. Giannozzi et al., J. Chem. Phys. 152 154105 (2020);
          URL http://www.quantum-espresso.org", 
     in publications or presentations arising from this work. More details at
     http://www.quantum-espresso.org/quote

     Parallel version (MPI), running on   128 processors

     MPI processes distributed on     1 nodes
     242690 MiB available memory on the printing compute node when the environment starts

     Waiting for input...
     Reading input from standard input

     Current dimensions of program PWSCF are:
     Max number of different atomic species (ntypx) = 10
     Max number of k-points (npk) =  40000
     Max angular momentum in pseudopotentials (lmaxx) =  4

     IMPORTANT: XC functional enforced from input :
     Exchange-correlation= VDW-DF2
                           (   1   4  13   0   2   0   0)
     Any further DFT definition will be discarded
     Please, verify this is what you really want


     K-points division:     npool     =       4
     R & G space division:  proc/nbgrp/npool/nimage =      32
     Subspace diagonalization in iterative solution of the eigenvalue problem:
     a serial algorithm will be used


     Parallelization info
     --------------------
     sticks:   dense  smooth     PW     G-vecs:    dense   smooth      PW
     Min         164     164     48                 6564     6564    1056
     Max         165     165     49                 6566     6566    1059
     Sum        5253    5253   1555               210083   210083   33829

     Using Slab Decomposition



     bravais-lattice index     =            5
     lattice parameter (alat)  =      14.1287  a.u.
     unit-cell volume          =    1822.2076 (a.u.)^3
     number of atoms/cell      =           36
     number of atomic types    =            2
     number of electrons       =        96.00
     number of Kohn-Sham states=           48
     kinetic-energy cutoff     =      90.0000  Ry
     charge density cutoff     =     360.0000  Ry
     scf convergence threshold =      1.0E-07
     mixing beta               =       0.7000
     number of iterations used =            8  plain     mixing
     energy convergence thresh.=      1.0E-04
     force convergence thresh. =      1.0E-03
     Exchange-correlation= VDW-DF2
                           (   1   4  13   0   2   0   0)
     nstep                     =           50


     celldm(1)=  14.128688  celldm(2)=   0.000000  celldm(3)=   0.000000
     celldm(4)=  -0.392337  celldm(5)=   0.000000  celldm(6)=   0.000000

     crystal axes: (cart. coord. in units of alat)
               a(1) = (   0.834367  -0.481722   0.267909 )  
               a(2) = (   0.000000   0.963444   0.267909 )  
               a(3) = (  -0.834367  -0.481722   0.267909 )  

     reciprocal axes: (cart. coord. in units 2 pi/alat)
               b(1) = (  0.599257 -0.345981  1.244203 )  
               b(2) = (  0.000000  0.691962  1.244203 )  
               b(3) = ( -0.599257 -0.345981  1.244203 )  


     PseudoPot. # 1 for H  read from file:
     ./H.pbe-van_ak.UPF
     MD5 check sum: 077eb6d537518a38cb46c6de387227b7
     Pseudo is Ultrasoft, Zval =  1.0
     Generated by new atomic code, or converted to UPF format
     Using radial grid of  615 points,  1 beta functions with: 
                l(1) =   0
     Q(r) pseudized with  8 coefficients,  rinner =    0.800

     PseudoPot. # 2 for O  read from file:
     ./O.pbe-van_ak.UPF
     MD5 check sum: 78c19812648e8988a0fe644b0f25305e
     Pseudo is Ultrasoft, Zval =  6.0
     Generated by new atomic code, or converted to UPF format
     Using radial grid of  737 points,  4 beta functions with: 
                l(1) =   0
                l(2) =   0
                l(3) =   1
                l(4) =   1
     Q(r) pseudized with  8 coefficients,  rinner =    0.800   0.800   0.800


     atomic species   valence    mass     pseudopotential
     H                 1.00     1.00800     H ( 1.00)
     O                 6.00    16.00000     O ( 1.00)

      6 Sym. Ops., with inversion, found



   Cartesian axes

     site n.     atom                  positions (alat units)
         1        O      tau(   1) = (  -0.4847673  -0.5197781   0.3083633  )
         2        O      tau(   2) = (   0.4847673   0.5197782   0.4953638  )
         3        O      tau(   3) = (   0.6925247  -0.1599317   0.3083633  )
         4        O      tau(   4) = (  -0.6925248   0.1599317   0.4953638  )
         5        O      tau(   5) = (  -0.2077574   0.6797099   0.3083633  )
         6        O      tau(   6) = (   0.2077574  -0.6797099   0.4953638  )
         7        O      tau(   7) = (   0.1218176   0.3323883   0.4179381  )
         8        O      tau(   8) = (  -0.1218176  -0.3323883   0.3857890  )
         9        O      tau(   9) = (  -0.3487655  -0.0606970   0.4179381  )
        10        O      tau(  10) = (   0.3487655   0.0606970   0.3857890  )
        11        O      tau(  11) = (   0.2269479  -0.2716913   0.4179381  )
        12        O      tau(  12) = (  -0.2269479   0.2716912   0.3857890  )
        13        H      tau(  13) = (  -0.5381668  -0.4032014   0.2796970  )
        14        H      tau(  14) = (   0.5381668   0.4032014   0.5240301  )
        15        H      tau(  15) = (   0.6182661  -0.2644654   0.2796970  )
        16        H      tau(  16) = (  -0.6182661   0.2644654   0.5240301  )
        17        H      tau(  17) = (  -0.0800993   0.6676668   0.2796970  )
        18        H      tau(  18) = (   0.0800993  -0.6676668   0.5240301  )
        19        H      tau(  19) = (  -0.4872704  -0.4817221   0.4326731  )
        20        H      tau(  20) = (   0.4872704   0.4817221   0.3710540  )
        21        H      tau(  21) = (   0.6608188  -0.1811275   0.4326731  )
        22        H      tau(  22) = (  -0.6608188   0.1811275   0.3710540  )
        23        H      tau(  23) = (  -0.1735484   0.6628496   0.4326731  )
        24        H      tau(  24) = (   0.1735484  -0.6628496   0.3710540  )
        25        H      tau(  25) = (   0.2703349  -0.1502973   0.4058822  )
        26        H      tau(  26) = (  -0.2703350   0.1502973   0.3978449  )
        27        H      tau(  27) = (  -0.0050062   0.3092656   0.4058822  )
        28        H      tau(  28) = (   0.0050062  -0.3092656   0.3978449  )
        29        H      tau(  29) = (  -0.2653287  -0.1589683   0.4058822  )
        30        H      tau(  30) = (   0.2653287   0.1589683   0.3978449  )
        31        H      tau(  31) = (   0.3178939  -0.3347969   0.3493534  )
        32        H      tau(  32) = (  -0.3178939   0.3347969   0.4543737  )
        33        H      tau(  33) = (   0.1309957   0.4427026   0.3493534  )
        34        H      tau(  34) = (  -0.1309956  -0.4427026   0.4543737  )
        35        H      tau(  35) = (  -0.4488895  -0.1079057   0.3493534  )
        36        H      tau(  36) = (   0.4488895   0.1079057   0.4543737  )

     number of k points=    14
                       cart. coord. in units 2pi/alat
        k(    1) = (   0.0000000   0.0000000   0.0000000), wk =   0.0312500
        k(    2) = (  -0.1498141  -0.0864952   0.3110508), wk =   0.1875000
        k(    3) = (   0.2996283   0.1729905  -0.6221017), wk =   0.0937500
        k(    4) = (  -0.1498141   0.0864952   0.6221017), wk =   0.1875000
        k(    5) = (   0.2996283   0.3459809  -0.3110508), wk =   0.1875000
        k(    6) = (   0.1498141   0.2594857   0.0000000), wk =   0.1875000
        k(    7) = (   0.2996283  -0.1729905  -1.2442034), wk =   0.0937500
        k(    8) = (   0.0000000   0.0000000   0.9331525), wk =   0.0625000
        k(    9) = (   0.4494424   0.2594857   0.0000000), wk =   0.1875000
        k(   10) = (   0.2996283   0.1729905   0.3110508), wk =   0.1875000
        k(   11) = (   0.4494424  -0.2594857  -0.9331525), wk =   0.1875000
        k(   12) = (   0.2996283  -0.3459809  -0.6221017), wk =   0.1875000
        k(   13) = (   0.0000000   0.0000000  -1.8663050), wk =   0.0312500
        k(   14) = (   0.2996283  -0.3459809   0.3110508), wk =   0.1875000

     Dense  grid:   210083 G-vectors     FFT dimensions: (  90,  90,  90)

     Estimated max dynamical RAM per process >      14.10 MB

     Estimated total dynamical RAM >       1.61 GB

     Initial potential from superposition of free atoms

     starting charge      95.9998, renormalised to      96.0000


     %%%%%%%%%%%%%%%%%%%%%%%%%%%%%%%%%%%%%%%%%%%%%%%%%%%%%%%%%%%%%%%%%%%%%%%%
     %                                                                      %
     % You are using vdW-DF, which was implemented by the Thonhauser group. %
     % Please cite the following two papers that made this development      %
     % possible and the two reviews that describe the various versions:     %
     %                                                                      %
     %   T. Thonhauser et al., PRL 115, 136402 (2015).                      %
     %   T. Thonhauser et al., PRB 76, 125112 (2007).                       %
     %   K. Berland et al., Rep. Prog. Phys. 78, 066501 (2015).             %
     %   D.C. Langreth et al., J. Phys.: Condens. Matter 21, 084203 (2009). %
     %                                                                      %
     % If you are calculating stress with vdW-DF, please also cite:         %
     %                                                                      %
     %   R. Sabatini et al., J. Phys.: Condens. Matter 24, 424209 (2012).   %
     %                                                                      %
     %%%%%%%%%%%%%%%%%%%%%%%%%%%%%%%%%%%%%%%%%%%%%%%%%%%%%%%%%%%%%%%%%%%%%%%%

     %%%%%%%%%%%%%%%%%%%%%%%%%%%%%%%%%%%%%%%%%%%%%%%%%%%%%%%%%%%%%%%%%%%%%%%%
     %                                                                      %
     %  vdW-DF NEWS:                                                        %
     %                                                                      %
     %  * vdW-DF3 is now available. DOI: 10.1021/acs.jctc.0c00471           %
     %    use with input_dft = 'vdW-DF3-opt1' or 'vdW-DF3-opt2'             %
     %                                                                      %
     %  * Unscreened and range-separated hybrid vdW-DF-cx functionals       %
     %    DOI: 10.1063/1.4986522 and 10.1088/1361-648X/ac2ad2               %
     %    use with input_dft = 'vdW-DF-cx0'    and 'vdW-DF-ahcx'            %
     %  * Unscreened and range-separated hybrid vdW-DF2-b86r functionals    %
     %    DOI: 10.1063/1.4986522 and DOI: 10.1103/PhysRevX.12.041003        %
     %    use with input_dft = 'vdW-DF2-br0' and 'vdW-DF2-ahbr'             %
     %                                                                      %
     %%%%%%%%%%%%%%%%%%%%%%%%%%%%%%%%%%%%%%%%%%%%%%%%%%%%%%%%%%%%%%%%%%%%%%%%


     Starting wfcs are   72 randomized atomic wfcs

     total cpu time spent up to now is        2.8 secs

     per-process dynamical memory:    18.6 Mb

     Self-consistent Calculation

     iteration #  1     ecut=    90.00 Ry     beta= 0.70
     Davidson diagonalization with overlap
     ethr =  1.00E-02,  avg # of iterations =  2.0

     total cpu time spent up to now is        3.6 secs

     total energy              =    -415.80661688 Ry
     estimated scf accuracy    <       4.77628834 Ry

     iteration #  2     ecut=    90.00 Ry     beta= 0.70
     Davidson diagonalization with overlap
     ethr =  4.98E-03,  avg # of iterations =  3.0

     total cpu time spent up to now is        4.8 secs

     total energy              =    -417.41412974 Ry
     estimated scf accuracy    <       2.88086360 Ry

     iteration #  3     ecut=    90.00 Ry     beta= 0.70
     Davidson diagonalization with overlap
     ethr =  3.00E-03,  avg # of iterations =  2.0

     total cpu time spent up to now is        5.7 secs

     total energy              =    -417.78472049 Ry
     estimated scf accuracy    <       0.12249873 Ry

     iteration #  4     ecut=    90.00 Ry     beta= 0.70
     Davidson diagonalization with overlap
     ethr =  1.28E-04,  avg # of iterations =  4.0

     total cpu time spent up to now is        6.9 secs

     total energy              =    -417.87679698 Ry
     estimated scf accuracy    <       0.14584215 Ry

     iteration #  5     ecut=    90.00 Ry     beta= 0.70
     Davidson diagonalization with overlap
     ethr =  1.28E-04,  avg # of iterations =  2.0

     total cpu time spent up to now is        7.6 secs

     total energy              =    -417.88108585 Ry
     estimated scf accuracy    <       0.02326950 Ry

     iteration #  6     ecut=    90.00 Ry     beta= 0.70
     Davidson diagonalization with overlap
     ethr =  2.42E-05,  avg # of iterations =  2.0

     total cpu time spent up to now is        8.4 secs

     total energy              =    -417.88166771 Ry
     estimated scf accuracy    <       0.00564782 Ry

     iteration #  7     ecut=    90.00 Ry     beta= 0.70
     Davidson diagonalization with overlap
     ethr =  5.88E-06,  avg # of iterations =  2.0

     total cpu time spent up to now is        9.3 secs

     total energy              =    -417.88312692 Ry
     estimated scf accuracy    <       0.00007512 Ry

     iteration #  8     ecut=    90.00 Ry     beta= 0.70
     Davidson diagonalization with overlap
     ethr =  7.83E-08,  avg # of iterations =  5.1

     total cpu time spent up to now is       10.7 secs

     total energy              =    -417.88321004 Ry
     estimated scf accuracy    <       0.00031645 Ry

     iteration #  9     ecut=    90.00 Ry     beta= 0.70
     Davidson diagonalization with overlap
     ethr =  7.83E-08,  avg # of iterations =  2.0

     total cpu time spent up to now is       11.4 secs

     total energy              =    -417.88316616 Ry
     estimated scf accuracy    <       0.00013017 Ry

     iteration # 10     ecut=    90.00 Ry     beta= 0.70
     Davidson diagonalization with overlap
     ethr =  7.83E-08,  avg # of iterations =  3.0

     total cpu time spent up to now is       12.4 secs

     total energy              =    -417.88318455 Ry
     estimated scf accuracy    <       0.00000783 Ry

     iteration # 11     ecut=    90.00 Ry     beta= 0.70
     Davidson diagonalization with overlap
     ethr =  8.16E-09,  avg # of iterations =  2.6

     total cpu time spent up to now is       13.3 secs

     total energy              =    -417.88318538 Ry
     estimated scf accuracy    <       0.00000175 Ry

     iteration # 12     ecut=    90.00 Ry     beta= 0.70
     Davidson diagonalization with overlap
     ethr =  1.83E-09,  avg # of iterations =  3.0

     total cpu time spent up to now is       14.2 secs

     End of self-consistent calculation

          k = 0.0000 0.0000 0.0000 ( 26363 PWs)   bands (ev):

   -21.2065 -20.6237 -20.6237 -20.3488 -20.3488 -20.3239 -20.3239 -20.2985
   -20.2906 -19.9169 -19.9169 -19.5290  -8.4128  -8.1837  -8.1254  -8.1254
    -7.9987  -7.9987  -7.5613  -7.4086  -7.4086  -7.1801  -7.1801  -7.0076
    -6.9584  -5.8923  -5.8923  -5.2112  -5.2112  -5.1343  -5.1343  -4.8122
    -4.5722  -3.8847  -3.8847  -3.1821  -2.6410  -2.6410  -2.5277  -2.4334
    -2.3743  -2.3743  -2.2215  -2.2215  -2.1739  -2.1553  -2.0931  -2.0931

          k =-0.1498-0.0865 0.3111 ( 26294 PWs)   bands (ev):

   -21.1139 -20.6734 -20.6087 -20.5288 -20.5034 -20.4105 -20.2314 -20.1797
   -20.1101 -19.9262 -19.8736 -19.6034  -8.3478  -8.2522  -8.1673  -8.1131
    -7.9827  -7.9136  -7.5788  -7.3858  -7.3524  -7.2171  -7.0583  -7.0217
    -6.7732  -6.0569  -5.8999  -5.5994  -5.2354  -5.0728  -4.9325  -4.6726
    -4.6101  -3.8743  -3.8073  -3.3220  -2.7916  -2.7033  -2.5607  -2.4873
    -2.4210  -2.3743  -2.3258  -2.2568  -2.1723  -2.1324  -2.0828  -2.0291

          k = 0.2996 0.1730-0.6221 ( 26262 PWs)   bands (ev):

   -20.8778 -20.8653 -20.6575 -20.6240 -20.5047 -20.4927 -20.1679 -20.1473
   -19.9407 -19.9281 -19.8019 -19.7672  -8.3071  -8.2497  -8.1597  -8.1240
    -7.9946  -7.9171  -7.5249  -7.3848  -7.3286  -7.2278  -6.9561  -6.9546
    -6.4766  -6.3200  -5.9530  -5.7950  -5.2361  -5.1440  -4.9179  -4.7485
    -4.1407  -4.0460  -3.7390  -3.5049  -2.9272  -2.7352  -2.5856  -2.5627
    -2.4716  -2.4391  -2.3351  -2.2588  -2.2450  -2.0881  -2.0676  -1.9767

          k =-0.1498 0.0865 0.6221 ( 26261 PWs)   bands (ev):

   -20.9250 -20.7535 -20.7356 -20.5852 -20.5600 -20.4803 -20.1710 -20.0699
   -20.0233 -19.8773 -19.8558 -19.7381  -8.3176  -8.2219  -8.2055  -8.0851
    -8.0081  -7.8986  -7.5223  -7.4381  -7.3701  -7.0957  -7.0152  -6.9506
    -6.4841  -6.2401  -6.1246  -5.5962  -5.3916  -5.1903  -4.8349  -4.6101
    -4.3869  -3.8435  -3.8007  -3.5287  -2.8982  -2.7885  -2.5763  -2.5174
    -2.4790  -2.4205  -2.3636  -2.2668  -2.2304  -2.0975  -2.0748  -1.9691

          k = 0.2996 0.3460-0.3111 ( 26269 PWs)   bands (ev):

   -20.9930 -20.7954 -20.6500 -20.6348 -20.5162 -20.4407 -20.1697 -20.0501
   -20.0348 -19.9206 -19.8486 -19.7081  -8.3299  -8.3013  -8.1303  -8.1002
    -8.0306  -7.9196  -7.5798  -7.5106  -7.3603  -7.0581  -7.0277  -6.9364
    -6.6263  -6.2697  -6.0011  -5.6217  -5.5735  -4.9905  -4.8028  -4.5072
    -4.2535  -4.0153  -3.7886  -3.4907  -2.7786  -2.6998  -2.5963  -2.5186
    -2.4438  -2.3803  -2.3168  -2.2972  -2.1932  -2.1505  -2.0754  -1.9498

          k = 0.1498 0.2595 0.0000 ( 26246 PWs)   bands (ev):

   -21.1401 -20.7238 -20.6514 -20.4842 -20.4521 -20.3511 -20.2569 -20.1654
   -20.1189 -19.9322 -19.8856 -19.5884  -8.3911  -8.2707  -8.1552  -8.1005
    -7.9622  -7.9523  -7.6633  -7.4956  -7.2756  -7.1823  -7.0916  -6.9529
    -6.9341  -6.0232  -5.8696  -5.5971  -5.4794  -4.9402  -4.7769  -4.6594
    -4.4386  -3.9605  -3.8686  -3.2664  -2.6451  -2.6162  -2.5711  -2.4791
    -2.4269  -2.3923  -2.2495  -2.2298  -2.1919  -2.1730  -2.0487  -2.0299

          k = 0.2996-0.1730-1.2442 ( 26228 PWs)   bands (ev):

   -20.9822 -20.9297 -20.6740 -20.5416 -20.4554 -20.3728 -20.1914 -20.1383
   -20.0069 -19.9738 -19.7519 -19.7310  -8.3652  -8.3180  -8.1566  -8.1242
    -7.9402  -7.9247  -7.6802  -7.5863  -7.2676  -7.2074  -6.9965  -6.9425
    -6.5213  -6.4816  -5.9493  -5.7292  -5.3808  -5.0678  -4.6270  -4.3648
    -4.2471  -4.2065  -3.7004  -3.4945  -2.6703  -2.6026  -2.5734  -2.5302
    -2.4320  -2.3457  -2.3356  -2.2403  -2.2339  -2.1659  -2.0048  -1.9916

          k = 0.0000 0.0000 0.9332 ( 26255 PWs)   bands (ev):

   -20.8590 -20.8590 -20.7598 -20.6918 -20.4681 -20.4681 -20.0774 -20.0774
   -19.9384 -19.8689 -19.8471 -19.8471  -8.3006  -8.3006  -8.1440  -8.0386
    -8.0252  -8.0252  -7.5916  -7.4719  -7.4719  -6.9511  -6.9511  -6.9034
    -6.3887  -6.3887  -6.3854  -5.6427  -5.2932  -5.2932  -4.5668  -4.3603
    -4.3603  -3.8608  -3.8608  -3.7019  -2.7082  -2.7082  -2.5767  -2.4787
    -2.4130  -2.4130  -2.3403  -2.2710  -2.2710  -2.1309  -2.1309  -1.9214

          k = 0.4494 0.2595 0.0000 ( 26273 PWs)   bands (ev):

   -21.0171 -20.8100 -20.7968 -20.5420 -20.3873 -20.3637 -20.2082 -20.1933
   -20.0077 -19.8858 -19.8421 -19.6950  -8.3569  -8.3070  -8.2240  -8.0494
    -7.9815  -7.9129  -7.6965  -7.5265  -7.3800  -7.0844  -7.0196  -6.9700
    -6.6494  -6.2206  -6.1306  -5.6769  -5.3813  -5.0688  -4.5599  -4.5224
    -4.2925  -3.9740  -3.8312  -3.4660  -2.6452  -2.6359  -2.5571  -2.5348
    -2.4455  -2.3718  -2.2949  -2.2656  -2.1980  -2.1389  -2.0663  -1.9698

          k = 0.2996 0.1730 0.3111 ( 26279 PWs)   bands (ev):

   -21.0515 -20.7331 -20.6239 -20.6060 -20.5020 -20.4287 -20.1890 -20.1581
   -20.0613 -19.9154 -19.8427 -19.6502  -8.3544  -8.2871  -8.1941  -8.0484
    -8.0299  -7.8532  -7.6220  -7.4636  -7.2612  -7.1792  -7.1162  -6.9988
    -6.6604  -6.0484  -5.8564  -5.7624  -5.5233  -5.1039  -4.7752  -4.5439
    -4.3920  -3.9371  -3.8070  -3.3592  -2.8013  -2.7201  -2.6241  -2.5645
    -2.4428  -2.3961  -2.3020  -2.2559  -2.1544  -2.1107  -2.0375  -2.0221

          k = 0.4494-0.2595-0.9332 ( 26264 PWs)   bands (ev):

   -20.8925 -20.8802 -20.7145 -20.6290 -20.4858 -20.3943 -20.2369 -20.1345
   -19.9536 -19.8926 -19.8253 -19.7213  -8.3831  -8.2713  -8.2244  -8.0501
    -7.9968  -7.8335  -7.6825  -7.4288  -7.2856  -7.2223  -7.0452  -7.0042
    -6.3468  -6.3008  -5.9327  -5.7884  -5.5748  -5.2069  -4.7204  -4.4130
    -4.0970  -4.0276  -3.8441  -3.4429  -2.7924  -2.7451  -2.7001  -2.5656
    -2.5234  -2.4217  -2.2380  -2.2114  -2.1664  -2.1244  -2.0400  -1.9792

          k = 0.2996-0.3460-0.6221 ( 26286 PWs)   bands (ev):

   -20.8350 -20.8158 -20.6970 -20.6750 -20.5285 -20.5232 -20.1441 -20.1301
   -19.9421 -19.9288 -19.7970 -19.7570  -8.3964  -8.1759  -8.1435  -8.1152
    -8.0724  -7.8346  -7.5546  -7.4477  -7.2490  -7.2031  -7.0140  -7.0077
    -6.3079  -6.1704  -5.9791  -5.8534  -5.4800  -5.4369  -4.6297  -4.5520
    -4.1038  -4.0624  -3.8365  -3.4255  -2.9625  -2.7662  -2.6953  -2.6150
    -2.5418  -2.3791  -2.2971  -2.2453  -2.2135  -2.0724  -2.0505  -1.9562

          k = 0.0000 0.0000-1.8663 ( 26250 PWs)   bands (ev):

   -20.7890 -20.7447 -20.6612 -20.6612 -20.6492 -20.6492 -20.0541 -20.0541
   -19.9951 -19.9951 -19.7778 -19.7414  -8.4520  -8.1227  -8.1227  -8.1116
    -8.1116  -7.8055  -7.6072  -7.4544  -7.1403  -7.1403  -7.1074  -7.1074
    -6.0955  -5.9396  -5.8536  -5.8536  -5.8225  -5.8225  -4.3765  -4.3765
    -4.1531  -4.1531  -3.8420  -3.3699  -2.9985  -2.7728  -2.7728  -2.6628
    -2.6628  -2.3129  -2.2975  -2.1620  -2.1620  -2.0887  -2.0887  -1.9250

          k = 0.2996-0.3460 0.3111 ( 26269 PWs)   bands (ev):

   -20.9933 -20.7917 -20.6701 -20.6200 -20.5123 -20.4407 -20.1731 -20.0702
   -20.0003 -19.9430 -19.8363 -19.7111  -8.3488  -8.2627  -8.1665  -8.0926
    -8.0088  -7.9240  -7.6373  -7.4705  -7.3369  -7.1035  -6.9840  -6.9599
    -6.6135  -6.1914  -6.1157  -5.6668  -5.4216  -5.0660  -4.8866  -4.4038
    -4.2210  -4.0031  -3.8814  -3.4585  -2.7905  -2.6636  -2.6120  -2.5120
    -2.4596  -2.3863  -2.3201  -2.2939  -2.2136  -2.1135  -2.0756  -1.9602

     highest occupied level (ev):    -1.9214

!    total energy              =    -417.88318596 Ry
     estimated scf accuracy    <       0.00000001 Ry

     The total energy is the sum of the following terms:
     one-electron contribution =    -277.04998691 Ry
     hartree contribution      =     175.59966792 Ry
     xc contribution           =    -106.70904577 Ry
     ewald contribution        =    -209.72382119 Ry

     convergence has been achieved in  12 iterations

     Forces acting on atoms (cartesian axes, Ry/au):

     atom    1 type  2   force =    -0.01073876    0.00924210   -0.00726600
     atom    2 type  2   force =     0.01073876   -0.00924210    0.00726600
     atom    3 type  2   force =    -0.00263452   -0.01392109   -0.00726600
     atom    4 type  2   force =     0.00263452    0.01392109    0.00726600
     atom    5 type  2   force =     0.01337328    0.00467899   -0.00726600
     atom    6 type  2   force =    -0.01337328   -0.00467899    0.00726600
     atom    7 type  2   force =     0.01519133   -0.00449877    0.00522910
     atom    8 type  2   force =    -0.01519133    0.00449877   -0.00522910
     atom    9 type  2   force =    -0.00369962    0.01540546    0.00522910
     atom   10 type  2   force =     0.00369962   -0.01540546   -0.00522910
     atom   11 type  2   force =    -0.01149171   -0.01090669    0.00522910
     atom   12 type  2   force =     0.01149171    0.01090669   -0.00522910
     atom   13 type  1   force =    -0.01872815    0.01988491   -0.07341715
     atom   14 type  1   force =     0.01872815   -0.01988491    0.07341715
     atom   15 type  1   force =    -0.00785676   -0.02616151   -0.07341715
     atom   16 type  1   force =     0.00785676    0.02616151    0.07341715
     atom   17 type  1   force =     0.02658492    0.00627660   -0.07341715
     atom   18 type  1   force =    -0.02658492   -0.00627660    0.07341715
     atom   19 type  1   force =     0.03329744   -0.03650352    0.06816692
     atom   20 type  1   force =    -0.03329744    0.03650352   -0.06816692
     atom   21 type  1   force =     0.01496426    0.04708818    0.06816692
     atom   22 type  1   force =    -0.01496426   -0.04708818   -0.06816692
     atom   23 type  1   force =    -0.04826169   -0.01058467    0.06816692
     atom   24 type  1   force =     0.04826169    0.01058467   -0.06816692
     atom   25 type  1   force =     0.00112853    0.05320525    0.01051734
     atom   26 type  1   force =    -0.00112853   -0.05320525   -0.01051734
     atom   27 type  1   force =    -0.04664137   -0.02562529    0.01051734
     atom   28 type  1   force =     0.04664137    0.02562529   -0.01051734
     atom   29 type  1   force =     0.04551284   -0.02757996    0.01051734
     atom   30 type  1   force =    -0.04551284    0.02757996   -0.01051734
     atom   31 type  1   force =     0.00897137   -0.04304547   -0.01380561
     atom   32 type  1   force =    -0.00897137    0.04304547    0.01380561
     atom   33 type  1   force =     0.03279278    0.02929217   -0.01380561
     atom   34 type  1   force =    -0.03279278   -0.02929217    0.01380561
     atom   35 type  1   force =    -0.04176416    0.01375330   -0.01380561
     atom   36 type  1   force =     0.04176416   -0.01375330    0.01380561

     Total force =     0.336060     Total SCF correction =     0.000177


     Computing stress (Cartesian axis) and pressure

          total   stress  (Ry/bohr**3)                   (kbar)     P=       93.15
   0.00056588  -0.00000000   0.00000000           83.24       -0.00        0.00
   0.00000000   0.00056588   0.00000000            0.00       83.24        0.00
  -0.00000000   0.00000000   0.00076786           -0.00        0.00      112.96


     BFGS Geometry Optimization
     Energy error            =      0.0E+00 Ry
     Gradient error          =      7.3E-02 Ry/Bohr

     number of scf cycles    =   1
     number of bfgs steps    =   0

     energy             new  =    -417.8831859590 Ry

     new trust radius        =       0.0841899924 bohr
     new conv_thr            =       0.0000001000 Ry


ATOMIC_POSITIONS (crystal)
O                0.2716783471        0.0238127779        0.8535892682
O                0.7283216529        0.9761872331        0.1464107018
O                0.8535892682        0.2716783471        0.0238127779
O                0.1464107018        0.7283216529        0.9761872331
O                0.0238127779        0.8535892682        0.2716783471
O                0.9761872331        0.1464107018        0.7283216529
O                0.4792149641        0.7502401563        0.3319263108
O                0.5207850359        0.2497598437        0.6680736592
O                0.3319263108        0.4792149641        0.7502401563
O                0.6680736592        0.5207850359        0.2497598437
O                0.7502401563        0.3319263108        0.4792149641
O                0.2497598437        0.6680736592        0.5207850359
H                0.1572534530        0.0635085984        0.8038421262
H                0.8427465330        0.9364913936        0.1961578738
H                0.8038421262        0.1572534530        0.0635085984
H                0.1961578738        0.8427465330        0.9364913936
H                0.0635085984        0.8038421262        0.1572534530
H                0.9364913936        0.1961578738        0.8427465330
H                0.4213090923        0.2092151431        1.0024845170
H                0.5786909077        0.7907848719       -0.0024845380
H                1.0024845170        0.4213090923        0.2092151431
H               -0.0024845380        0.5786909077        0.7907848719
H                0.2092151431        1.0024845170        0.4213090923
H                0.7907848719       -0.0024845380        0.5786909077
H                0.7186711461        0.4045319355        0.3945754438
H                0.2813288539        0.5954680345        0.6054245862
H                0.3945754438        0.7186711461        0.4045319355
H                0.6054245862        0.2813288539        0.5954680345
H                0.4045319355        0.3945754438        0.7186711461
H                0.5954680345        0.6054245862        0.2813288539
H                0.7412188482        0.1996760610        0.3594578384
H                0.2587811518        0.8003239240        0.6405421616
H                0.3594578384        0.7412188482        0.1996760610
H                0.6405421616        0.2587811518        0.8003239240
H                0.1996760610        0.3594578384        0.7412188482
H                0.8003239240        0.6405421616        0.2587811518



     Writing config-only to output data dir ./iceII/iceII.save/ :
     XML data file
     NEW-OLD atomic charge density approx. for the potential

     total cpu time spent up to now is       15.5 secs

     per-process dynamical memory:    21.6 Mb

     Self-consistent Calculation

     iteration #  1     ecut=    90.00 Ry     beta= 0.70
     Davidson diagonalization with overlap
     ethr =  1.00E-06,  avg # of iterations =  7.0

     total cpu time spent up to now is       17.2 secs

     total energy              =    -417.95671563 Ry
     estimated scf accuracy    <       0.00925344 Ry

     iteration #  2     ecut=    90.00 Ry     beta= 0.70
     Davidson diagonalization with overlap
     ethr =  9.64E-06,  avg # of iterations =  3.0

     total cpu time spent up to now is       18.2 secs

     total energy              =    -417.95926646 Ry
     estimated scf accuracy    <       0.00365601 Ry

     iteration #  3     ecut=    90.00 Ry     beta= 0.70
     Davidson diagonalization with overlap
     ethr =  3.81E-06,  avg # of iterations =  2.0

     total cpu time spent up to now is       19.1 secs

     total energy              =    -417.95987695 Ry
     estimated scf accuracy    <       0.00011287 Ry

     iteration #  4     ecut=    90.00 Ry     beta= 0.70
     Davidson diagonalization with overlap
     ethr =  1.18E-07,  avg # of iterations =  4.1

     total cpu time spent up to now is       20.2 secs

     total energy              =    -417.95994410 Ry
     estimated scf accuracy    <       0.00011476 Ry

     iteration #  5     ecut=    90.00 Ry     beta= 0.70
     Davidson diagonalization with overlap
     ethr =  1.18E-07,  avg # of iterations =  2.0

     total cpu time spent up to now is       21.1 secs

     total energy              =    -417.95995318 Ry
     estimated scf accuracy    <       0.00001215 Ry

     iteration #  6     ecut=    90.00 Ry     beta= 0.70
     Davidson diagonalization with overlap
     ethr =  1.27E-08,  avg # of iterations =  4.0

     total cpu time spent up to now is       22.3 secs

     total energy              =    -417.95995894 Ry
     estimated scf accuracy    <       0.00000850 Ry

     iteration #  7     ecut=    90.00 Ry     beta= 0.70
     Davidson diagonalization with overlap
     ethr =  8.86E-09,  avg # of iterations =  2.0

     total cpu time spent up to now is       23.2 secs

     total energy              =    -417.95995985 Ry
     estimated scf accuracy    <       0.00000055 Ry

     iteration #  8     ecut=    90.00 Ry     beta= 0.70
     Davidson diagonalization with overlap
     ethr =  5.71E-10,  avg # of iterations =  3.7

     total cpu time spent up to now is       24.2 secs

     End of self-consistent calculation

          k = 0.0000 0.0000 0.0000 ( 26363 PWs)   bands (ev):

   -20.9122 -20.2978 -20.2978 -20.0161 -20.0161 -19.9786 -19.9786 -19.9552
   -19.9551 -19.5531 -19.5531 -19.1374  -8.2632  -8.0224  -8.0224  -7.9702
    -7.8385  -7.8385  -7.5572  -7.3219  -7.3219  -7.1506  -7.1506  -6.9835
    -6.9299  -5.7366  -5.7366  -5.0504  -5.0504  -5.0205  -5.0205  -4.6067
    -4.4428  -3.7192  -3.7192  -2.9664  -2.5586  -2.5586  -2.4209  -2.3428
    -2.2842  -2.2842  -2.1371  -2.1371  -2.0884  -2.0750  -2.0283  -2.0283

          k =-0.1498-0.0865 0.3111 ( 26294 PWs)   bands (ev):

   -20.8160 -20.3502 -20.2813 -20.2061 -20.1685 -20.0722 -19.8912 -19.8351
   -19.7577 -19.5624 -19.5067 -19.2174  -8.1954  -8.1132  -8.0353  -7.9301
    -7.8265  -7.7732  -7.5387  -7.3455  -7.2744  -7.1864  -7.0371  -7.0000
    -6.6910  -5.9230  -5.7351  -5.4790  -5.1751  -4.8614  -4.8054  -4.4834
    -4.4467  -3.7066  -3.6311  -3.1354  -2.7053  -2.6226  -2.4536  -2.4240
    -2.3404  -2.2734  -2.2405  -2.1671  -2.1040  -2.0502  -2.0164  -1.9580

          k = 0.2996 0.1730-0.6221 ( 26262 PWs)   bands (ev):

   -20.5777 -20.5480 -20.3251 -20.3060 -20.1729 -20.1558 -19.8235 -19.8045
   -19.5888 -19.5554 -19.4169 -19.4040  -8.1519  -8.1020  -8.0063  -7.9725
    -7.8379  -7.7788  -7.4637  -7.3333  -7.2612  -7.2261  -6.9275  -6.9189
    -6.3450  -6.2100  -5.7749  -5.7293  -5.1556  -5.0754  -4.6841  -4.5212
    -3.9296  -3.9100  -3.5683  -3.3596  -2.8342  -2.6637  -2.5103  -2.4701
    -2.3923  -2.3314  -2.2502  -2.2060  -2.1568  -2.0280  -1.9751  -1.9070

          k =-0.1498 0.0865 0.6221 ( 26261 PWs)   bands (ev):

   -20.6206 -20.4366 -20.4152 -20.2584 -20.2297 -20.1445 -19.8285 -19.7185
   -19.6689 -19.5111 -19.4845 -19.3620  -8.1623  -8.0762  -8.0553  -7.9303
    -7.8542  -7.7460  -7.4700  -7.3953  -7.3208  -7.0607  -6.9876  -6.9232
    -6.3529  -6.1196  -6.0033  -5.4889  -5.2834  -5.1050  -4.6186  -4.3972
    -4.2115  -3.6910  -3.6147  -3.3859  -2.8103  -2.7101  -2.5042  -2.4110
    -2.3849  -2.3372  -2.2867  -2.1878  -2.1650  -2.0349  -1.9848  -1.8964

          k = 0.2996 0.3460-0.3111 ( 26269 PWs)   bands (ev):

   -20.6892 -20.4742 -20.3572 -20.2876 -20.1863 -20.1034 -19.8303 -19.7059
   -19.6502 -19.5755 -19.4705 -19.3330  -8.1736  -8.1423  -7.9706  -7.9627
    -7.8863  -7.7763  -7.5569  -7.4723  -7.3264  -7.0178  -6.9980  -6.8865
    -6.5107  -6.1224  -5.8496  -5.5450  -5.4673  -4.8623  -4.5611  -4.3381
    -4.1058  -3.8328  -3.6115  -3.3277  -2.6881  -2.6218  -2.5095  -2.4373
    -2.3538  -2.2859  -2.2406  -2.2179  -2.1274  -2.0851  -1.9840  -1.8751

          k = 0.1498 0.2595 0.0000 ( 26246 PWs)   bands (ev):

   -20.8426 -20.4034 -20.3268 -20.1565 -20.1223 -20.0164 -19.9100 -19.8173
   -19.7614 -19.5690 -19.5218 -19.2022  -8.2379  -8.1132  -8.0298  -7.9255
    -7.8149  -7.8041  -7.6701  -7.4343  -7.2617  -7.1404  -7.0411  -6.9155
    -6.8483  -5.8508  -5.7195  -5.4866  -5.3813  -4.7704  -4.5940  -4.4832
    -4.2992  -3.7901  -3.7070  -3.0525  -2.5638  -2.5334  -2.4836  -2.3966
    -2.3353  -2.3014  -2.1693  -2.1437  -2.1119  -2.1028  -1.9713  -1.9545

          k = 0.2996-0.1730-1.2442 ( 26228 PWs)   bands (ev):

   -20.6767 -20.6212 -20.3500 -20.2188 -20.1227 -20.0423 -19.8338 -19.7924
   -19.6353 -19.6191 -19.3779 -19.3583  -8.2091  -8.1554  -8.0091  -7.9502
    -7.8167  -7.8041  -7.6685  -7.5423  -7.2715  -7.1532  -6.9572  -6.8896
    -6.3680  -6.3639  -5.8188  -5.6304  -5.2501  -4.8960  -4.4209  -4.2069
    -4.0822  -4.0492  -3.5138  -3.3174  -2.5899  -2.5167  -2.4867  -2.4518
    -2.3456  -2.2497  -2.2470  -2.1690  -2.1548  -2.1005  -1.9243  -1.9091

          k = 0.0000 0.0000 0.9332 ( 26255 PWs)   bands (ev):

   -20.5464 -20.5464 -20.4496 -20.3694 -20.1344 -20.1344 -19.7265 -19.7265
   -19.5539 -19.5189 -19.4787 -19.4787  -8.1371  -8.1371  -7.9929  -7.9245
    -7.8801  -7.8801  -7.5574  -7.4343  -7.4343  -6.9154  -6.9154  -6.8510
    -6.2775  -6.2775  -6.1892  -5.6025  -5.1678  -5.1678  -4.3242  -4.1627
    -4.1627  -3.6966  -3.6966  -3.5772  -2.6254  -2.6254  -2.4781  -2.4112
    -2.3176  -2.3176  -2.2346  -2.2112  -2.2112  -2.0533  -2.0533  -1.8465

          k = 0.4494 0.2595 0.0000 ( 26273 PWs)   bands (ev):

   -20.7134 -20.4950 -20.4804 -20.2215 -20.0450 -20.0321 -19.8605 -19.8464
   -19.6368 -19.5226 -19.4767 -19.3181  -8.1982  -8.1443  -8.0702  -7.8875
    -7.8486  -7.8034  -7.6661  -7.4937  -7.3734  -7.0436  -6.9679  -6.9254
    -6.5252  -6.0624  -6.0093  -5.5995  -5.2284  -4.8888  -4.3945  -4.3692
    -4.0937  -3.8071  -3.6666  -3.2796  -2.5624  -2.5505  -2.4745  -2.4538
    -2.3573  -2.2842  -2.2094  -2.1860  -2.1216  -2.0641  -1.9948  -1.8844

          k = 0.2996 0.1730 0.3111 ( 26279 PWs)   bands (ev):

   -20.7504 -20.4118 -20.3020 -20.2838 -20.1700 -20.0919 -19.8476 -19.8007
   -19.7146 -19.5472 -19.4746 -19.2686  -8.1975  -8.1366  -8.0410  -7.8958
    -7.8724  -7.7029  -7.6037  -7.4109  -7.2381  -7.1698  -7.0702  -6.9561
    -6.5537  -5.9089  -5.7205  -5.6076  -5.4375  -4.9164  -4.6156  -4.3823
    -4.2564  -3.7500  -3.6329  -3.1721  -2.7136  -2.6407  -2.5355  -2.4820
    -2.3504  -2.3230  -2.2076  -2.1874  -2.0950  -2.0347  -1.9645  -1.9285

          k = 0.4494-0.2595-0.9332 ( 26264 PWs)   bands (ev):

   -20.5832 -20.5689 -20.3948 -20.3096 -20.1539 -20.0531 -19.8979 -19.7778
   -19.5994 -19.5202 -19.4573 -19.3455  -8.2210  -8.1134  -8.0624  -7.8944
    -7.8470  -7.7245  -7.6278  -7.4081  -7.2633  -7.2135  -7.0049  -6.9521
    -6.2088  -6.1755  -5.8079  -5.6843  -5.4126  -4.9920  -4.6008  -4.2836
    -3.9476  -3.8057  -3.6770  -3.2632  -2.7043  -2.6605  -2.6158  -2.4790
    -2.4375  -2.3485  -2.1657  -2.1314  -2.1078  -2.0548  -1.9628  -1.8777

          k = 0.2996-0.3460-0.6221 ( 26286 PWs)   bands (ev):

   -20.5294 -20.4981 -20.3690 -20.3632 -20.1960 -20.1873 -19.7945 -19.7853
   -19.5803 -19.5701 -19.4193 -19.3842  -8.2338  -8.0276  -7.9844  -7.9613
    -7.9168  -7.6878  -7.4984  -7.4376  -7.2013  -7.1833  -6.9824  -6.9766
    -6.1585  -6.0547  -5.8305  -5.7631  -5.3442  -5.2915  -4.4555  -4.3707
    -3.9650  -3.9175  -3.6226  -3.2788  -2.8614  -2.6872  -2.6144  -2.5247
    -2.4454  -2.3209  -2.2070  -2.1780  -2.1498  -2.0063  -1.9740  -1.8596

          k = 0.0000 0.0000-1.8663 ( 26250 PWs)   bands (ev):

   -20.4676 -20.4332 -20.3609 -20.3609 -20.3046 -20.3046 -19.6764 -19.6764
   -19.6620 -19.6620 -19.4068 -19.3594  -8.2863  -7.9685  -7.9685  -7.9417
    -7.9417  -7.7037  -7.5210  -7.4707  -7.0994  -7.0994  -7.0934  -7.0934
    -5.9129  -5.9036  -5.7122  -5.7122  -5.6458  -5.6458  -4.1938  -4.1938
    -4.0520  -4.0520  -3.6005  -3.2219  -2.8809  -2.6923  -2.6923  -2.5781
    -2.5781  -2.2683  -2.2034  -2.1025  -2.1025  -2.0131  -2.0131  -1.8167

          k = 0.2996-0.3460 0.3111 ( 26269 PWs)   bands (ev):

   -20.6886 -20.4806 -20.3331 -20.3076 -20.1837 -20.1053 -19.8259 -19.6951
   -19.6799 -19.5535 -19.4764 -19.3337  -8.1886  -8.1084  -8.0152  -7.9360
    -7.8655  -7.7908  -7.6148  -7.4219  -7.3061  -7.0719  -6.9582  -6.9035
    -6.4968  -6.0614  -5.9580  -5.5481  -5.3546  -4.9356  -4.6652  -4.2130
    -4.0327  -3.8493  -3.7231  -3.2838  -2.7021  -2.5805  -2.5271  -2.4318
    -2.3798  -2.2833  -2.2364  -2.2139  -2.1575  -2.0453  -1.9859  -1.8841

     highest occupied level (ev):    -1.8167

!    total energy              =    -417.95996011 Ry
     estimated scf accuracy    <       0.00000002 Ry

     The total energy is the sum of the following terms:
     one-electron contribution =    -272.40250762 Ry
     hartree contribution      =     173.57535792 Ry
     xc contribution           =    -106.27157727 Ry
     ewald contribution        =    -212.86123314 Ry

     convergence has been achieved in   8 iterations

     Forces acting on atoms (cartesian axes, Ry/au):

     atom    1 type  2   force =    -0.01313144    0.02702684    0.02701194
     atom    2 type  2   force =     0.01313144   -0.02702684   -0.02701194
     atom    3 type  2   force =    -0.01684021   -0.02488558    0.02701194
     atom    4 type  2   force =     0.01684021    0.02488558   -0.02701194
     atom    5 type  2   force =     0.02997165   -0.00214126    0.02701194
     atom    6 type  2   force =    -0.02997165    0.00214126   -0.02701194
     atom    7 type  2   force =    -0.02613445    0.00788615   -0.01324550
     atom    8 type  2   force =     0.02613445   -0.00788615    0.01324550
     atom    9 type  2   force =     0.00623762   -0.02657617   -0.01324550
     atom   10 type  2   force =    -0.00623762    0.02657617    0.01324550
     atom   11 type  2   force =     0.01989683    0.01869002   -0.01324550
     atom   12 type  2   force =    -0.01989683   -0.01869002    0.01324550
     atom   13 type  1   force =    -0.00810017   -0.00081539   -0.04721191
     atom   14 type  1   force =     0.00810017    0.00081539    0.04721191
     atom   15 type  1   force =     0.00475623   -0.00660726   -0.04721191
     atom   16 type  1   force =    -0.00475623    0.00660726    0.04721191
     atom   17 type  1   force =     0.00334394    0.00742265   -0.04721191
     atom   18 type  1   force =    -0.00334394   -0.00742265    0.04721191
     atom   19 type  1   force =     0.02638940   -0.03278570    0.00907433
     atom   20 type  1   force =    -0.02638940    0.03278570   -0.00907433
     atom   21 type  1   force =     0.01519855    0.03924674    0.00907433
     atom   22 type  1   force =    -0.01519855   -0.03924674   -0.00907433
     atom   23 type  1   force =    -0.04158795   -0.00646104    0.00907433
     atom   24 type  1   force =     0.04158795    0.00646104   -0.00907433
     atom   25 type  1   force =    -0.01127982    0.00307144    0.01378064
     atom   26 type  1   force =     0.01127982   -0.00307144   -0.01378064
     atom   27 type  1   force =     0.00297996   -0.01130433    0.01378064
     atom   28 type  1   force =    -0.00297996    0.01130433   -0.01378064
     atom   29 type  1   force =     0.00829985    0.00823289    0.01378064
     atom   30 type  1   force =    -0.00829985   -0.00823289   -0.01378064
     atom   31 type  1   force =    -0.01031735   -0.02274443    0.00199779
     atom   32 type  1   force =     0.01031735    0.02274443   -0.00199779
     atom   33 type  1   force =     0.02485593    0.00243712    0.00199779
     atom   34 type  1   force =    -0.02485593   -0.00243712   -0.00199779
     atom   35 type  1   force =    -0.01453857    0.02030730    0.00199779
     atom   36 type  1   force =     0.01453857   -0.02030730   -0.00199779

     Total force =     0.214332     Total SCF correction =     0.000100


     Computing stress (Cartesian axis) and pressure

          total   stress  (Ry/bohr**3)                   (kbar)     P=       40.85
   0.00024293   0.00000000   0.00000000           35.74        0.00        0.00
  -0.00000000   0.00024293   0.00000000           -0.00       35.74        0.00
   0.00000000   0.00000000   0.00034724            0.00        0.00       51.08

     Energy error            =      7.7E-02 Ry
     Gradient error          =      4.7E-02 Ry/Bohr

     number of scf cycles    =   2
     number of bfgs steps    =   1

     energy             old  =    -417.8831859590 Ry
     energy             new  =    -417.9599601061 Ry

     CASE: energy            _new < energy            _old

     new trust radius        =       0.1293849922 bohr
     new conv_thr            =       0.0000000472 Ry


ATOMIC_POSITIONS (crystal)
O                0.2726457719        0.0296516841        0.8569734936
O                0.7273542281        0.9703483269        0.1430264764
O                0.8569734936        0.2726457719        0.0296516841
O                0.1430264764        0.7273542281        0.9703483269
O                0.0296516841        0.8569734936        0.2726457719
O                0.9703483269        0.1430264764        0.7273542281
O                0.4760666910        0.7491466937        0.3314714127
O                0.5239333090        0.2508533063        0.6685285573
O                0.3314714127        0.4760666910        0.7491466937
O                0.6685285573        0.5239333090        0.2508533063
O                0.7491466937        0.3314714127        0.4760666910
O                0.2508533063        0.6685285573        0.5239333090
H                0.1447453986        0.0529966183        0.7935255481
H                0.8552545874        0.9470033737        0.2064744519
H                0.7935255481        0.1447453986        0.0529966183
H                0.2064744519        0.8552545874        0.9470033737
H                0.0529966183        0.7935255481        0.1447453986
H                0.9470033737        0.2064744519        0.8552545874
H                0.4313647661        0.2107917027        1.0070050685
H                0.5686352339        0.7892083123       -0.0070050895
H                1.0070050685        0.4313647661        0.2107917027
H               -0.0070050895        0.5686352339        0.7892083123
H                0.2107917027        1.0070050685        0.4313647661
H                0.7892083123       -0.0070050895        0.5686352339
H                0.7195102497        0.4091403124        0.3968912503
H                0.2804897503        0.5908596576        0.6031087797
H                0.3968912503        0.7195102497        0.4091403124
H                0.6031087797        0.2804897503        0.5908596576
H                0.4091403124        0.3968912503        0.7195102497
H                0.5908596576        0.6031087797        0.2804897503
H                0.7418440742        0.1958961386        0.3609741886
H                0.2581559258        0.8041038464        0.6390258114
H                0.3609741886        0.7418440742        0.1958961386
H                0.6390258114        0.2581559258        0.8041038464
H                0.1958961386        0.3609741886        0.7418440742
H                0.8041038464        0.6390258114        0.2581559258



     Writing config-only to output data dir ./iceII/iceII.save/ :
     XML data file
     NEW-OLD atomic charge density approx. for the potential

     total cpu time spent up to now is       25.7 secs

     per-process dynamical memory:    19.5 Mb

     Self-consistent Calculation

     iteration #  1     ecut=    90.00 Ry     beta= 0.70
     Davidson diagonalization with overlap
     ethr =  1.00E-06,  avg # of iterations =  8.5

     total cpu time spent up to now is       27.8 secs

     total energy              =    -418.01986039 Ry
     estimated scf accuracy    <       0.00557123 Ry

     iteration #  2     ecut=    90.00 Ry     beta= 0.70
     Davidson diagonalization with overlap
     ethr =  5.80E-06,  avg # of iterations =  2.0

     total cpu time spent up to now is       28.6 secs

     total energy              =    -418.02070807 Ry
     estimated scf accuracy    <       0.00039164 Ry

     iteration #  3     ecut=    90.00 Ry     beta= 0.70
     Davidson diagonalization with overlap
     ethr =  4.08E-07,  avg # of iterations =  2.0

     total cpu time spent up to now is       29.5 secs

     total energy              =    -418.02076961 Ry
     estimated scf accuracy    <       0.00003683 Ry

     iteration #  4     ecut=    90.00 Ry     beta= 0.70
     Davidson diagonalization with overlap
     ethr =  3.84E-08,  avg # of iterations =  2.2

     total cpu time spent up to now is       30.4 secs

     total energy              =    -418.02077754 Ry
     estimated scf accuracy    <       0.00000392 Ry

     iteration #  5     ecut=    90.00 Ry     beta= 0.70
     Davidson diagonalization with overlap
     ethr =  4.09E-09,  avg # of iterations =  2.1

     total cpu time spent up to now is       31.3 secs

     total energy              =    -418.02077841 Ry
     estimated scf accuracy    <       0.00000013 Ry

     iteration #  6     ecut=    90.00 Ry     beta= 0.70
     Davidson diagonalization with overlap
     ethr =  1.32E-10,  avg # of iterations =  4.2

     total cpu time spent up to now is       32.4 secs

     End of self-consistent calculation

          k = 0.0000 0.0000 0.0000 ( 26363 PWs)   bands (ev):

   -20.7817 -20.1671 -20.1671 -19.8591 -19.8591 -19.8355 -19.8355 -19.8120
   -19.8035 -19.3920 -19.3920 -18.9807  -8.3348  -8.1770  -8.1770  -8.0802
    -7.9620  -7.9620  -7.6655  -7.5527  -7.5527  -7.5221  -7.5221  -7.3496
    -6.9177  -5.5005  -5.5005  -4.8631  -4.8631  -4.7031  -4.7031  -4.3379
    -4.2886  -3.5056  -3.5056  -2.7473  -2.5125  -2.5125  -2.4208  -2.2762
    -2.2762  -2.2715  -2.1253  -2.1253  -2.0821  -1.9772  -1.9618  -1.9618

          k =-0.1498-0.0865 0.3111 ( 26294 PWs)   bands (ev):

   -20.6849 -20.2150 -20.1584 -20.0508 -20.0178 -19.9289 -19.7441 -19.6816
   -19.6080 -19.4032 -19.3475 -19.0597  -8.2776  -8.2136  -8.1653  -8.0642
    -7.9551  -7.9069  -7.7018  -7.6308  -7.5473  -7.4608  -7.4226  -7.3584
    -6.6351  -5.7145  -5.5303  -5.2225  -5.0087  -4.6358  -4.4988  -4.2744
    -4.1496  -3.5004  -3.4058  -2.9243  -2.6352  -2.5684  -2.4393  -2.3798
    -2.3323  -2.2574  -2.1689  -2.1278  -2.0585  -2.0255  -1.9720  -1.9270

          k = 0.2996 0.1730-0.6221 ( 26262 PWs)   bands (ev):

   -20.4597 -20.3979 -20.2024 -20.1415 -20.0416 -20.0038 -19.6847 -19.6383
   -19.4541 -19.3868 -19.2737 -19.2301  -8.2250  -8.2092  -8.1315  -8.0793
    -7.9716  -7.9011  -7.6937  -7.6394  -7.5391  -7.5166  -7.3080  -7.2845
    -6.1619  -6.0420  -5.5782  -5.5584  -4.9754  -4.9067  -4.3236  -4.2036
    -3.7029  -3.6677  -3.3496  -3.1915  -2.7146  -2.6118  -2.4905  -2.4184
    -2.3575  -2.2856  -2.2131  -2.1684  -2.1275  -2.0075  -1.9325  -1.8905

          k =-0.1498 0.0865 0.6221 ( 26261 PWs)   bands (ev):

   -20.4918 -20.3002 -20.2751 -20.1191 -20.0791 -20.0006 -19.6782 -19.5712
   -19.5147 -19.3579 -19.3276 -19.1990  -8.2281  -8.1897  -8.1627  -8.0764
    -7.9661  -7.8733  -7.6856  -7.6636  -7.6188  -7.3883  -7.3505  -7.2977
    -6.1890  -5.9120  -5.8370  -5.3063  -5.0964  -4.9202  -4.2958  -4.0686
    -3.9492  -3.4930  -3.3989  -3.2017  -2.7054  -2.6434  -2.4825  -2.3729
    -2.3320  -2.3043  -2.2466  -2.1452  -2.1399  -2.0138  -1.9469  -1.8755

          k = 0.2996 0.3460-0.3111 ( 26269 PWs)   bands (ev):

   -20.5576 -20.3409 -20.2354 -20.1322 -20.0306 -19.9570 -19.6858 -19.5708
   -19.4681 -19.4409 -19.3060 -19.1731  -8.2394  -8.2227  -8.1191  -8.0687
    -7.9986  -7.9030  -7.8033  -7.7540  -7.6457  -7.3800  -7.3378  -7.2683
    -6.3108  -5.8876  -5.5988  -5.3775  -5.2866  -4.6751  -4.1955  -4.0876
    -3.9170  -3.6012  -3.3722  -3.1196  -2.6132  -2.5794  -2.4799  -2.4167
    -2.3218  -2.2387  -2.2099  -2.1845  -2.1003  -2.0543  -1.9354  -1.8394

          k = 0.1498 0.2595 0.0000 ( 26246 PWs)   bands (ev):

   -20.7115 -20.2738 -20.1962 -20.0076 -19.9679 -19.8611 -19.7682 -19.6734
   -19.6122 -19.4087 -19.3582 -19.0449  -8.3048  -8.2042  -8.1638  -8.0441
    -7.9582  -7.9539  -7.8572  -7.6884  -7.5944  -7.4655  -7.3861  -7.3209
    -6.6776  -5.5820  -5.5030  -5.2569  -5.1775  -4.5381  -4.3328  -4.2039
    -4.1181  -3.5541  -3.4989  -2.8087  -2.5235  -2.4943  -2.4802  -2.3873
    -2.3098  -2.2635  -2.1469  -2.1139  -2.0983  -2.0285  -1.9204  -1.8939

          k = 0.2996-0.1730-1.2442 ( 26228 PWs)   bands (ev):

   -20.5418 -20.4933 -20.2203 -20.0686 -19.9749 -19.8827 -19.6970 -19.6452
   -19.4888 -19.4527 -19.2239 -19.1931  -8.2688  -8.2102  -8.1208  -8.0476
    -8.0010  -7.9787  -7.8888  -7.7930  -7.6273  -7.4617  -7.3404  -7.2764
    -6.1281  -6.1198  -5.5570  -5.4711  -5.0340  -4.6704  -4.1432  -4.0238
    -3.8509  -3.7804  -3.2959  -3.0798  -2.5612  -2.4905  -2.4436  -2.4427
    -2.3382  -2.2029  -2.1987  -2.1419  -2.1324  -2.0532  -1.8698  -1.8615

          k = 0.0000 0.0000 0.9332 ( 26255 PWs)   bands (ev):

   -20.4101 -20.4101 -20.3454 -20.1977 -19.9867 -19.9867 -19.5798 -19.5798
   -19.4307 -19.3280 -19.3219 -19.3219  -8.2121  -8.2121  -8.1197  -8.0809
    -7.9921  -7.9921  -7.7989  -7.7319  -7.7319  -7.2883  -7.2883  -7.2417
    -6.0422  -6.0422  -5.8570  -5.4940  -4.9953  -4.9953  -3.9577  -3.9033
    -3.9033  -3.4675  -3.4675  -3.4051  -2.5700  -2.5700  -2.4469  -2.3994
    -2.2797  -2.2797  -2.1925  -2.1905  -2.1905  -2.0070  -2.0070  -1.8065

          k = 0.4494 0.2595 0.0000 ( 26273 PWs)   bands (ev):

   -20.5812 -20.3603 -20.3538 -20.0648 -19.9104 -19.8720 -19.7207 -19.6894
   -19.4945 -19.3649 -19.3121 -19.1583  -8.2569  -8.2069  -8.1542  -8.0363
    -8.0094  -7.9665  -7.8764  -7.7644  -7.7012  -7.4003  -7.3253  -7.3119
    -6.2963  -5.7880  -5.7588  -5.4596  -5.0001  -4.6528  -4.1728  -4.1430
    -3.8273  -3.5644  -3.4532  -3.0430  -2.5370  -2.5079  -2.4493  -2.4476
    -2.3280  -2.2481  -2.1907  -2.1555  -2.0777  -2.0183  -1.9461  -1.8304

          k = 0.2996 0.1730 0.3111 ( 26279 PWs)   bands (ev):

   -20.6191 -20.2807 -20.1791 -20.1294 -20.0135 -19.9460 -19.6992 -19.6616
   -19.5486 -19.4011 -19.3113 -19.1089  -8.2572  -8.2095  -8.1619  -8.0302
    -7.9904  -7.8600  -7.8332  -7.6241  -7.5731  -7.5293  -7.4064  -7.3193
    -6.4293  -5.7126  -5.5637  -5.2764  -5.2560  -4.6564  -4.3400  -4.1648
    -4.0467  -3.5245  -3.4099  -2.9429  -2.6371  -2.5962  -2.5063  -2.4345
    -2.3361  -2.2903  -2.1752  -2.1468  -2.0625  -2.0059  -1.9262  -1.8900

          k = 0.4494-0.2595-0.9332 ( 26264 PWs)   bands (ev):

   -20.4488 -20.4408 -20.2639 -20.1560 -20.0049 -19.9097 -19.7464 -19.6290
   -19.4403 -19.3773 -19.3028 -19.1768  -8.2358  -8.1972  -8.1425  -8.0339
    -7.9926  -7.9269  -7.8032  -7.7105  -7.5986  -7.5433  -7.3694  -7.3176
    -6.0527  -5.9394  -5.5889  -5.5237  -5.1414  -4.6693  -4.4067  -4.1017
    -3.7229  -3.5661  -3.4613  -3.0163  -2.6290  -2.6091  -2.5631  -2.4432
    -2.3985  -2.3391  -2.1383  -2.1037  -2.0832  -2.0188  -1.9257  -1.8371

          k = 0.2996-0.3460-0.6221 ( 26286 PWs)   bands (ev):

   -20.4141 -20.3468 -20.2416 -20.2113 -20.0528 -20.0358 -19.6530 -19.6289
   -19.4297 -19.4087 -19.2879 -19.2023  -8.2501  -8.1523  -8.1055  -8.0652
    -8.0246  -7.8340  -7.7512  -7.7086  -7.5174  -7.5026  -7.3590  -7.3437
    -5.9706  -5.9211  -5.6418  -5.5727  -5.0899  -5.0332  -4.1812  -4.0980
    -3.7570  -3.7146  -3.4024  -3.0921  -2.7164  -2.6319  -2.5685  -2.4770
    -2.3892  -2.2831  -2.1903  -2.1543  -2.1222  -1.9887  -1.9513  -1.8218

          k = 0.0000 0.0000-1.8663 ( 26250 PWs)   bands (ev):

   -20.3569 -20.2607 -20.2460 -20.2460 -20.1400 -20.1400 -19.5475 -19.5475
   -19.4857 -19.4857 -19.2801 -19.1748  -8.2658  -8.0714  -8.0714  -8.0581
    -8.0581  -7.8770  -7.8034  -7.6963  -7.4540  -7.4540  -7.4537  -7.4537
    -5.8988  -5.7391  -5.4715  -5.4715  -5.3343  -5.3343  -3.9249  -3.9249
    -3.8846  -3.8846  -3.3959  -3.0279  -2.6780  -2.6375  -2.6375  -2.5366
    -2.5366  -2.2294  -2.1947  -2.0760  -2.0760  -2.0018  -2.0018  -1.7720

          k = 0.2996-0.3460 0.3111 ( 26269 PWs)   bands (ev):

   -20.5564 -20.3529 -20.2052 -20.1523 -20.0294 -19.9606 -19.6761 -19.5612
   -19.5211 -19.3897 -19.3211 -19.1726  -8.2481  -8.2075  -8.1239  -8.0386
    -8.0134  -7.9285  -7.8459  -7.7033  -7.6375  -7.3755  -7.3439  -7.2762
    -6.3126  -5.8649  -5.6631  -5.3436  -5.2209  -4.7470  -4.3221  -3.9491
    -3.7994  -3.6364  -3.5033  -3.0640  -2.6235  -2.5471  -2.4873  -2.4190
    -2.3297  -2.2513  -2.2098  -2.1818  -2.1275  -2.0105  -1.9407  -1.8467

     highest occupied level (ev):    -1.7720

!    total energy              =    -418.02077845 Ry
     estimated scf accuracy    <       0.00000004 Ry

     The total energy is the sum of the following terms:
     one-electron contribution =    -270.50040539 Ry
     hartree contribution      =     172.75127349 Ry
     xc contribution           =    -106.20060937 Ry
     ewald contribution        =    -214.07103717 Ry

     convergence has been achieved in   6 iterations

     Forces acting on atoms (cartesian axes, Ry/au):

     atom    1 type  2   force =    -0.00390826    0.00845520    0.00598802
     atom    2 type  2   force =     0.00390826   -0.00845520   -0.00598802
     atom    3 type  2   force =    -0.00536829   -0.00761226    0.00598802
     atom    4 type  2   force =     0.00536829    0.00761226   -0.00598802
     atom    5 type  2   force =     0.00927655   -0.00084295    0.00598802
     atom    6 type  2   force =    -0.00927655    0.00084295   -0.00598802
     atom    7 type  2   force =    -0.00906166    0.01041697   -0.01545129
     atom    8 type  2   force =     0.00906166   -0.01041697    0.01545129
     atom    9 type  2   force =    -0.00449053   -0.01305612   -0.01545129
     atom   10 type  2   force =     0.00449053    0.01305612    0.01545129
     atom   11 type  2   force =     0.01355220    0.00263914   -0.01545129
     atom   12 type  2   force =    -0.01355220   -0.00263914    0.01545129
     atom   13 type  1   force =    -0.00170697   -0.00878635   -0.00742179
     atom   14 type  1   force =     0.00170697    0.00878635    0.00742179
     atom   15 type  1   force =     0.00846268    0.00291490   -0.00742179
     atom   16 type  1   force =    -0.00846268   -0.00291490    0.00742179
     atom   17 type  1   force =    -0.00675572    0.00587145   -0.00742179
     atom   18 type  1   force =     0.00675572   -0.00587145    0.00742179
     atom   19 type  1   force =     0.01172706   -0.00334626   -0.00644782
     atom   20 type  1   force =    -0.01172706    0.00334626    0.00644782
     atom   21 type  1   force =    -0.00296559    0.01182906   -0.00644782
     atom   22 type  1   force =     0.00296559   -0.01182906    0.00644782
     atom   23 type  1   force =    -0.00876148   -0.00848281   -0.00644782
     atom   24 type  1   force =     0.00876148    0.00848281    0.00644782
     atom   25 type  1   force =    -0.00027125   -0.00452593    0.00753621
     atom   26 type  1   force =     0.00027125    0.00452593   -0.00753621
     atom   27 type  1   force =     0.00405519    0.00202806    0.00753621
     atom   28 type  1   force =    -0.00405519   -0.00202806   -0.00753621
     atom   29 type  1   force =    -0.00378394    0.00249787    0.00753621
     atom   30 type  1   force =     0.00378394   -0.00249787   -0.00753621
     atom   31 type  1   force =    -0.01157210   -0.00069721    0.00598979
     atom   32 type  1   force =     0.01157210    0.00069721   -0.00598979
     atom   33 type  1   force =     0.00638985   -0.00967312    0.00598979
     atom   34 type  1   force =    -0.00638985    0.00967312   -0.00598979
     atom   35 type  1   force =     0.00518224    0.01037034    0.00598979
     atom   36 type  1   force =    -0.00518224   -0.01037034   -0.00598979

     Total force =     0.082162     Total SCF correction =     0.000236


     Computing stress (Cartesian axis) and pressure

          total   stress  (Ry/bohr**3)                   (kbar)     P=       26.60
   0.00016111   0.00000000  -0.00000000           23.70        0.00       -0.00
  -0.00000000   0.00016111   0.00000000           -0.00       23.70        0.00
  -0.00000000   0.00000000   0.00022034           -0.00        0.00       32.41

     Energy error            =      6.1E-02 Ry
     Gradient error          =      1.5E-02 Ry/Bohr

     number of scf cycles    =   3
     number of bfgs steps    =   2

     energy             old  =    -417.9599601061 Ry
     energy             new  =    -418.0207784505 Ry

     CASE: energy            _new < energy            _old

     new trust radius        =       0.0312359186 bohr
     new conv_thr            =       0.0000000155 Ry


ATOMIC_POSITIONS (crystal)
O                0.2726096339        0.0310303739        0.8576383492
O                0.7273903661        0.9689696371        0.1423616208
O                0.8576383492        0.2726096339        0.0310303739
O                0.1423616208        0.7273903661        0.9689696371
O                0.0310303739        0.8576383492        0.2726096339
O                0.9689696371        0.1423616208        0.7273903661
O                0.4737296988        0.7481079351        0.3299335102
O                0.5262703012        0.2518920649        0.6700664598
O                0.3299335102        0.4737296988        0.7481079351
O                0.6700664598        0.5262703012        0.2518920649
O                0.7481079351        0.3299335102        0.4737296988
O                0.2518920649        0.6700664598        0.5262703012
H                0.1419699082        0.0500730810        0.7913509093
H                0.8580300778        0.9499269110        0.2086490907
H                0.7913509093        0.1419699082        0.0500730810
H                0.2086490907        0.8580300778        0.9499269110
H                0.0500730810        0.7913509093        0.1419699082
H                0.9499269110        0.2086490907        0.8580300778
H                0.4335330010        0.2108299348        1.0071303060
H                0.5664669990        0.7891700802       -0.0071303270
H                1.0071303060        0.4335330010        0.2108299348
H               -0.0071303270        0.5664669990        0.7891700802
H                0.2108299348        1.0071303060        0.4335330010
H                0.7891700802       -0.0071303270        0.5664669990
H                0.7204125110        0.4106104551        0.3978700040
H                0.2795874890        0.5893895149        0.6021300260
H                0.3978700040        0.7204125110        0.4106104551
H                0.6021300260        0.2795874890        0.5893895149
H                0.4106104551        0.3978700040        0.7204125110
H                0.5893895149        0.6021300260        0.2795874890
H                0.7419829182        0.1956472741        0.3621963992
H                0.2580170818        0.8043527109        0.6378036008
H                0.3621963992        0.7419829182        0.1956472741
H                0.6378036008        0.2580170818        0.8043527109
H                0.1956472741        0.3621963992        0.7419829182
H                0.8043527109        0.6378036008        0.2580170818



     Writing config-only to output data dir ./iceII/iceII.save/ :
     XML data file
     NEW-OLD atomic charge density approx. for the potential

     total cpu time spent up to now is       33.8 secs

     per-process dynamical memory:    18.4 Mb

     Self-consistent Calculation

     iteration #  1     ecut=    90.00 Ry     beta= 0.70
     Davidson diagonalization with overlap
     ethr =  1.00E-06,  avg # of iterations =  6.0

     total cpu time spent up to now is       35.3 secs

     total energy              =    -418.02556145 Ry
     estimated scf accuracy    <       0.00108971 Ry

     iteration #  2     ecut=    90.00 Ry     beta= 0.70
     Davidson diagonalization with overlap
     ethr =  1.14E-06,  avg # of iterations =  2.0

     total cpu time spent up to now is       36.2 secs

     total energy              =    -418.02581585 Ry
     estimated scf accuracy    <       0.00018252 Ry

     iteration #  3     ecut=    90.00 Ry     beta= 0.70
     Davidson diagonalization with overlap
     ethr =  1.90E-07,  avg # of iterations =  2.0

     total cpu time spent up to now is       37.1 secs

     total energy              =    -418.02585195 Ry
     estimated scf accuracy    <       0.00000833 Ry

     iteration #  4     ecut=    90.00 Ry     beta= 0.70
     Davidson diagonalization with overlap
     ethr =  8.67E-09,  avg # of iterations =  2.1

     total cpu time spent up to now is       37.9 secs

     total energy              =    -418.02585339 Ry
     estimated scf accuracy    <       0.00000132 Ry

     iteration #  5     ecut=    90.00 Ry     beta= 0.70
     Davidson diagonalization with overlap
     ethr =  1.37E-09,  avg # of iterations =  2.1

     total cpu time spent up to now is       38.9 secs

     total energy              =    -418.02585370 Ry
     estimated scf accuracy    <       0.00000011 Ry

     iteration #  6     ecut=    90.00 Ry     beta= 0.70
     Davidson diagonalization with overlap
     ethr =  1.15E-10,  avg # of iterations =  3.0

     total cpu time spent up to now is       39.9 secs

     total energy              =    -418.02585372 Ry
     estimated scf accuracy    <       0.00000003 Ry

     iteration #  7     ecut=    90.00 Ry     beta= 0.70
     Davidson diagonalization with overlap
     ethr =  2.93E-11,  avg # of iterations =  3.0

     total cpu time spent up to now is       40.9 secs

     End of self-consistent calculation

          k = 0.0000 0.0000 0.0000 ( 26363 PWs)   bands (ev):

   -20.7943 -20.1891 -20.1891 -19.8606 -19.8606 -19.8597 -19.8597 -19.8227
   -19.8206 -19.3975 -19.3975 -19.0004  -8.4553  -8.2607  -8.2607  -8.1848
    -8.1015  -8.1015  -7.7407  -7.6688  -7.6688  -7.6270  -7.6270  -7.4649
    -6.8292  -5.4281  -5.4281  -4.8183  -4.8183  -4.6085  -4.6085  -4.2667
    -4.2563  -3.4558  -3.4558  -2.7167  -2.5241  -2.5241  -2.4319  -2.2794
    -2.2794  -2.2620  -2.1158  -2.1158  -2.1054  -1.9609  -1.9609  -1.9568

          k =-0.1498-0.0865 0.3111 ( 26294 PWs)   bands (ev):

   -20.6994 -20.2378 -20.1912 -20.0521 -20.0115 -19.9367 -19.7671 -19.7038
   -19.6320 -19.4060 -19.3532 -19.0752  -8.3980  -8.3101  -8.2577  -8.1691
    -8.0916  -8.0326  -7.7898  -7.7323  -7.6501  -7.5621  -7.5349  -7.4761
    -6.5598  -5.6418  -5.4609  -5.1523  -4.9574  -4.5836  -4.4026  -4.2219
    -4.0714  -3.4571  -3.3607  -2.8862  -2.6359  -2.5769  -2.4510  -2.3796
    -2.3383  -2.2636  -2.1629  -2.1163  -2.0675  -2.0149  -1.9690  -1.9288

          k = 0.2996 0.1730-0.6221 ( 26262 PWs)   bands (ev):

   -20.4899 -20.4058 -20.2323 -20.1378 -20.0486 -19.9971 -19.7227 -19.6540
   -19.4879 -19.3865 -19.2964 -19.2215  -8.3298  -8.3215  -8.2317  -8.1998
    -8.0977  -8.0129  -7.7817  -7.7307  -7.6495  -7.6219  -7.4296  -7.4038
    -6.0780  -5.9748  -5.5203  -5.4814  -4.9156  -4.8550  -4.2292  -4.1226
    -3.6512  -3.6153  -3.3093  -3.1591  -2.6967  -2.6213  -2.4976  -2.4221
    -2.3697  -2.2675  -2.2147  -2.1869  -2.1168  -2.0110  -1.9213  -1.8956

          k =-0.1498 0.0865 0.6221 ( 26261 PWs)   bands (ev):

   -20.5152 -20.3220 -20.2912 -20.1277 -20.0742 -20.0028 -19.7050 -19.6052
   -19.5323 -19.3687 -19.3363 -19.1999  -8.3380  -8.2915  -8.2755  -8.1856
    -8.0924  -7.9954  -7.7754  -7.7524  -7.7154  -7.5046  -7.4676  -7.4182
    -6.1154  -5.8325  -5.7679  -5.2423  -5.0414  -4.8591  -4.2153  -3.9827
    -3.8829  -3.4518  -3.3653  -3.1606  -2.6947  -2.6453  -2.4936  -2.3843
    -2.3262  -2.3110  -2.2391  -2.1490  -2.1388  -2.0154  -1.9398  -1.8768

          k = 0.2996 0.3460-0.3111 ( 26269 PWs)   bands (ev):

   -20.5738 -20.3604 -20.2650 -20.1291 -20.0324 -19.9668 -19.7090 -19.6033
   -19.4791 -19.4544 -19.3088 -19.1825  -8.3523  -8.3341  -8.2138  -8.1807
    -8.1218  -8.0110  -7.9015  -7.8472  -7.7398  -7.4938  -7.4565  -7.3918
    -6.2289  -5.8052  -5.5365  -5.3211  -5.2179  -4.6135  -4.1089  -4.0235
    -3.8706  -3.5566  -3.3238  -3.0723  -2.6085  -2.5855  -2.4911  -2.4190
    -2.3237  -2.2397  -2.2088  -2.1878  -2.1059  -2.0557  -1.9235  -1.8392

          k = 0.1498 0.2595 0.0000 ( 26246 PWs)   bands (ev):

   -20.7246 -20.2935 -20.2170 -20.0239 -19.9748 -19.8681 -19.7878 -19.6874
   -19.6335 -19.4147 -19.3622 -19.0626  -8.4234  -8.2982  -8.2587  -8.1567
    -8.0845  -8.0772  -7.9354  -7.7923  -7.6940  -7.5721  -7.5033  -7.4402
    -6.5934  -5.5011  -5.4448  -5.1911  -5.1131  -4.4688  -4.2687  -4.1311
    -4.0781  -3.5006  -3.4497  -2.7668  -2.5316  -2.5048  -2.4921  -2.3894
    -2.3075  -2.2576  -2.1473  -2.1321  -2.0995  -2.0129  -1.9169  -1.8897

          k = 0.2996-0.1730-1.2442 ( 26228 PWs)   bands (ev):

   -20.5562 -20.5089 -20.2405 -20.0841 -19.9842 -19.8895 -19.7226 -19.6575
   -19.5099 -19.4544 -19.2393 -19.2013  -8.3769  -8.3260  -8.2326  -8.1650
    -8.0786  -8.0782  -8.0017  -7.8922  -7.7264  -7.5635  -7.4602  -7.4003
    -6.0475  -6.0419  -5.4775  -5.4264  -4.9702  -4.5995  -4.0784  -3.9907
    -3.7874  -3.7164  -3.2573  -3.0212  -2.5652  -2.5006  -2.4568  -2.4452
    -2.3332  -2.2035  -2.2007  -2.1541  -2.1298  -2.0489  -1.8665  -1.8557

          k = 0.0000 0.0000 0.9332 ( 26255 PWs)   bands (ev):

   -20.4261 -20.4260 -20.3821 -20.1788 -20.0002 -20.0002 -19.5962 -19.5962
   -19.4896 -19.3313 -19.3313 -19.3067  -8.3269  -8.3269  -8.2191  -8.1908
    -8.1013  -8.1013  -7.9089  -7.8204  -7.8204  -7.4118  -7.4118  -7.3646
    -5.9543  -5.9543  -5.7585  -5.4687  -4.9341  -4.9341  -3.8603  -3.8533
    -3.8533  -3.4200  -3.4200  -3.3524  -2.5728  -2.5728  -2.4470  -2.4216
    -2.2770  -2.2770  -2.2008  -2.2008  -2.1893  -1.9983  -1.9983  -1.8043

          k = 0.4494 0.2595 0.0000 ( 26273 PWs)   bands (ev):

   -20.5954 -20.3767 -20.3726 -20.0691 -19.9396 -19.8824 -19.7357 -19.6903
   -19.5239 -19.3751 -19.3168 -19.1710  -8.3720  -8.3110  -8.2698  -8.1288
    -8.1222  -8.0656  -7.9872  -7.8580  -7.7941  -7.5088  -7.4475  -7.4331
    -6.2151  -5.7054  -5.6792  -5.4205  -4.9336  -4.5820  -4.1284  -4.0824
    -3.7649  -3.5107  -3.4045  -2.9905  -2.5404  -2.5138  -2.4666  -2.4498
    -2.3277  -2.2448  -2.1998  -2.1568  -2.0745  -2.0185  -1.9460  -1.8220

          k = 0.2996 0.1730 0.3111 ( 26279 PWs)   bands (ev):

   -20.6343 -20.3020 -20.2102 -20.1316 -20.0160 -19.9460 -19.7270 -19.6891
   -19.5509 -19.4221 -19.3142 -19.1210  -8.3751  -8.3155  -8.2542  -8.1360
    -8.1208  -7.9789  -7.9220  -7.7215  -7.6675  -7.6366  -7.5161  -7.4412
    -6.3583  -5.6491  -5.5066  -5.2035  -5.1767  -4.5942  -4.2548  -4.1061
    -3.9949  -3.4819  -3.3662  -2.8972  -2.6365  -2.5997  -2.5137  -2.4297
    -2.3421  -2.2870  -2.1710  -2.1511  -2.0732  -2.0076  -1.9300  -1.8766

          k = 0.4494-0.2595-0.9332 ( 26264 PWs)   bands (ev):

   -20.4659 -20.4593 -20.2858 -20.1586 -20.0164 -19.9158 -19.7674 -19.6456
   -19.4445 -19.4109 -19.3153 -19.1775  -8.3491  -8.3090  -8.2523  -8.1391
    -8.0981  -8.0215  -7.9171  -7.8080  -7.6952  -7.6395  -7.4869  -7.4402
    -6.0017  -5.8550  -5.5339  -5.4552  -5.0609  -4.5891  -4.3433  -4.0480
    -3.6721  -3.5263  -3.4172  -2.9628  -2.6255  -2.6080  -2.5641  -2.4371
    -2.3953  -2.3436  -2.1471  -2.1057  -2.0950  -2.0252  -1.9268  -1.8236

          k = 0.2996-0.3460-0.6221 ( 26286 PWs)   bands (ev):

   -20.4461 -20.3569 -20.2683 -20.2125 -20.0557 -20.0314 -19.6870 -19.6497
   -19.4433 -19.4101 -19.3289 -19.1890  -8.3610  -8.2550  -8.2118  -8.1864
    -8.1457  -7.9379  -7.8397  -7.7988  -7.6275  -7.6083  -7.4768  -7.4629
    -5.9118  -5.8625  -5.5721  -5.5009  -5.0124  -4.9550  -4.1101  -4.0256
    -3.7035  -3.6663  -3.3794  -3.0515  -2.6916  -2.6341  -2.5712  -2.4730
    -2.3787  -2.2987  -2.1828  -2.1599  -2.1316  -1.9961  -1.9572  -1.8108

          k = 0.0000 0.0000-1.8663 ( 26250 PWs)   bands (ev):

   -20.3903 -20.2823 -20.2823 -20.2449 -20.1315 -20.1315 -19.5879 -19.5879
   -19.4729 -19.4729 -19.3328 -19.1603  -8.3741  -8.1849  -8.1849  -8.1766
    -8.1766  -7.9343  -7.8904  -7.8155  -7.5719  -7.5719  -7.5613  -7.5613
    -5.8836  -5.6765  -5.4018  -5.4018  -5.2337  -5.2337  -3.8537  -3.8537
    -3.8410  -3.8410  -3.3856  -2.9861  -2.6383  -2.6383  -2.6316  -2.5290
    -2.5290  -2.2562  -2.1846  -2.0863  -2.0863  -2.0088  -2.0088  -1.7590

          k = 0.2996-0.3460 0.3111 ( 26269 PWs)   bands (ev):

   -20.5723 -20.3758 -20.2350 -20.1440 -20.0344 -19.9712 -19.6903 -19.6057
   -19.5311 -19.3938 -19.3303 -19.1807  -8.3640  -8.3118  -8.2279  -8.1683
    -8.1103  -8.0378  -7.9375  -7.8062  -7.7322  -7.4868  -7.4633  -7.3988
    -6.2310  -5.7984  -5.5783  -5.2770  -5.1735  -4.6843  -4.2381  -3.8843
    -3.7471  -3.5883  -3.4596  -3.0181  -2.6197  -2.5511  -2.4971  -2.4226
    -2.3315  -2.2512  -2.2021  -2.1861  -2.1414  -2.0107  -1.9295  -1.8454

     highest occupied level (ev):    -1.7590

!    total energy              =    -418.02585373 Ry
     estimated scf accuracy    <          3.1E-09 Ry

     The total energy is the sum of the following terms:
     one-electron contribution =    -270.89105354 Ry
     hartree contribution      =     172.93113120 Ry
     xc contribution           =    -106.26054225 Ry
     ewald contribution        =    -213.80538914 Ry

     convergence has been achieved in   7 iterations

     Forces acting on atoms (cartesian axes, Ry/au):

     atom    1 type  2   force =     0.00058722   -0.00072343    0.00355775
     atom    2 type  2   force =    -0.00058722    0.00072343   -0.00355775
     atom    3 type  2   force =     0.00033290    0.00087026    0.00355775
     atom    4 type  2   force =    -0.00033290   -0.00087026   -0.00355775
     atom    5 type  2   force =    -0.00092012   -0.00014684    0.00355775
     atom    6 type  2   force =     0.00092012    0.00014684   -0.00355775
     atom    7 type  2   force =    -0.00557171   -0.00775267   -0.00365474
     atom    8 type  2   force =     0.00557171    0.00775267    0.00365474
     atom    9 type  2   force =     0.00949986   -0.00094890   -0.00365474
     atom   10 type  2   force =    -0.00949986    0.00094890    0.00365474
     atom   11 type  2   force =    -0.00392816    0.00870158   -0.00365474
     atom   12 type  2   force =     0.00392816   -0.00870158    0.00365474
     atom   13 type  1   force =    -0.00254750   -0.00475821   -0.00019839
     atom   14 type  1   force =     0.00254750    0.00475821    0.00019839
     atom   15 type  1   force =     0.00539448    0.00017291   -0.00019839
     atom   16 type  1   force =    -0.00539448   -0.00017291    0.00019839
     atom   17 type  1   force =    -0.00284698    0.00458531   -0.00019839
     atom   18 type  1   force =     0.00284698   -0.00458531    0.00019839
     atom   19 type  1   force =     0.00780196    0.00324788   -0.00893949
     atom   20 type  1   force =    -0.00780196   -0.00324788    0.00893949
     atom   21 type  1   force =    -0.00671373    0.00513276   -0.00893949
     atom   22 type  1   force =     0.00671373   -0.00513276    0.00893949
     atom   23 type  1   force =    -0.00108824   -0.00838064   -0.00893949
     atom   24 type  1   force =     0.00108824    0.00838064    0.00893949
     atom   25 type  1   force =     0.00383641   -0.00599555    0.00455405
     atom   26 type  1   force =    -0.00383641    0.00599555   -0.00455405
     atom   27 type  1   force =     0.00327410    0.00632021    0.00455405
     atom   28 type  1   force =    -0.00327410   -0.00632021   -0.00455405
     atom   29 type  1   force =    -0.00711051   -0.00032465    0.00455405
     atom   30 type  1   force =     0.00711051    0.00032465   -0.00455405
     atom   31 type  1   force =     0.00191188   -0.00460379   -0.00344618
     atom   32 type  1   force =    -0.00191188    0.00460379    0.00344618
     atom   33 type  1   force =     0.00303106    0.00395763   -0.00344618
     atom   34 type  1   force =    -0.00303106   -0.00395763    0.00344618
     atom   35 type  1   force =    -0.00494294    0.00064616   -0.00344618
     atom   36 type  1   force =     0.00494294   -0.00064616    0.00344618

     Total force =     0.049396     Total SCF correction =     0.000106


     Computing stress (Cartesian axis) and pressure

          total   stress  (Ry/bohr**3)                   (kbar)     P=       31.38
   0.00020856  -0.00000000  -0.00000000           30.68       -0.00       -0.00
   0.00000000   0.00020856   0.00000000            0.00       30.68        0.00
  -0.00000000   0.00000000   0.00022281           -0.00        0.00       32.78

     Energy error            =      5.1E-03 Ry
     Gradient error          =      9.5E-03 Ry/Bohr

     number of scf cycles    =   4
     number of bfgs steps    =   3

     energy             old  =    -418.0207784505 Ry
     energy             new  =    -418.0258537283 Ry

     CASE: energy            _new < energy            _old

     new trust radius        =       0.0172713359 bohr
     new conv_thr            =       0.0000000095 Ry


ATOMIC_POSITIONS (crystal)
O                0.2729038646        0.0316056336        0.8580782610
O                0.7270961354        0.9683943774        0.1419217090
O                0.8580782610        0.2729038646        0.0316056336
O                0.1419217090        0.7270961354        0.9683943774
O                0.0316056336        0.8580782610        0.2729038646
O                0.9683943774        0.1419217090        0.7270961354
O                0.4727375879        0.7470311396        0.3295826527
O                0.5272624121        0.2529688604        0.6704173173
O                0.3295826527        0.4727375879        0.7470311396
O                0.6704173173        0.5272624121        0.2529688604
O                0.7470311396        0.3295826527        0.4727375879
O                0.2529688604        0.6704173173        0.5272624121
H                0.1410108597        0.0488635526        0.7908519257
H                0.8589891263        0.9511364394        0.2091480743
H                0.7908519257        0.1410108597        0.0488635526
H                0.2091480743        0.8589891263        0.9511364394
H                0.0488635526        0.7908519257        0.1410108597
H                0.9511364394        0.2091480743        0.8589891263
H                0.4337818698        0.2103171835        1.0059875088
H                0.5662181302        0.7896828315       -0.0059875298
H                1.0059875088        0.4337818698        0.2103171835
H               -0.0059875298        0.5662181302        0.7896828315
H                0.2103171835        1.0059875088        0.4337818698
H                0.7896828315       -0.0059875298        0.5662181302
H                0.7214592023        0.4112583401        0.3985254078
H                0.2785407977        0.5887416299        0.6014746222
H                0.3985254078        0.7214592023        0.4112583401
H                0.6014746222        0.2785407977        0.5887416299
H                0.4112583401        0.3985254078        0.7214592023
H                0.5887416299        0.6014746222        0.2785407977
H                0.7418965459        0.1948887552        0.3621962404
H                0.2581034541        0.8051112298        0.6378037596
H                0.3621962404        0.7418965459        0.1948887552
H                0.6378037596        0.2581034541        0.8051112298
H                0.1948887552        0.3621962404        0.7418965459
H                0.8051112298        0.6378037596        0.2581034541



     Writing config-only to output data dir ./iceII/iceII.save/ :
     XML data file
     NEW-OLD atomic charge density approx. for the potential

     total cpu time spent up to now is       42.1 secs

     per-process dynamical memory:    18.4 Mb

     Self-consistent Calculation

     iteration #  1     ecut=    90.00 Ry     beta= 0.70
     Davidson diagonalization with overlap
     ethr =  1.00E-06,  avg # of iterations =  4.1

     total cpu time spent up to now is       43.4 secs

     total energy              =    -418.02765124 Ry
     estimated scf accuracy    <       0.00036127 Ry

     iteration #  2     ecut=    90.00 Ry     beta= 0.70
     Davidson diagonalization with overlap
     ethr =  3.76E-07,  avg # of iterations =  2.1

     total cpu time spent up to now is       44.2 secs

     total energy              =    -418.02772929 Ry
     estimated scf accuracy    <       0.00004422 Ry

     iteration #  3     ecut=    90.00 Ry     beta= 0.70
     Davidson diagonalization with overlap
     ethr =  4.61E-08,  avg # of iterations =  2.1

     total cpu time spent up to now is       45.1 secs

     total energy              =    -418.02773956 Ry
     estimated scf accuracy    <       0.00000336 Ry

     iteration #  4     ecut=    90.00 Ry     beta= 0.70
     Davidson diagonalization with overlap
     ethr =  3.51E-09,  avg # of iterations =  2.0

     total cpu time spent up to now is       46.0 secs

     total energy              =    -418.02774016 Ry
     estimated scf accuracy    <       0.00000027 Ry

     iteration #  5     ecut=    90.00 Ry     beta= 0.70
     Davidson diagonalization with overlap
     ethr =  2.84E-10,  avg # of iterations =  2.2

     total cpu time spent up to now is       46.9 secs

     total energy              =    -418.02774022 Ry
     estimated scf accuracy    <       0.00000001 Ry

     iteration #  6     ecut=    90.00 Ry     beta= 0.70
     Davidson diagonalization with overlap
     ethr =  1.48E-11,  avg # of iterations =  4.0

     total cpu time spent up to now is       48.0 secs

[...]
H                0.1376469319        0.0419571007        0.7906307675
H                0.8623530541        0.9580428913        0.2093692325
H                0.7906307675        0.1376469319        0.0419571007
H                0.2093692325        0.8623530541        0.9580428913
H                0.0419571007        0.7906307675        0.1376469319
H                0.9580428913        0.2093692325        0.8623530541
H                0.4337805887        0.2091731765        0.9930420988
H                0.5662194113        0.7908268385        0.0069578802
H                0.9930420988        0.4337805887        0.2091731765
H                0.0069578802        0.5662194113        0.7908268385
H                0.2091731765        0.9930420988        0.4337805887
H                0.7908268385        0.0069578802        0.5662194113
H                0.7283397727        0.4120869564        0.4012653274
H                0.2716602273        0.5879130136        0.5987347026
H                0.4012653274        0.7283397727        0.4120869564
H                0.5987347026        0.2716602273        0.5879130136
H                0.4120869564        0.4012653274        0.7283397727
H                0.5879130136        0.5987347026        0.2716602273
H                0.7367832771        0.1885403348        0.3566217976
H                0.2632167229        0.8114596502        0.6433782024
H                0.3566217976        0.7367832771        0.1885403348
H                0.6433782024        0.2632167229        0.8114596502
H                0.1885403348        0.3566217976        0.7367832771
H                0.8114596502        0.6433782024        0.2632167229



     Writing config-only to output data dir ./iceII/iceII.save/ :
     XML data file
     NEW-OLD atomic charge density approx. for the potential

     total cpu time spent up to now is      114.2 secs

     per-process dynamical memory:    21.9 Mb

     Self-consistent Calculation

     iteration #  1     ecut=    90.00 Ry     beta= 0.70
     Davidson diagonalization with overlap
     ethr =  1.00E-06,  avg # of iterations =  2.0

     Threshold (ethr) on eigenvalues was too large:
     Diagonalizing with lowered threshold

     Davidson diagonalization with overlap
     ethr =  6.34E-09,  avg # of iterations =  3.8

     total cpu time spent up to now is      116.0 secs

     total energy              =    -418.03620249 Ry
     estimated scf accuracy    <       0.00000795 Ry

     iteration #  2     ecut=    90.00 Ry     beta= 0.70
     Davidson diagonalization with overlap
     ethr =  8.29E-09,  avg # of iterations =  2.0

     total cpu time spent up to now is      116.8 secs

     total energy              =    -418.03620365 Ry
     estimated scf accuracy    <       0.00000044 Ry

     iteration #  3     ecut=    90.00 Ry     beta= 0.70
     Davidson diagonalization with overlap
     ethr =  4.55E-10,  avg # of iterations =  2.0

     total cpu time spent up to now is      117.7 secs

     total energy              =    -418.03620373 Ry
     estimated scf accuracy    <       0.00000004 Ry

     iteration #  4     ecut=    90.00 Ry     beta= 0.70
     Davidson diagonalization with overlap
     ethr =  4.42E-11,  avg # of iterations =  2.2

     total cpu time spent up to now is      118.6 secs

     total energy              =    -418.03620374 Ry
     estimated scf accuracy    <          5.0E-09 Ry

     iteration #  5     ecut=    90.00 Ry     beta= 0.70
     Davidson diagonalization with overlap
     ethr =  5.19E-12,  avg # of iterations =  2.9

     total cpu time spent up to now is      119.6 secs

     End of self-consistent calculation

          k = 0.0000 0.0000 0.0000 ( 26363 PWs)   bands (ev):

   -20.7939 -20.1633 -20.1633 -19.9029 -19.9029 -19.8671 -19.8549 -19.8549
   -19.8329 -19.4556 -19.4556 -19.0364  -8.3115  -8.2578  -8.2578  -8.1532
    -8.0643  -8.0643  -7.7313  -7.7191  -7.7191  -7.7126  -7.6377  -7.6377
    -6.7591  -5.4936  -5.4936  -4.7189  -4.7189  -4.5819  -4.5819  -4.3473
    -4.2493  -3.4467  -3.4467  -2.6393  -2.5160  -2.5160  -2.4615  -2.3359
    -2.3359  -2.2812  -2.2119  -2.2119  -2.1133  -1.9767  -1.9598  -1.9598

          k =-0.1498-0.0865 0.3111 ( 26294 PWs)   bands (ev):

   -20.6978 -20.2211 -20.1541 -20.0829 -20.0346 -19.9485 -19.7915 -19.7383
   -19.6515 -19.4594 -19.4041 -19.1144  -8.2687  -8.2540  -8.2308  -8.1488
    -8.0493  -8.0168  -7.8174  -7.7989  -7.7487  -7.6393  -7.5637  -7.5465
    -6.5494  -5.6817  -5.5072  -5.1276  -4.8278  -4.5699  -4.4163  -4.2127
    -4.0653  -3.4350  -3.3680  -2.8130  -2.6119  -2.5394  -2.4827  -2.4325
    -2.3951  -2.3218  -2.1944  -2.1673  -2.1073  -2.0566  -1.9895  -1.9658

          k = 0.2996 0.1730-0.6221 ( 26262 PWs)   bands (ev):

   -20.4540 -20.4370 -20.2016 -20.1721 -20.0313 -20.0219 -19.7346 -19.7231
   -19.4674 -19.4643 -19.3129 -19.2925  -8.2600  -8.2339  -8.1670  -8.1364
    -8.0452  -8.0070  -7.8367  -7.8294  -7.7741  -7.6284  -7.4935  -7.4757
    -6.1395  -5.9970  -5.5206  -5.4465  -4.8440  -4.7578  -4.2711  -4.1554
    -3.6018  -3.5959  -3.3333  -3.0672  -2.6772  -2.5892  -2.4912  -2.4838
    -2.4157  -2.3269  -2.2708  -2.1732  -2.1403  -2.0677  -1.9771  -1.9707

          k =-0.1498 0.0865 0.6221 ( 26261 PWs)   bands (ev):

   -20.5036 -20.3191 -20.2898 -20.1282 -20.0924 -20.0111 -19.7387 -19.6334
   -19.5613 -19.4005 -19.3820 -19.2528  -8.2550  -8.2302  -8.1892  -8.1408
    -8.0362  -7.9692  -7.8474  -7.8313  -7.8150  -7.5681  -7.5240  -7.4830
    -6.1742  -5.8489  -5.7681  -5.2160  -4.9716  -4.7772  -4.2500  -4.0096
    -3.8537  -3.4321  -3.3305  -3.1091  -2.6773  -2.6097  -2.4741  -2.4561
    -2.3866  -2.3665  -2.2676  -2.1821  -2.1264  -2.0654  -2.0095  -1.9486

          k = 0.2996 0.3460-0.3111 ( 26269 PWs)   bands (ev):

   -20.5695 -20.3515 -20.2205 -20.1677 -20.0655 -19.9884 -19.7213 -19.5907
   -19.5690 -19.4458 -19.3757 -19.2311  -8.2623  -8.2350  -8.2016  -8.1334
    -8.0542  -8.0274  -7.9290  -7.8511  -7.8159  -7.6011  -7.5505  -7.4938
    -6.2026  -5.8029  -5.5685  -5.2672  -5.1888  -4.5663  -4.1538  -4.0579
    -3.7998  -3.5280  -3.3229  -3.0283  -2.5930  -2.5685  -2.4934  -2.4504
    -2.3917  -2.2929  -2.2574  -2.1949  -2.1051  -2.0945  -1.9932  -1.8909

          k = 0.1498 0.2595 0.0000 ( 26246 PWs)   bands (ev):

   -20.7237 -20.2698 -20.1896 -20.0481 -20.0145 -19.9118 -19.7849 -19.6945
   -19.6484 -19.4678 -19.4271 -19.1018  -8.2869  -8.2542  -8.2437  -8.1454
    -8.0721  -8.0608  -7.8768  -7.8033  -7.7730  -7.6698  -7.6184  -7.5501
    -6.5255  -5.5460  -5.4059  -5.1691  -5.1290  -4.4403  -4.2278  -4.1247
    -4.0839  -3.4858  -3.4489  -2.7236  -2.5214  -2.5138  -2.4899  -2.4165
    -2.3547  -2.2974  -2.2322  -2.2096  -2.0871  -2.0362  -1.9434  -1.9135

          k = 0.2996-0.1730-1.2442 ( 26228 PWs)   bands (ev):

   -20.5626 -20.4875 -20.2096 -20.1127 -20.0111 -19.9407 -19.7015 -19.6782
   -19.5253 -19.5113 -19.2709 -19.2691  -8.2689  -8.2262  -8.2100  -8.1303
    -8.1060  -8.0705  -7.9839  -7.8559  -7.8080  -7.6280  -7.6187  -7.5293
    -5.9951  -5.9534  -5.5138  -5.3675  -5.0593  -4.5961  -4.0225  -3.9857
    -3.8002  -3.6595  -3.2549  -3.0201  -2.5435  -2.5071  -2.4591  -2.4532
    -2.3841  -2.3026  -2.2535  -2.1692  -2.1353  -2.0582  -1.9060  -1.8969

          k = 0.0000 0.0000 0.9332 ( 26255 PWs)   bands (ev):

   -20.4278 -20.4278 -20.3066 -20.2568 -20.0141 -20.0141 -19.6154 -19.6154
   -19.4699 -19.4043 -19.3724 -19.3724  -8.2380  -8.2380  -8.2183  -8.0922
    -8.0922  -8.0655  -7.9494  -7.8627  -7.8627  -7.5132  -7.5131  -7.4841
    -5.9101  -5.9101  -5.8480  -5.3324  -4.9429  -4.9429  -3.8732  -3.8604
    -3.8604  -3.3984  -3.3984  -3.2924  -2.5543  -2.5543  -2.4591  -2.4066
    -2.3533  -2.3533  -2.2662  -2.1823  -2.1823  -2.0564  -2.0564  -1.8617

          k = 0.4494 0.2595 0.0000 ( 26273 PWs)   bands (ev):

   -20.5939 -20.3738 -20.3400 -20.1132 -19.9408 -19.9164 -19.7456 -19.7220
   -19.5117 -19.4195 -19.3837 -19.2199  -8.2532  -8.2355  -8.2230  -8.1276
    -8.1079  -8.0578  -7.9678  -7.8754  -7.8322  -7.6195  -7.6002  -7.5331
    -6.1447  -5.6504  -5.5922  -5.4714  -5.0190  -4.6117  -4.0981  -4.0023
    -3.7286  -3.5179  -3.4114  -2.9795  -2.5282  -2.5106  -2.4770  -2.4502
    -2.3793  -2.3219  -2.2349  -2.2014  -2.1087  -2.0287  -1.9544  -1.8764

          k = 0.2996 0.1730 0.3111 ( 26279 PWs)   bands (ev):

   -20.6312 -20.2777 -20.1736 -20.1608 -20.0641 -19.9624 -19.7522 -19.6839
   -19.6127 -19.4341 -19.3758 -19.1680  -8.2685  -8.2345  -8.2067  -8.1242
    -8.0628  -7.9977  -7.8762  -7.8074  -7.7667  -7.6934  -7.6298  -7.5157
    -6.3326  -5.6354  -5.5525  -5.2404  -5.0966  -4.5478  -4.2721  -4.0593
    -3.9903  -3.4423  -3.3676  -2.8594  -2.6313  -2.5657  -2.5243  -2.4698
    -2.4354  -2.2922  -2.2591  -2.1567  -2.0630  -2.0590  -1.9765  -1.9366

          k = 0.4494-0.2595-0.9332 ( 26264 PWs)   bands (ev):

   -20.4683 -20.4340 -20.2674 -20.1890 -20.0451 -19.9246 -19.8028 -19.6607
   -19.4943 -19.4045 -19.3487 -19.2556  -8.2511  -8.2152  -8.1899  -8.1018
    -8.0425  -8.0167  -7.9220  -7.8477  -7.8107  -7.7138  -7.6180  -7.5432
    -5.9436  -5.8132  -5.6105  -5.3748  -5.1210  -4.6236  -4.2869  -3.9603
    -3.6961  -3.4488  -3.4095  -2.9799  -2.6313  -2.5879  -2.5485  -2.4952
    -2.4728  -2.3335  -2.1990  -2.1769  -2.0855  -2.0356  -1.9463  -1.9220

          k = 0.2996-0.3460-0.6221 ( 26286 PWs)   bands (ev):

   -20.4041 -20.3824 -20.2499 -20.2285 -20.0671 -20.0622 -19.7016 -19.6908
   -19.4688 -19.4574 -19.3071 -19.2910  -8.2581  -8.1907  -8.1523  -8.1068
    -8.0840  -7.9254  -7.8907  -7.8633  -7.7722  -7.6698  -7.5507  -7.5343
    -5.9602  -5.8915  -5.5787  -5.4709  -4.9408  -4.8874  -4.1397  -4.0404
    -3.6579  -3.6262  -3.3145  -3.0339  -2.6970  -2.6019  -2.5605  -2.5497
    -2.4530  -2.3416  -2.2160  -2.1804  -2.1195  -2.0209  -2.0004  -1.9250

          k = 0.0000 0.0000-1.8663 ( 26250 PWs)   bands (ev):

   -20.3396 -20.2924 -20.2274 -20.2274 -20.2071 -20.2071 -19.5864 -19.5864
   -19.5356 -19.5356 -19.2862 -19.2782  -8.2585  -8.1104  -8.1104  -8.1072
    -8.1072  -7.9709  -7.8922  -7.8401  -7.7389  -7.7389  -7.6118  -7.6118
    -5.9570  -5.6595  -5.3575  -5.3575  -5.2354  -5.2354  -3.8271  -3.8271
    -3.8054  -3.8054  -3.2856  -3.0100  -2.6491  -2.6132  -2.6132  -2.6093
    -2.6093  -2.2856  -2.2136  -2.1122  -2.1122  -2.0255  -2.0255  -1.8801

          k = 0.2996-0.3460 0.3111 ( 26269 PWs)   bands (ev):

   -20.5699 -20.3459 -20.2373 -20.1562 -20.0658 -19.9863 -19.7223 -19.6065
   -19.5494 -19.4583 -19.3648 -19.2340  -8.2554  -8.2370  -8.2048  -8.1135
    -8.0702  -8.0365  -7.9437  -7.8403  -7.8106  -7.5889  -7.5481  -7.5075
    -6.2009  -5.7770  -5.6355  -5.2377  -5.1210  -4.6515  -4.2699  -3.8828
    -3.7238  -3.5553  -3.4527  -2.9760  -2.6061  -2.5491  -2.4765  -2.4320
    -2.4138  -2.3169  -2.2627  -2.2086  -2.1093  -2.0618  -1.9937  -1.8974

     highest occupied level (ev):    -1.8617

!    total energy              =    -418.03620374 Ry
     estimated scf accuracy    <          4.1E-10 Ry

     The total energy is the sum of the following terms:
     one-electron contribution =    -272.43440872 Ry
     hartree contribution      =     173.67265842 Ry
     xc contribution           =    -106.27111059 Ry
     ewald contribution        =    -213.00334286 Ry

     convergence has been achieved in   5 iterations

     Forces acting on atoms (cartesian axes, Ry/au):

     atom    1 type  2   force =    -0.00026153   -0.00072579   -0.00016245
     atom    2 type  2   force =     0.00026153    0.00072579    0.00016245
     atom    3 type  2   force =     0.00075932    0.00013640   -0.00016245
     atom    4 type  2   force =    -0.00075932   -0.00013640    0.00016245
     atom    5 type  2   force =    -0.00049778    0.00058939   -0.00016245
     atom    6 type  2   force =     0.00049778   -0.00058939    0.00016245
     atom    7 type  2   force =     0.00069336   -0.00044004   -0.00015487
     atom    8 type  2   force =    -0.00069336    0.00044004    0.00015487
     atom    9 type  2   force =     0.00003440    0.00082048   -0.00015487
     atom   10 type  2   force =    -0.00003440   -0.00082048    0.00015487
     atom   11 type  2   force =    -0.00072776   -0.00038045   -0.00015487
     atom   12 type  2   force =     0.00072776    0.00038045    0.00015487
     atom   13 type  1   force =     0.00067887    0.00026074   -0.00013591
     atom   14 type  1   force =    -0.00067887   -0.00026074    0.00013591
     atom   15 type  1   force =    -0.00056525    0.00045755   -0.00013591
     atom   16 type  1   force =     0.00056525   -0.00045755    0.00013591
     atom   17 type  1   force =    -0.00011362   -0.00071829   -0.00013591
     atom   18 type  1   force =     0.00011362    0.00071829    0.00013591
     atom   19 type  1   force =     0.00003678    0.00090335    0.00051855
     atom   20 type  1   force =    -0.00003678   -0.00090335   -0.00051855
     atom   21 type  1   force =    -0.00080071   -0.00041982    0.00051855
     atom   22 type  1   force =     0.00080071    0.00041982   -0.00051855
     atom   23 type  1   force =     0.00076393   -0.00048352    0.00051855
     atom   24 type  1   force =    -0.00076393    0.00048352   -0.00051855
     atom   25 type  1   force =     0.00042413    0.00006943   -0.00004266
     atom   26 type  1   force =    -0.00042413   -0.00006943    0.00004266
     atom   27 type  1   force =    -0.00027219    0.00033259   -0.00004266
     atom   28 type  1   force =     0.00027219   -0.00033259    0.00004266
     atom   29 type  1   force =    -0.00015194   -0.00040202   -0.00004266
     atom   30 type  1   force =     0.00015194    0.00040202    0.00004266
     atom   31 type  1   force =     0.00016702   -0.00019453    0.00030632
     atom   32 type  1   force =    -0.00016702    0.00019453   -0.00030632
     atom   33 type  1   force =     0.00008495    0.00024191    0.00030632
     atom   34 type  1   force =    -0.00008495   -0.00024191   -0.00030632
     atom   35 type  1   force =    -0.00025198   -0.00004738    0.00030632
     atom   36 type  1   force =     0.00025198    0.00004738   -0.00030632

     Total force =     0.004449     Total SCF correction =     0.000064


     Computing stress (Cartesian axis) and pressure

          total   stress  (Ry/bohr**3)                   (kbar)     P=       32.43
   0.00023032   0.00000000  -0.00000000           33.88        0.00       -0.00
  -0.00000000   0.00023032   0.00000000           -0.00       33.88        0.00
  -0.00000000   0.00000000   0.00020080           -0.00        0.00       29.54

     Energy error            =      4.0E-05 Ry
     Gradient error          =      9.0E-04 Ry/Bohr

     bfgs converged in  15 scf cycles and  14 bfgs steps
     (criteria: energy <  1.0E-04 Ry, force <  1.0E-03 Ry/Bohr)

     End of BFGS Geometry Optimization

     Final energy             =    -418.0362037415 Ry

     File ./iceII/iceII.bfgs deleted, as requested
Begin final coordinates

ATOMIC_POSITIONS (crystal)
O                0.2727272223        0.0288131038        0.8567598325
O                0.7272727777        0.9711869072        0.1432401375
O                0.8567598325        0.2727272223        0.0288131038
O                0.1432401375        0.7272727777        0.9711869072
O                0.0288131038        0.8567598325        0.2727272223
O                0.9711869072        0.1432401375        0.7272727777
O                0.4708092169        0.7455298527        0.3246028079
O                0.5291907831        0.2544701473        0.6753971621
O                0.3246028079        0.4708092169        0.7455298527
O                0.6753971621        0.5291907831        0.2544701473
O                0.7455298527        0.3246028079        0.4708092169
O                0.2544701473        0.6753971621        0.5291907831
H                0.1376469319        0.0419571007        0.7906307675
H                0.8623530541        0.9580428913        0.2093692325
H                0.7906307675        0.1376469319        0.0419571007
H                0.2093692325        0.8623530541        0.9580428913
H                0.0419571007        0.7906307675        0.1376469319
H                0.9580428913        0.2093692325        0.8623530541
H                0.4337805887        0.2091731765        0.9930420988
H                0.5662194113        0.7908268385        0.0069578802
H                0.9930420988        0.4337805887        0.2091731765
H                0.0069578802        0.5662194113        0.7908268385
H                0.2091731765        0.9930420988        0.4337805887
H                0.7908268385        0.0069578802        0.5662194113
H                0.7283397727        0.4120869564        0.4012653274
H                0.2716602273        0.5879130136        0.5987347026
H                0.4012653274        0.7283397727        0.4120869564
H                0.5987347026        0.2716602273        0.5879130136
H                0.4120869564        0.4012653274        0.7283397727
H                0.5879130136        0.5987347026        0.2716602273
H                0.7367832771        0.1885403348        0.3566217976
H                0.2632167229        0.8114596502        0.6433782024
H                0.3566217976        0.7367832771        0.1885403348
H                0.6433782024        0.2632167229        0.8114596502
H                0.1885403348        0.3566217976        0.7367832771
H                0.8114596502        0.6433782024        0.2632167229
End final coordinates



     Writing all to output data dir ./iceII/iceII.save/ :
     XML data file, charge density, pseudopotentials, collected wavefunctions

     init_run     :      2.45s CPU      2.55s WALL (       1 calls)
     electrons    :     96.10s CPU     99.70s WALL (      15 calls)
     update_pot   :      1.59s CPU      1.83s WALL (      14 calls)
     forces       :      1.66s CPU      1.68s WALL (      15 calls)
     stress       :     13.61s CPU     13.79s WALL (      15 calls)

     Called by init_run:
     wfcinit      :      0.33s CPU      0.33s WALL (       1 calls)
     potinit      :      1.61s CPU      1.67s WALL (       1 calls)
     hinit0       :      0.39s CPU      0.40s WALL (       1 calls)

     Called by electrons:
     c_bands      :     74.17s CPU     75.09s WALL (     102 calls)
     sum_band     :     10.22s CPU     10.31s WALL (     102 calls)
     v_of_rho     :     13.91s CPU     15.42s WALL (     112 calls)
     newd         :      0.36s CPU      0.37s WALL (     112 calls)
     mix_rho      :      0.20s CPU      0.20s WALL (     102 calls)
     vdW_kernel   :      1.50s CPU      1.52s WALL (       1 calls)

     Called by c_bands:
     init_us_2    :      1.16s CPU      1.22s WALL (     940 calls)
     cegterg      :     71.84s CPU     72.51s WALL (     408 calls)

     Called by *egterg:
     cdiaghg      :      5.66s CPU      5.67s WALL (    1451 calls)
     h_psi        :     55.23s CPU     55.77s WALL (    1531 calls)
     s_psi        :      2.09s CPU      2.13s WALL (    1531 calls)
     g_psi        :      0.14s CPU      0.14s WALL (    1119 calls)

     Called by h_psi:
     h_psi:calbec :      3.72s CPU      3.74s WALL (    1531 calls)
     vloc_psi     :     48.96s CPU     49.46s WALL (    1531 calls)
     add_vuspsi   :      2.19s CPU      2.19s WALL (    1531 calls)

     General routines
     calbec       :      5.30s CPU      5.34s WALL (    2239 calls)
     fft          :      6.92s CPU      7.03s WALL (    7631 calls)
     ffts         :      0.08s CPU      0.09s WALL (     102 calls)
     fftw         :     51.09s CPU     51.57s WALL (  143018 calls)

     Parallel routines

     PWSCF        :   1m56.42s CPU   2m 1.72s WALL


   This run was terminated on:  14:11:43   1Apr2026            

=------------------------------------------------------------------------------=
   JOB DONE.
=------------------------------------------------------------------------------=
