
     Program PWSCF v.7.3.1 starts on  1Apr2026 at 14:11:51 

     This program is part of the open-source Quantum ESPRESSO suite
     for quantum simulation of materials; please cite
         "P. Giannozzi et al., J. Phys.:Condens. Matter 21 395502 (2009);
         "P. Giannozzi et al., J. Phys.:Condens. Matter 29 465901 (2017);
         "P. Giannozzi et al., J. Chem. Phys. 152 154105 (2020);
          URL http://www.quantum-espresso.org", 
     in publications or presentations arising from this work. More details at
     http://www.quantum-espresso.org/quote

     Parallel version (MPI), running on   128 processors

     MPI processes distributed on     1 nodes
     242705 MiB available memory on the printing compute node when the environment starts

     Waiting for input...
     Reading input from standard input

     Current dimensions of program PWSCF are:
     Max number of different atomic species (ntypx) = 10
     Max number of k-points (npk) =  40000
     Max angular momentum in pseudopotentials (lmaxx) =  4

     IMPORTANT: XC functional enforced from input :
     Exchange-correlation= VDW-DF2
                           (   1   4  13   0   2   0   0)
     Any further DFT definition will be discarded
     Please, verify this is what you really want


     K-points division:     npool     =       4
     R & G space division:  proc/nbgrp/npool/nimage =      32
     Subspace diagonalization in iterative solution of the eigenvalue problem:
     a serial algorithm will be used


     Parallelization info
     --------------------
     sticks:   dense  smooth     PW     G-vecs:    dense   smooth      PW
     Min         165     165     48                 6631     6631    1064
     Max         166     166     49                 6634     6634    1067
     Sum        5297    5297   1567               212231   212231   34123

     Using Slab Decomposition



     bravais-lattice index     =            5
     lattice parameter (alat)  =      14.1728  a.u.
     unit-cell volume          =    1839.3264 (a.u.)^3
     number of atoms/cell      =           36
     number of atomic types    =            2
     number of electrons       =        96.00
     number of Kohn-Sham states=           48
     kinetic-energy cutoff     =      90.0000  Ry
     charge density cutoff     =     360.0000  Ry
     scf convergence threshold =      1.0E-07
     mixing beta               =       0.7000
     number of iterations used =            8  plain     mixing
     energy convergence thresh.=      1.0E-04
     force convergence thresh. =      1.0E-03
     Exchange-correlation= VDW-DF2
                           (   1   4  13   0   2   0   0)
     nstep                     =           50


     celldm(1)=  14.172794  celldm(2)=   0.000000  celldm(3)=   0.000000
     celldm(4)=  -0.392337  celldm(5)=   0.000000  celldm(6)=   0.000000

     crystal axes: (cart. coord. in units of alat)
               a(1) = (   0.834367  -0.481722   0.267909 )  
               a(2) = (   0.000000   0.963444   0.267909 )  
               a(3) = (  -0.834367  -0.481722   0.267909 )  

     reciprocal axes: (cart. coord. in units 2 pi/alat)
               b(1) = (  0.599257 -0.345981  1.244203 )  
               b(2) = (  0.000000  0.691962  1.244203 )  
               b(3) = ( -0.599257 -0.345981  1.244203 )  


     PseudoPot. # 1 for H  read from file:
     ./H.pbe-van_ak.UPF
     MD5 check sum: 077eb6d537518a38cb46c6de387227b7
     Pseudo is Ultrasoft, Zval =  1.0
     Generated by new atomic code, or converted to UPF format
     Using radial grid of  615 points,  1 beta functions with: 
                l(1) =   0
     Q(r) pseudized with  8 coefficients,  rinner =    0.800

     PseudoPot. # 2 for O  read from file:
     ./O.pbe-van_ak.UPF
     MD5 check sum: 78c19812648e8988a0fe644b0f25305e
     Pseudo is Ultrasoft, Zval =  6.0
     Generated by new atomic code, or converted to UPF format
     Using radial grid of  737 points,  4 beta functions with: 
                l(1) =   0
                l(2) =   0
                l(3) =   1
                l(4) =   1
     Q(r) pseudized with  8 coefficients,  rinner =    0.800   0.800   0.800


     atomic species   valence    mass     pseudopotential
     H                 1.00     1.00800     H ( 1.00)
     O                 6.00    16.00000     O ( 1.00)

      6 Sym. Ops., with inversion, found



   Cartesian axes

     site n.     atom                  positions (alat units)
         1        O      tau(   1) = (  -0.4847673  -0.5197781   0.3083633  )
         2        O      tau(   2) = (   0.4847673   0.5197782   0.4953638  )
         3        O      tau(   3) = (   0.6925247  -0.1599317   0.3083633  )
         4        O      tau(   4) = (  -0.6925248   0.1599317   0.4953638  )
         5        O      tau(   5) = (  -0.2077574   0.6797099   0.3083633  )
         6        O      tau(   6) = (   0.2077574  -0.6797099   0.4953638  )
         7        O      tau(   7) = (   0.1218176   0.3323883   0.4179381  )
         8        O      tau(   8) = (  -0.1218176  -0.3323883   0.3857890  )
         9        O      tau(   9) = (  -0.3487655  -0.0606970   0.4179381  )
        10        O      tau(  10) = (   0.3487655   0.0606970   0.3857890  )
        11        O      tau(  11) = (   0.2269479  -0.2716913   0.4179381  )
        12        O      tau(  12) = (  -0.2269479   0.2716912   0.3857890  )
        13        H      tau(  13) = (  -0.5381668  -0.4032014   0.2796970  )
        14        H      tau(  14) = (   0.5381668   0.4032014   0.5240301  )
        15        H      tau(  15) = (   0.6182661  -0.2644654   0.2796970  )
        16        H      tau(  16) = (  -0.6182661   0.2644654   0.5240301  )
        17        H      tau(  17) = (  -0.0800993   0.6676668   0.2796970  )
        18        H      tau(  18) = (   0.0800993  -0.6676668   0.5240301  )
        19        H      tau(  19) = (  -0.4872704  -0.4817221   0.4326731  )
        20        H      tau(  20) = (   0.4872704   0.4817221   0.3710540  )
        21        H      tau(  21) = (   0.6608188  -0.1811275   0.4326731  )
        22        H      tau(  22) = (  -0.6608188   0.1811275   0.3710540  )
        23        H      tau(  23) = (  -0.1735484   0.6628496   0.4326731  )
        24        H      tau(  24) = (   0.1735484  -0.6628496   0.3710540  )
        25        H      tau(  25) = (   0.2703349  -0.1502973   0.4058822  )
        26        H      tau(  26) = (  -0.2703350   0.1502973   0.3978449  )
        27        H      tau(  27) = (  -0.0050062   0.3092656   0.4058822  )
        28        H      tau(  28) = (   0.0050062  -0.3092656   0.3978449  )
        29        H      tau(  29) = (  -0.2653287  -0.1589683   0.4058822  )
        30        H      tau(  30) = (   0.2653287   0.1589683   0.3978449  )
        31        H      tau(  31) = (   0.3178939  -0.3347969   0.3493534  )
        32        H      tau(  32) = (  -0.3178939   0.3347969   0.4543737  )
        33        H      tau(  33) = (   0.1309957   0.4427026   0.3493534  )
        34        H      tau(  34) = (  -0.1309956  -0.4427026   0.4543737  )
        35        H      tau(  35) = (  -0.4488895  -0.1079057   0.3493534  )
        36        H      tau(  36) = (   0.4488895   0.1079057   0.4543737  )

     number of k points=    14
                       cart. coord. in units 2pi/alat
        k(    1) = (   0.0000000   0.0000000   0.0000000), wk =   0.0312500
        k(    2) = (  -0.1498141  -0.0864952   0.3110508), wk =   0.1875000
        k(    3) = (   0.2996283   0.1729905  -0.6221017), wk =   0.0937500
        k(    4) = (  -0.1498141   0.0864952   0.6221017), wk =   0.1875000
        k(    5) = (   0.2996283   0.3459809  -0.3110508), wk =   0.1875000
        k(    6) = (   0.1498141   0.2594857   0.0000000), wk =   0.1875000
        k(    7) = (   0.2996283  -0.1729905  -1.2442034), wk =   0.0937500
        k(    8) = (   0.0000000   0.0000000   0.9331525), wk =   0.0625000
        k(    9) = (   0.4494424   0.2594857   0.0000000), wk =   0.1875000
        k(   10) = (   0.2996283   0.1729905   0.3110508), wk =   0.1875000
        k(   11) = (   0.4494424  -0.2594857  -0.9331525), wk =   0.1875000
        k(   12) = (   0.2996283  -0.3459809  -0.6221017), wk =   0.1875000
        k(   13) = (   0.0000000   0.0000000  -1.8663050), wk =   0.0312500
        k(   14) = (   0.2996283  -0.3459809   0.3110508), wk =   0.1875000

     Dense  grid:   212231 G-vectors     FFT dimensions: (  90,  90,  90)

     Estimated max dynamical RAM per process >      14.20 MB

     Estimated total dynamical RAM >       1.62 GB

     Initial potential from superposition of free atoms

     starting charge      95.9998, renormalised to      96.0000


     %%%%%%%%%%%%%%%%%%%%%%%%%%%%%%%%%%%%%%%%%%%%%%%%%%%%%%%%%%%%%%%%%%%%%%%%
     %                                                                      %
     % You are using vdW-DF, which was implemented by the Thonhauser group. %
     % Please cite the following two papers that made this development      %
     % possible and the two reviews that describe the various versions:     %
     %                                                                      %
     %   T. Thonhauser et al., PRL 115, 136402 (2015).                      %
     %   T. Thonhauser et al., PRB 76, 125112 (2007).                       %
     %   K. Berland et al., Rep. Prog. Phys. 78, 066501 (2015).             %
     %   D.C. Langreth et al., J. Phys.: Condens. Matter 21, 084203 (2009). %
     %                                                                      %
     % If you are calculating stress with vdW-DF, please also cite:         %
     %                                                                      %
     %   R. Sabatini et al., J. Phys.: Condens. Matter 24, 424209 (2012).   %
     %                                                                      %
     %%%%%%%%%%%%%%%%%%%%%%%%%%%%%%%%%%%%%%%%%%%%%%%%%%%%%%%%%%%%%%%%%%%%%%%%

     %%%%%%%%%%%%%%%%%%%%%%%%%%%%%%%%%%%%%%%%%%%%%%%%%%%%%%%%%%%%%%%%%%%%%%%%
     %                                                                      %
     %  vdW-DF NEWS:                                                        %
     %                                                                      %
     %  * vdW-DF3 is now available. DOI: 10.1021/acs.jctc.0c00471           %
     %    use with input_dft = 'vdW-DF3-opt1' or 'vdW-DF3-opt2'             %
     %                                                                      %
     %  * Unscreened and range-separated hybrid vdW-DF-cx functionals       %
     %    DOI: 10.1063/1.4986522 and 10.1088/1361-648X/ac2ad2               %
     %    use with input_dft = 'vdW-DF-cx0'    and 'vdW-DF-ahcx'            %
     %  * Unscreened and range-separated hybrid vdW-DF2-b86r functionals    %
     %    DOI: 10.1063/1.4986522 and DOI: 10.1103/PhysRevX.12.041003        %
     %    use with input_dft = 'vdW-DF2-br0' and 'vdW-DF2-ahbr'             %
     %                                                                      %
     %%%%%%%%%%%%%%%%%%%%%%%%%%%%%%%%%%%%%%%%%%%%%%%%%%%%%%%%%%%%%%%%%%%%%%%%


     Starting wfcs are   72 randomized atomic wfcs

     total cpu time spent up to now is        2.8 secs

     per-process dynamical memory:    18.5 Mb

     Self-consistent Calculation

     iteration #  1     ecut=    90.00 Ry     beta= 0.70
     Davidson diagonalization with overlap
     ethr =  1.00E-02,  avg # of iterations =  2.0

     total cpu time spent up to now is        3.7 secs

     total energy              =    -415.82108746 Ry
     estimated scf accuracy    <       4.75373500 Ry

     iteration #  2     ecut=    90.00 Ry     beta= 0.70
     Davidson diagonalization with overlap
     ethr =  4.95E-03,  avg # of iterations =  3.0

     total cpu time spent up to now is        4.7 secs

     total energy              =    -417.41436351 Ry
     estimated scf accuracy    <       2.92653770 Ry

     iteration #  3     ecut=    90.00 Ry     beta= 0.70
     Davidson diagonalization with overlap
     ethr =  3.05E-03,  avg # of iterations =  2.0

     total cpu time spent up to now is        5.6 secs

     total energy              =    -417.79384461 Ry
     estimated scf accuracy    <       0.12395032 Ry

     iteration #  4     ecut=    90.00 Ry     beta= 0.70
     Davidson diagonalization with overlap
     ethr =  1.29E-04,  avg # of iterations =  4.0

     total cpu time spent up to now is        6.8 secs

     total energy              =    -417.88737274 Ry
     estimated scf accuracy    <       0.14860828 Ry

     iteration #  5     ecut=    90.00 Ry     beta= 0.70
     Davidson diagonalization with overlap
     ethr =  1.29E-04,  avg # of iterations =  2.0

     total cpu time spent up to now is        7.5 secs

     total energy              =    -417.89154883 Ry
     estimated scf accuracy    <       0.02350971 Ry

     iteration #  6     ecut=    90.00 Ry     beta= 0.70
     Davidson diagonalization with overlap
     ethr =  2.45E-05,  avg # of iterations =  2.0

     total cpu time spent up to now is        8.4 secs

     total energy              =    -417.89245785 Ry
     estimated scf accuracy    <       0.00525644 Ry

     iteration #  7     ecut=    90.00 Ry     beta= 0.70
     Davidson diagonalization with overlap
     ethr =  5.48E-06,  avg # of iterations =  2.0

     total cpu time spent up to now is        9.2 secs

     total energy              =    -417.89392401 Ry
     estimated scf accuracy    <       0.00006101 Ry

     iteration #  8     ecut=    90.00 Ry     beta= 0.70
     Davidson diagonalization with overlap
     ethr =  6.36E-08,  avg # of iterations =  5.1

     total cpu time spent up to now is       10.6 secs

     total energy              =    -417.89398853 Ry
     estimated scf accuracy    <       0.00032645 Ry

     iteration #  9     ecut=    90.00 Ry     beta= 0.70
     Davidson diagonalization with overlap
     ethr =  6.36E-08,  avg # of iterations =  2.0

     total cpu time spent up to now is       11.4 secs

     total energy              =    -417.89393959 Ry
     estimated scf accuracy    <       0.00014268 Ry

     iteration # 10     ecut=    90.00 Ry     beta= 0.70
     Davidson diagonalization with overlap
     ethr =  6.36E-08,  avg # of iterations =  3.0

     total cpu time spent up to now is       12.3 secs

     total energy              =    -417.89395791 Ry
     estimated scf accuracy    <       0.00000978 Ry

     iteration # 11     ecut=    90.00 Ry     beta= 0.70
     Davidson diagonalization with overlap
     ethr =  1.02E-08,  avg # of iterations =  2.7

     total cpu time spent up to now is       13.2 secs

     total energy              =    -417.89395918 Ry
     estimated scf accuracy    <       0.00000183 Ry

     iteration # 12     ecut=    90.00 Ry     beta= 0.70
     Davidson diagonalization with overlap
     ethr =  1.91E-09,  avg # of iterations =  3.0

     total cpu time spent up to now is       14.2 secs

     End of self-consistent calculation

          k = 0.0000 0.0000 0.0000 ( 26627 PWs)   bands (ev):

   -21.2083 -20.6357 -20.6357 -20.3652 -20.3652 -20.3401 -20.3401 -20.3154
   -20.3082 -19.9404 -19.9404 -19.5587  -8.4273  -8.2005  -8.1417  -8.1417
    -8.0189  -8.0189  -7.5819  -7.4309  -7.4309  -7.2030  -7.2030  -7.0330
    -6.9833  -5.9303  -5.9303  -5.2562  -5.2562  -5.1788  -5.1788  -4.8593
    -4.6228  -3.9388  -3.9388  -3.2386  -2.6872  -2.6872  -2.5753  -2.4813
    -2.4231  -2.4231  -2.2712  -2.2712  -2.2260  -2.2075  -2.1461  -2.1461

          k =-0.1498-0.0865 0.3111 ( 26533 PWs)   bands (ev):

   -21.1172 -20.6846 -20.6209 -20.5423 -20.5169 -20.4256 -20.2494 -20.1985
   -20.1301 -19.9494 -19.8977 -19.6319  -8.3631  -8.2683  -8.1840  -8.1307
    -8.0026  -7.9340  -7.5985  -7.4073  -7.3750  -7.2397  -7.0834  -7.0467
    -6.8018  -6.0934  -5.9383  -5.6401  -5.2791  -5.1189  -4.9787  -4.7214
    -4.6593  -3.9285  -3.8619  -3.3781  -2.8353  -2.7480  -2.6076  -2.5348
    -2.4692  -2.4236  -2.3754  -2.3066  -2.2238  -2.1838  -2.1355  -2.0823

          k = 0.2996 0.1730-0.6221 ( 26532 PWs)   bands (ev):

   -20.8848 -20.8731 -20.6686 -20.6365 -20.5180 -20.5066 -20.1866 -20.1669
   -19.9633 -19.9515 -19.8268 -19.7933  -8.3233  -8.2661  -8.1764  -8.1418
    -8.0141  -7.9374  -7.5449  -7.4063  -7.3509  -7.2505  -6.9826  -6.9812
    -6.5092  -6.3539  -5.9914  -5.8335  -5.2800  -5.1885  -4.9650  -4.7965
    -4.1942  -4.0974  -3.7940  -3.5604  -2.9687  -2.7792  -2.6322  -2.6091
    -2.5191  -2.4875  -2.3846  -2.3094  -2.2950  -2.1401  -2.1201  -2.0304

          k =-0.1498 0.0865 0.6221 ( 26546 PWs)   bands (ev):

   -20.9314 -20.7628 -20.7456 -20.5978 -20.5729 -20.4944 -20.1899 -20.0905
   -20.0448 -19.9012 -19.8800 -19.7645  -8.3336  -8.2385  -8.2222  -8.1027
    -8.0276  -7.9194  -7.5426  -7.4585  -7.3916  -7.1205  -7.0410  -6.9771
    -6.5167  -6.2748  -6.1607  -5.6370  -5.4346  -5.2346  -4.8824  -4.6591
    -4.4371  -3.8971  -3.8562  -3.5834  -2.9402  -2.8318  -2.6227  -2.5652
    -2.5267  -2.4687  -2.4128  -2.3168  -2.2809  -2.1494  -2.1270  -2.0229

          k = 0.2996 0.3460-0.3111 ( 26515 PWs)   bands (ev):

   -20.9983 -20.8040 -20.6616 -20.6460 -20.5303 -20.4554 -20.1890 -20.0709
   -20.0562 -19.9439 -19.8729 -19.7350  -8.3455  -8.3175  -8.1478  -8.1179
    -8.0494  -7.9394  -7.5985  -7.5303  -7.3815  -7.0832  -7.0530  -6.9632
    -6.6574  -6.3048  -6.0385  -5.6617  -5.6146  -5.0378  -4.8504  -4.5570
    -4.3054  -4.0681  -3.8431  -3.5462  -2.8229  -2.7447  -2.6425  -2.5653
    -2.4919  -2.4293  -2.3659  -2.3473  -2.2445  -2.2018  -2.1279  -2.0041

          k = 0.1498 0.2595 0.0000 ( 26528 PWs)   bands (ev):

   -21.1430 -20.7337 -20.6626 -20.4985 -20.4669 -20.3674 -20.2745 -20.1846
   -20.1387 -19.9553 -19.9097 -19.6171  -8.4060  -8.2865  -8.1721  -8.1185
    -7.9817  -7.9722  -7.6810  -7.5159  -7.2981  -7.2053  -7.1164  -6.9783
    -6.9615  -6.0608  -5.9089  -5.6375  -5.5202  -4.9872  -4.8259  -4.7078
    -4.4897  -4.0142  -3.9221  -3.3237  -2.6910  -2.6628  -2.6179  -2.5262
    -2.4747  -2.4406  -2.2997  -2.2806  -2.2430  -2.2248  -2.1019  -2.0835

          k = 0.2996-0.1730-1.2442 ( 26506 PWs)   bands (ev):

   -20.9875 -20.9362 -20.6846 -20.5553 -20.4698 -20.3893 -20.2099 -20.1583
   -20.0284 -19.9963 -19.7779 -19.7575  -8.3803  -8.3338  -8.1744  -8.1420
    -7.9593  -7.9447  -7.6969  -7.6047  -7.2895  -7.2303  -7.0219  -6.9687
    -6.5548  -6.5150  -5.9877  -5.7681  -5.4222  -5.1144  -4.6781  -4.4162
    -4.2995  -4.2567  -3.7551  -3.5509  -2.7155  -2.6491  -2.6211  -2.5763
    -2.4794  -2.3955  -2.3845  -2.2909  -2.2842  -2.2177  -2.0587  -2.0454

          k = 0.0000 0.0000 0.9332 ( 26489 PWs)   bands (ev):

   -20.8664 -20.8664 -20.7687 -20.7028 -20.4829 -20.4829 -20.0982 -20.0982
   -19.9607 -19.8936 -19.8714 -19.8714  -8.3168  -8.3168  -8.1618  -8.0557
    -8.0440  -8.0440  -7.6103  -7.4918  -7.4918  -6.9775  -6.9775  -6.9305
    -6.4221  -6.4221  -6.4194  -5.6831  -5.3373  -5.3373  -4.6162  -4.4109
    -4.4109  -3.9148  -3.9148  -3.7553  -2.7534  -2.7534  -2.6229  -2.5273
    -2.4611  -2.4611  -2.3902  -2.3209  -2.3209  -2.1825  -2.1825  -1.9760

          k = 0.4494 0.2595 0.0000 ( 26513 PWs)   bands (ev):

   -21.0219 -20.8181 -20.8055 -20.5559 -20.4028 -20.3803 -20.2265 -20.2124
   -20.0291 -19.9097 -19.8668 -19.7220  -8.3722  -8.3228  -8.2409  -8.0679
    -8.0007  -7.9324  -7.7133  -7.5455  -7.4004  -7.1088  -7.0451  -6.9957
    -6.6811  -6.2564  -6.1673  -5.7160  -5.4238  -5.1149  -4.6102  -4.5727
    -4.3447  -4.0272  -3.8846  -3.5224  -2.6909  -2.6819  -2.6050  -2.5809
    -2.4931  -2.4205  -2.3444  -2.3156  -2.2491  -2.1911  -2.1193  -2.0239

          k = 0.2996 0.1730 0.3111 ( 26532 PWs)   bands (ev):

   -21.0559 -20.7431 -20.6352 -20.6186 -20.5155 -20.4435 -20.2079 -20.1771
   -20.0824 -19.9385 -19.8675 -19.6780  -8.3698  -8.3030  -8.2108  -8.0664
    -8.0493  -7.8744  -7.6402  -7.4842  -7.2836  -7.2024  -7.1404  -7.0246
    -6.6911  -6.0857  -5.8953  -5.8020  -5.5635  -5.1496  -4.8237  -4.5946
    -4.4422  -3.9916  -3.8608  -3.4159  -2.8453  -2.7642  -2.6700  -2.6104
    -2.4906  -2.4444  -2.3517  -2.3064  -2.2063  -2.1628  -2.0907  -2.0752

          k = 0.4494-0.2595-0.9332 ( 26504 PWs)   bands (ev):

   -20.8992 -20.8877 -20.7244 -20.6414 -20.4997 -20.4094 -20.2551 -20.1542
   -19.9765 -19.9161 -19.8502 -19.7481  -8.3984  -8.2877  -8.2411  -8.0687
    -8.0159  -7.8546  -7.6997  -7.4488  -7.3075  -7.2448  -7.0701  -7.0301
    -6.3813  -6.3357  -5.9712  -5.8272  -5.6154  -5.2516  -4.7698  -4.4643
    -4.1491  -4.0823  -3.8983  -3.4986  -2.8371  -2.7891  -2.7445  -2.6113
    -2.5698  -2.4695  -2.2885  -2.2624  -2.2183  -2.1765  -2.0931  -2.0328

          k = 0.2996-0.3460-0.6221 ( 26532 PWs)   bands (ev):

   -20.8427 -20.8245 -20.7074 -20.6863 -20.5414 -20.5364 -20.1634 -20.1500
   -19.9650 -19.9521 -19.8219 -19.7834  -8.4117  -8.1930  -8.1608  -8.1332
    -8.0909  -7.8560  -7.5744  -7.4674  -7.2718  -7.2261  -7.0397  -7.0335
    -6.3428  -6.2062  -6.0169  -5.8915  -5.5216  -5.4793  -4.6797  -4.6026
    -4.1559  -4.1145  -3.8922  -3.4815  -3.0038  -2.8095  -2.7400  -2.6603
    -2.5885  -2.4277  -2.3467  -2.2957  -2.2647  -2.1249  -2.1033  -2.0101

          k = 0.0000 0.0000-1.8663 ( 26490 PWs)   bands (ev):

   -20.7979 -20.7558 -20.6714 -20.6714 -20.6605 -20.6605 -20.0747 -20.0747
   -20.0176 -20.0176 -19.8030 -19.7681  -8.4667  -8.1410  -8.1410  -8.1292
    -8.1292  -7.8265  -7.6267  -7.4735  -7.1644  -7.1644  -7.1316  -7.1316
    -6.1332  -5.9760  -5.8911  -5.8911  -5.8631  -5.8631  -4.4291  -4.4291
    -4.2045  -4.2045  -3.8987  -3.4263  -3.0396  -2.8157  -2.8157  -2.7071
    -2.7071  -2.3625  -2.3467  -2.2139  -2.2139  -2.1410  -2.1410  -1.9794

          k = 0.2996-0.3460 0.3111 ( 26515 PWs)   bands (ev):

   -20.9985 -20.8005 -20.6808 -20.6318 -20.5264 -20.4554 -20.1922 -20.0905
   -20.0227 -19.9655 -19.8610 -19.7378  -8.3643  -8.2790  -8.1837  -8.1110
    -8.0271  -7.9440  -7.6552  -7.4907  -7.3582  -7.1282  -7.0097  -6.9865
    -6.6450  -6.2272  -6.1518  -5.7075  -5.4630  -5.1123  -4.9338  -4.4548
    -4.2736  -4.0558  -3.9342  -3.5148  -2.8345  -2.7092  -2.6582  -2.5587
    -2.5071  -2.4353  -2.3689  -2.3441  -2.2648  -2.1653  -2.1281  -2.0144

     highest occupied level (ev):    -1.9760

!    total energy              =    -417.89395984 Ry
     estimated scf accuracy    <          6.9E-09 Ry

     The total energy is the sum of the following terms:
     one-electron contribution =    -278.20679449 Ry
     hartree contribution      =     176.00412928 Ry
     xc contribution           =    -106.62014093 Ry
     ewald contribution        =    -209.07115370 Ry

     convergence has been achieved in  12 iterations

     Forces acting on atoms (cartesian axes, Ry/au):

     atom    1 type  2   force =    -0.01291277    0.01477182   -0.00338760
     atom    2 type  2   force =     0.01291277   -0.01477182    0.00338760
     atom    3 type  2   force =    -0.00633638   -0.01856870   -0.00338760
     atom    4 type  2   force =     0.00633638    0.01856870    0.00338760
     atom    5 type  2   force =     0.01924916    0.00379688   -0.00338760
     atom    6 type  2   force =    -0.01924916   -0.00379688    0.00338760
     atom    7 type  2   force =     0.01056183   -0.00159278    0.00234255
     atom    8 type  2   force =    -0.01056183    0.00159278   -0.00234255
     atom    9 type  2   force =    -0.00390153    0.00994321    0.00234255
     atom   10 type  2   force =     0.00390153   -0.00994321   -0.00234255
     atom   11 type  2   force =    -0.00666031   -0.00835043    0.00234255
     atom   12 type  2   force =     0.00666031    0.00835043   -0.00234255
     atom   13 type  1   force =    -0.01661501    0.01547458   -0.07164151
     atom   14 type  1   force =     0.01661501   -0.01547458    0.07164151
     atom   15 type  1   force =    -0.00509387   -0.02212631   -0.07164151
     atom   16 type  1   force =     0.00509387    0.02212631    0.07164151
     atom   17 type  1   force =     0.02170889    0.00665173   -0.07164151
     atom   18 type  1   force =    -0.02170889   -0.00665173    0.07164151
     atom   19 type  1   force =     0.03308157   -0.03754253    0.06272623
     atom   20 type  1   force =    -0.03308157    0.03754253   -0.06272623
     atom   21 type  1   force =     0.01597200    0.04742075    0.06272623
     atom   22 type  1   force =    -0.01597200   -0.04742075   -0.06272623
     atom   23 type  1   force =    -0.04905357   -0.00987821    0.06272623
     atom   24 type  1   force =     0.04905357    0.00987821   -0.06272623
     atom   25 type  1   force =    -0.00042599    0.04787797    0.01080265
     atom   26 type  1   force =     0.00042599   -0.04787797   -0.01080265
     atom   27 type  1   force =    -0.04125054   -0.02430790    0.01080265
     atom   28 type  1   force =     0.04125054    0.02430790   -0.01080265
     atom   29 type  1   force =     0.04167653   -0.02357007    0.01080265
     atom   30 type  1   force =    -0.04167653    0.02357007   -0.01080265
     atom   31 type  1   force =     0.00540426   -0.04003568   -0.01103323
     atom   32 type  1   force =    -0.00540426    0.04003568    0.01103323
     atom   33 type  1   force =     0.03196979    0.02469807   -0.01103323
     atom   34 type  1   force =    -0.03196979   -0.02469807    0.01103323
     atom   35 type  1   force =    -0.03737405    0.01533762   -0.01103323
     atom   36 type  1   force =     0.03737405   -0.01533762    0.01103323

     Total force =     0.317163     Total SCF correction =     0.000116


     Computing stress (Cartesian axis) and pressure

          total   stress  (Ry/bohr**3)                   (kbar)     P=       82.79
   0.00049452  -0.00000000  -0.00000000           72.75       -0.00       -0.00
   0.00000000   0.00049452   0.00000000            0.00       72.75        0.00
   0.00000000   0.00000000   0.00069937            0.00        0.00      102.88


     BFGS Geometry Optimization
     Energy error            =      0.0E+00 Ry
     Gradient error          =      7.2E-02 Ry/Bohr

     number of scf cycles    =   1
     number of bfgs steps    =   0

     energy             new  =    -417.8939598408 Ry

     new trust radius        =       0.0802397125 bohr
     new conv_thr            =       0.0000001000 Ry


ATOMIC_POSITIONS (crystal)
O                0.2717960265        0.0244238170        0.8538879568
O                0.7282039735        0.9755761940        0.1461120132
O                0.8538879568        0.2717960265        0.0244238170
O                0.1461120132        0.7282039735        0.9755761940
O                0.0244238170        0.8538879568        0.2717960265
O                0.9755761940        0.1461120132        0.7282039735
O                0.4786910924        0.7501278830        0.3317979398
O                0.5213089076        0.2498721170        0.6682020302
O                0.3317979398        0.4786910924        0.7501278830
O                0.6682020302        0.5213089076        0.2498721170
O                0.7501278830        0.3317979398        0.4786910924
O                0.2498721170        0.6682020302        0.5213089076
H                0.1576304530        0.0634662421        0.8040354858
H                0.8423695330        0.9365337499        0.1959645142
H                0.8040354858        0.1576304530        0.0634662421
H                0.1959645142        0.8423695330        0.9365337499
H                0.0634662421        0.8040354858        0.1576304530
H                0.9365337499        0.1959645142        0.8423695330
H                0.4208218425        0.2086736689        1.0020243119
H                0.5791781575        0.7913263461       -0.0020243329
H                1.0020243119        0.4208218425        0.2086736689
H               -0.0020243329        0.5791781575        0.7913263461
H                0.2086736689        1.0020243119        0.4208218425
H                0.7913263461       -0.0020243329        0.5791781575
H                0.7187615357        0.4042858958        0.3947975882
H                0.2812384643        0.5957140742        0.6052024418
H                0.3947975882        0.7187615357        0.4042858958
H                0.6052024418        0.2812384643        0.5957140742
H                0.4042858958        0.3947975882        0.7187615357
H                0.5957140742        0.6052024418        0.2812384643
H                0.7412372501        0.2000767348        0.3597802593
H                0.2587627499        0.7999232502        0.6402197407
H                0.3597802593        0.7412372501        0.2000767348
H                0.6402197407        0.2587627499        0.7999232502
H                0.2000767348        0.3597802593        0.7412372501
H                0.7999232502        0.6402197407        0.2587627499



     Writing config-only to output data dir ./iceII/iceII.save/ :
     XML data file
     NEW-OLD atomic charge density approx. for the potential

     total cpu time spent up to now is       15.5 secs

     per-process dynamical memory:    18.0 Mb

     Self-consistent Calculation

     iteration #  1     ecut=    90.00 Ry     beta= 0.70
     Davidson diagonalization with overlap
     ethr =  1.00E-06,  avg # of iterations =  7.0

     total cpu time spent up to now is       17.2 secs

     total energy              =    -417.96463220 Ry
     estimated scf accuracy    <       0.00630748 Ry

     iteration #  2     ecut=    90.00 Ry     beta= 0.70
     Davidson diagonalization with overlap
     ethr =  6.57E-06,  avg # of iterations =  3.0

     total cpu time spent up to now is       18.2 secs

     total energy              =    -417.96629334 Ry
     estimated scf accuracy    <       0.00239525 Ry

     iteration #  3     ecut=    90.00 Ry     beta= 0.70
     Davidson diagonalization with overlap
     ethr =  2.50E-06,  avg # of iterations =  2.3

     total cpu time spent up to now is       19.0 secs

     total energy              =    -417.96672250 Ry
     estimated scf accuracy    <       0.00007400 Ry

     iteration #  4     ecut=    90.00 Ry     beta= 0.70
     Davidson diagonalization with overlap
     ethr =  7.71E-08,  avg # of iterations =  4.1

     total cpu time spent up to now is       20.2 secs

     total energy              =    -417.96676048 Ry
     estimated scf accuracy    <       0.00006731 Ry

     iteration #  5     ecut=    90.00 Ry     beta= 0.70
     Davidson diagonalization with overlap
     ethr =  7.01E-08,  avg # of iterations =  2.0

     total cpu time spent up to now is       21.0 secs

     total energy              =    -417.96676712 Ry
     estimated scf accuracy    <       0.00000632 Ry

     iteration #  6     ecut=    90.00 Ry     beta= 0.70
     Davidson diagonalization with overlap
     ethr =  6.59E-09,  avg # of iterations =  4.0

     total cpu time spent up to now is       22.2 secs

     total energy              =    -417.96677001 Ry
     estimated scf accuracy    <       0.00000482 Ry

     iteration #  7     ecut=    90.00 Ry     beta= 0.70
     Davidson diagonalization with overlap
     ethr =  5.02E-09,  avg # of iterations =  2.0

     total cpu time spent up to now is       23.0 secs

     total energy              =    -417.96677057 Ry
     estimated scf accuracy    <       0.00000027 Ry

     iteration #  8     ecut=    90.00 Ry     beta= 0.70
     Davidson diagonalization with overlap
     ethr =  2.82E-10,  avg # of iterations =  4.0

     total cpu time spent up to now is       24.1 secs

     End of self-consistent calculation

          k = 0.0000 0.0000 0.0000 ( 26627 PWs)   bands (ev):

   -20.9611 -20.3625 -20.3625 -20.0881 -20.0881 -20.0510 -20.0510 -20.0291
   -20.0275 -19.6378 -19.6378 -19.2347  -8.3190  -8.0734  -8.0734  -8.0339
    -7.9072  -7.9072  -7.5738  -7.3924  -7.3924  -7.2258  -7.2258  -7.0404
    -7.0110  -5.7811  -5.7811  -5.1031  -5.1031  -5.0685  -5.0685  -4.6646
    -4.5081  -3.7893  -3.7893  -3.0445  -2.6205  -2.6205  -2.4916  -2.4032
    -2.3500  -2.3500  -2.1995  -2.1995  -2.1534  -2.1455  -2.0922  -2.0922

          k =-0.1498-0.0865 0.3111 ( 26533 PWs)   bands (ev):

   -20.8671 -20.4133 -20.3454 -20.2737 -20.2375 -20.1430 -19.9653 -19.9106
   -19.8357 -19.6472 -19.5930 -19.3122  -8.2528  -8.1649  -8.0881  -7.9937
    -7.8950  -7.8361  -7.5805  -7.4119  -7.3317  -7.2608  -7.1161  -7.0808
    -6.7498  -5.9661  -5.7842  -5.5231  -5.2245  -4.9130  -4.8584  -4.5444
    -4.5042  -3.7773  -3.7021  -3.2089  -2.7646  -2.6826  -2.5203  -2.4837
    -2.4045  -2.3398  -2.3067  -2.2305  -2.1674  -2.1142  -2.0809  -2.0239

          k = 0.2996 0.1730-0.6221 ( 26532 PWs)   bands (ev):

   -20.6327 -20.6072 -20.3868 -20.3728 -20.2407 -20.2262 -19.8973 -19.8817
   -19.6708 -19.6415 -19.5043 -19.4950  -8.2043  -8.1590  -8.0637  -8.0331
    -7.9034  -7.8395  -7.5201  -7.3987  -7.3240  -7.2969  -7.0130  -7.0035
    -6.3925  -6.2539  -5.8262  -5.7731  -5.2043  -5.1226  -4.7388  -4.5760
    -3.9988  -3.9711  -3.6393  -3.4294  -2.8909  -2.7217  -2.5719  -2.5305
    -2.4552  -2.4005  -2.3140  -2.2682  -2.2218  -2.0908  -2.0409  -1.9731

          k =-0.1498 0.0865 0.6221 ( 26546 PWs)   bands (ev):

   -20.6760 -20.4968 -20.4768 -20.3240 -20.2976 -20.2140 -19.9037 -19.7966
   -19.7499 -19.5973 -19.5714 -19.4528  -8.2146  -8.1312  -8.1146  -7.9905
    -7.9190  -7.8112  -7.5209  -7.4582  -7.3863  -7.1374  -7.0689  -7.0081
    -6.4021  -6.1607  -6.0497  -5.5382  -5.3322  -5.1534  -4.6735  -4.4539
    -4.2703  -3.7584  -3.6882  -3.4540  -2.8666  -2.7677  -2.5653  -2.4760
    -2.4504  -2.4003  -2.3510  -2.2513  -2.2284  -2.0980  -2.0503  -1.9629

          k = 0.2996 0.3460-0.3111 ( 26515 PWs)   bands (ev):

   -20.7433 -20.5343 -20.4178 -20.3547 -20.2542 -20.1731 -19.9064 -19.7841
   -19.7344 -19.6580 -19.5586 -19.4240  -8.2259  -8.1999  -8.0281  -8.0206
    -7.9476  -7.8353  -7.6159  -7.5361  -7.3916  -7.0934  -7.0773  -6.9728
    -6.5512  -6.1636  -5.8918  -5.5900  -5.5209  -4.9192  -4.6141  -4.3994
    -4.1702  -3.9001  -3.6819  -3.3972  -2.7488  -2.6823  -2.5725  -2.5000
    -2.4172  -2.3492  -2.3044  -2.2827  -2.1922  -2.1481  -2.0495  -1.9417

          k = 0.1498 0.2595 0.0000 ( 26528 PWs)   bands (ev):

   -20.8932 -20.4652 -20.3907 -20.2243 -20.1909 -20.0880 -19.9849 -19.8949
   -19.8400 -19.6532 -19.6073 -19.2973  -8.2936  -8.1648  -8.0834  -7.9891
    -7.8801  -7.8691  -7.7114  -7.5001  -7.3265  -7.2126  -7.1179  -6.9976
    -6.8934  -5.8944  -5.7645  -5.5342  -5.4277  -4.8291  -4.6535  -4.5394
    -4.3641  -3.8585  -3.7759  -3.1301  -2.6255  -2.5962  -2.5498  -2.4595
    -2.3975  -2.3650  -2.2330  -2.2083  -2.1800  -2.1666  -2.0368  -2.0201

          k = 0.2996-0.1730-1.2442 ( 26506 PWs)   bands (ev):

   -20.7310 -20.6776 -20.4132 -20.2851 -20.1915 -20.1131 -19.9110 -19.8705
   -19.7184 -19.7014 -19.4678 -19.4480  -8.2625  -8.2093  -8.0668  -8.0121
    -7.8674  -7.8636  -7.7320  -7.6042  -7.3392  -7.2223  -7.0385  -6.9746
    -6.4084  -6.3999  -5.8575  -5.6811  -5.3020  -4.9552  -4.4850  -4.2734
    -4.1413  -4.1148  -3.5846  -3.3883  -2.6516  -2.5807  -2.5520  -2.5142
    -2.4082  -2.3126  -2.3120  -2.2309  -2.2213  -2.1643  -1.9909  -1.9758

          k = 0.0000 0.0000 0.9332 ( 26489 PWs)   bands (ev):

   -20.6041 -20.6041 -20.5080 -20.4346 -20.2032 -20.2032 -19.8061 -19.8061
   -19.6343 -19.6077 -19.5657 -19.5657  -8.1932  -8.1932  -8.0544  -7.9758
    -7.9394  -7.9394  -7.6215  -7.4964  -7.4964  -6.9996  -6.9996  -6.9387
    -6.3118  -6.3118  -6.2266  -5.6498  -5.2230  -5.2230  -4.3787  -4.2273
    -4.2273  -3.7648  -3.7648  -3.6418  -2.6867  -2.6867  -2.5435  -2.4768
    -2.3811  -2.3811  -2.3022  -2.2728  -2.2728  -2.1165  -2.1165  -1.9133

          k = 0.4494 0.2595 0.0000 ( 26513 PWs)   bands (ev):

   -20.7671 -20.5540 -20.5404 -20.2880 -20.1142 -20.1046 -19.9359 -19.9243
   -19.7195 -19.6079 -19.5633 -19.4094  -8.2532  -8.1971  -8.1263  -7.9501
    -7.9075  -7.8550  -7.7315  -7.5544  -7.4372  -7.1188  -7.0491  -7.0073
    -6.5632  -6.1018  -6.0474  -5.6501  -5.2814  -4.9468  -4.4583  -4.4316
    -4.1588  -3.8728  -3.7342  -3.3517  -2.6248  -2.6131  -2.5403  -2.5171
    -2.4195  -2.3468  -2.2737  -2.2505  -2.1859  -2.1293  -2.0597  -1.9515

          k = 0.2996 0.1730 0.3111 ( 26532 PWs)   bands (ev):

   -20.8031 -20.4734 -20.3654 -20.3490 -20.2383 -20.1625 -19.9228 -19.8778
   -19.7945 -19.6320 -19.5620 -19.3618  -8.2508  -8.1910  -8.0956  -7.9563
    -7.9377  -7.7679  -7.6581  -7.4663  -7.3076  -7.2431  -7.1415  -7.0399
    -6.6055  -5.9533  -5.7724  -5.6525  -5.4811  -4.9689  -4.6744  -4.4438
    -4.3157  -3.8200  -3.7028  -3.2457  -2.7733  -2.6996  -2.5987  -2.5412
    -2.4144  -2.3849  -2.2743  -2.2511  -2.1589  -2.1010  -2.0295  -1.9955

          k = 0.4494-0.2595-0.9332 ( 26504 PWs)   bands (ev):

   -20.6398 -20.6265 -20.4564 -20.3743 -20.2220 -20.1247 -19.9718 -19.8564
   -19.6825 -19.6058 -19.5448 -19.4363  -8.2699  -8.1709  -8.1190  -7.9565
    -7.9078  -7.7763  -7.6962  -7.4710  -7.3289  -7.2829  -7.0830  -7.0348
    -6.2576  -6.2146  -5.8484  -5.7388  -5.4626  -5.0440  -4.6604  -4.3462
    -4.0108  -3.8765  -3.7447  -3.3340  -2.7648  -2.7201  -2.6752  -2.5390
    -2.4973  -2.4119  -2.2300  -2.1977  -2.1727  -2.1198  -2.0288  -1.9455

          k = 0.2996-0.3460-0.6221 ( 26532 PWs)   bands (ev):

   -20.5854 -20.5591 -20.4303 -20.4271 -20.2635 -20.2561 -19.8702 -19.8629
   -19.6640 -19.6549 -19.5055 -19.4765  -8.2821  -8.0858  -8.0443  -8.0222
    -7.9788  -7.7488  -7.5557  -7.5004  -7.2696  -7.2544  -7.0645  -7.0592
    -6.2068  -6.1031  -5.8774  -5.8138  -5.3876  -5.3371  -4.5145  -4.4314
    -4.0269  -3.9799  -3.6965  -3.3486  -2.9179  -2.7451  -2.6739  -2.5838
    -2.5075  -2.3815  -2.2743  -2.2419  -2.2145  -2.0711  -2.0399  -1.9274

          k = 0.0000 0.0000-1.8663 ( 26490 PWs)   bands (ev):

   -20.5248 -20.4984 -20.4207 -20.4207 -20.3712 -20.3712 -19.7545 -19.7545
   -19.7461 -19.7461 -19.4929 -19.4526  -8.3313  -8.0311  -8.0311  -8.0033
    -8.0033  -7.7476  -7.5875  -7.5353  -7.1754  -7.1754  -7.1686  -7.1686
    -5.9685  -5.9623  -5.7512  -5.7512  -5.6932  -5.6932  -4.2593  -4.2593
    -4.1103  -4.1103  -3.6750  -3.2916  -2.9382  -2.7497  -2.7497  -2.6353
    -2.6353  -2.3287  -2.2718  -2.1674  -2.1674  -2.0790  -2.0790  -1.8857

          k = 0.2996-0.3460 0.3111 ( 26515 PWs)   bands (ev):

   -20.7428 -20.5397 -20.3963 -20.3729 -20.2515 -20.1748 -19.9026 -19.7764
   -19.7582 -19.6398 -19.5628 -19.4249  -8.2428  -8.1640  -8.0719  -7.9990
    -7.9219  -7.8516  -7.6711  -7.4873  -7.3731  -7.1420  -7.0405  -6.9885
    -6.5411  -6.1011  -5.9999  -5.5981  -5.4031  -4.9914  -4.7197  -4.2741
    -4.0992  -3.9173  -3.7883  -3.3559  -2.7620  -2.6428  -2.5898  -2.4946
    -2.4396  -2.3497  -2.2994  -2.2798  -2.2208  -2.1088  -2.0516  -1.9507

     highest occupied level (ev):    -1.8857

!    total energy              =    -417.96677071 Ry
     estimated scf accuracy    <       0.00000005 Ry

     The total energy is the sum of the following terms:
     one-electron contribution =    -274.37078886 Ry
     hartree contribution      =     174.33196543 Ry
     xc contribution           =    -106.27165502 Ry
     ewald contribution        =    -211.65629226 Ry

     convergence has been achieved in   8 iterations

     Forces acting on atoms (cartesian axes, Ry/au):

     atom    1 type  2   force =    -0.01197766    0.02415215    0.02495259
     atom    2 type  2   force =     0.01197766   -0.02415215   -0.02495259
     atom    3 type  2   force =    -0.01492754   -0.02244903    0.02495259
     atom    4 type  2   force =     0.01492754    0.02244903   -0.02495259
     atom    5 type  2   force =     0.02690520   -0.00170311    0.02495259
     atom    6 type  2   force =    -0.02690520    0.00170311   -0.02495259
     atom    7 type  2   force =    -0.02357131    0.00615056   -0.01184517
     atom    8 type  2   force =     0.02357131   -0.00615056    0.01184517
     atom    9 type  2   force =     0.00645912   -0.02348863   -0.01184517
     atom   10 type  2   force =    -0.00645912    0.02348863    0.01184517
     atom   11 type  2   force =     0.01711219    0.01733807   -0.01184517
     atom   12 type  2   force =    -0.01711219   -0.01733807    0.01184517
     atom   13 type  1   force =    -0.00894672    0.00123565   -0.04726469
     atom   14 type  1   force =     0.00894672   -0.00123565    0.04726469
     atom   15 type  1   force =     0.00340326   -0.00836591   -0.04726469
     atom   16 type  1   force =    -0.00340326    0.00836591    0.04726469
     atom   17 type  1   force =     0.00554346    0.00713027   -0.04726469
     atom   18 type  1   force =    -0.00554346   -0.00713027    0.04726469
     atom   19 type  1   force =     0.02603109   -0.03176773    0.01160377
     atom   20 type  1   force =    -0.02603109    0.03176773   -0.01160377
     atom   21 type  1   force =     0.01449611    0.03842745    0.01160377
     atom   22 type  1   force =    -0.01449611   -0.03842745   -0.01160377
     atom   23 type  1   force =    -0.04052720   -0.00665972    0.01160377
     atom   24 type  1   force =     0.04052720    0.00665972   -0.01160377
     atom   25 type  1   force =    -0.01001070    0.00474826    0.01309975
     atom   26 type  1   force =     0.01001070   -0.00474826   -0.01309975
     atom   27 type  1   force =     0.00089323   -0.01104365    0.01309975
     atom   28 type  1   force =    -0.00089323    0.01104365   -0.01309975
     atom   29 type  1   force =     0.00911747    0.00629539    0.01309975
     atom   30 type  1   force =    -0.00911747   -0.00629539   -0.01309975
     atom   31 type  1   force =    -0.00875267   -0.02285332    0.00096149
     atom   32 type  1   force =     0.00875267    0.02285332   -0.00096149
     atom   33 type  1   force =     0.02416789    0.00384662    0.00096149
     atom   34 type  1   force =    -0.02416789   -0.00384662   -0.00096149
     atom   35 type  1   force =    -0.01541522    0.01900670    0.00096149
     atom   36 type  1   force =     0.01541522   -0.01900670   -0.00096149

     Total force =     0.206606     Total SCF correction =     0.000177


     Computing stress (Cartesian axis) and pressure

          total   stress  (Ry/bohr**3)                   (kbar)     P=       40.43
   0.00023886  -0.00000000  -0.00000000           35.14       -0.00       -0.00
   0.00000000   0.00023886   0.00000000            0.00       35.14        0.00
  -0.00000000   0.00000000   0.00034683           -0.00        0.00       51.02

     Energy error            =      7.3E-02 Ry
     Gradient error          =      4.7E-02 Ry/Bohr

     number of scf cycles    =   2
     number of bfgs steps    =   1

     energy             old  =    -417.8939598408 Ry
     energy             new  =    -417.9667707139 Ry

     CASE: energy            _new < energy            _old

     new trust radius        =       0.1433065484 bohr
     new conv_thr            =       0.0000000473 Ry


ATOMIC_POSITIONS (crystal)
O                0.2729429630        0.0309692002        0.8577062071
O                0.7270570370        0.9690308108        0.1422937629
O                0.8577062071        0.2729429630        0.0309692002
O                0.1422937629        0.7270570370        0.9690308108
O                0.0309692002        0.8577062071        0.2729429630
O                0.9690308108        0.1422937629        0.7270570370
O                0.4751487341        0.7488525257        0.3312926522
O                0.5248512659        0.2511474743        0.6687073178
O                0.3312926522        0.4751487341        0.7488525257
O                0.6687073178        0.5248512659        0.2511474743
O                0.7488525257        0.3312926522        0.4751487341
O                0.2511474743        0.6687073178        0.5248512659
H                0.1438179500        0.0518609265        0.7926484283
H                0.8561820360        0.9481390655        0.2073515717
H                0.7926484283        0.1438179500        0.0518609265
H                0.2073515717        0.8561820360        0.9481390655
H                0.0518609265        0.7926484283        0.1438179500
H                0.9481390655        0.2073515717        0.8561820360
H                0.4318869922        0.2103693435        1.0069742146
H                0.5681130078        0.7896306715       -0.0069742356
H                1.0069742146        0.4318869922        0.2103693435
H               -0.0069742356        0.5681130078        0.7896306715
H                0.2103693435        1.0069742146        0.4318869922
H                0.7896306715       -0.0069742356        0.5681130078
H                0.7197179244        0.4092409935        0.3973469093
H                0.2802820756        0.5907589765        0.6026531207
H                0.3973469093        0.7197179244        0.4092409935
H                0.6026531207        0.2802820756        0.5907589765
H                0.4092409935        0.3973469093        0.7197179244
H                0.5907589765        0.6026531207        0.2802820756
H                0.7419141456        0.1960348474        0.3614934262
H                0.2580858544        0.8039651376        0.6385065738
H                0.3614934262        0.7419141456        0.1960348474
H                0.6385065738        0.2580858544        0.8039651376
H                0.1960348474        0.3614934262        0.7419141456
H                0.8039651376        0.6385065738        0.2580858544



     Writing config-only to output data dir ./iceII/iceII.save/ :
     XML data file
     NEW-OLD atomic charge density approx. for the potential

     total cpu time spent up to now is       25.5 secs

     per-process dynamical memory:    18.4 Mb

     Self-consistent Calculation

     iteration #  1     ecut=    90.00 Ry     beta= 0.70
     Davidson diagonalization with overlap
     ethr =  1.00E-06,  avg # of iterations =  8.8

     total cpu time spent up to now is       27.4 secs

     total energy              =    -418.02648955 Ry
     estimated scf accuracy    <       0.00688899 Ry

     iteration #  2     ecut=    90.00 Ry     beta= 0.70
     Davidson diagonalization with overlap
     ethr =  7.18E-06,  avg # of iterations =  2.0

     total cpu time spent up to now is       28.3 secs

     total energy              =    -418.02753456 Ry
     estimated scf accuracy    <       0.00047897 Ry

     iteration #  3     ecut=    90.00 Ry     beta= 0.70
     Davidson diagonalization with overlap
     ethr =  4.99E-07,  avg # of iterations =  2.0

     total cpu time spent up to now is       29.1 secs

     total energy              =    -418.02760943 Ry
     estimated scf accuracy    <       0.00003932 Ry

     iteration #  4     ecut=    90.00 Ry     beta= 0.70
     Davidson diagonalization with overlap
     ethr =  4.10E-08,  avg # of iterations =  2.0

     total cpu time spent up to now is       30.0 secs

     total energy              =    -418.02761734 Ry
     estimated scf accuracy    <       0.00000373 Ry

     iteration #  5     ecut=    90.00 Ry     beta= 0.70
     Davidson diagonalization with overlap
     ethr =  3.89E-09,  avg # of iterations =  2.5

     total cpu time spent up to now is       31.0 secs

     total energy              =    -418.02761828 Ry
     estimated scf accuracy    <       0.00000018 Ry

     iteration #  6     ecut=    90.00 Ry     beta= 0.70
     Davidson diagonalization with overlap
     ethr =  1.82E-10,  avg # of iterations =  3.3

     total cpu time spent up to now is       31.9 secs

     End of self-consistent calculation

          k = 0.0000 0.0000 0.0000 ( 26627 PWs)   bands (ev):

   -20.8192 -20.2216 -20.2216 -19.9150 -19.9150 -19.8970 -19.8970 -19.8721
   -19.8624 -19.4607 -19.4607 -19.0644  -8.4066  -8.2574  -8.2574  -8.1696
    -8.0522  -8.0522  -7.7560  -7.6581  -7.6581  -7.6409  -7.6409  -7.4776
    -6.9020  -5.5067  -5.5067  -4.8896  -4.8896  -4.7132  -4.7132  -4.3592
    -4.3271  -3.5472  -3.5472  -2.8025  -2.5705  -2.5705  -2.4908  -2.3401
    -2.3401  -2.3244  -2.1834  -2.1834  -2.1532  -2.0307  -2.0195  -2.0195

          k =-0.1498-0.0865 0.3111 ( 26533 PWs)   bands (ev):

   -20.7248 -20.2678 -20.2149 -20.1025 -20.0708 -19.9860 -19.8058 -19.7441
   -19.6738 -19.4718 -19.4181 -19.1404  -8.3528  -8.2904  -8.2455  -8.1530
    -8.0456  -7.9978  -7.7966  -7.7362  -7.6648  -7.5650  -7.5438  -7.4817
    -6.6337  -5.7206  -5.5422  -5.2332  -5.0317  -4.6634  -4.5055  -4.3060
    -4.1689  -3.5438  -3.4496  -2.9745  -2.6877  -2.6233  -2.5062  -2.4344
    -2.3948  -2.3202  -2.2292  -2.1853  -2.1176  -2.0841  -2.0314  -1.9880

          k = 0.2996 0.1730-0.6221 ( 26532 PWs)   bands (ev):

   -20.5080 -20.4419 -20.2571 -20.1904 -20.0977 -20.0572 -19.7496 -19.6991
   -19.5269 -19.4547 -19.3503 -19.3016  -8.3012  -8.2885  -8.2137  -8.1633
    -8.0604  -7.9870  -7.7967  -7.7510  -7.6475  -7.6264  -7.4344  -7.4104
    -6.1612  -6.0485  -5.5917  -5.5720  -4.9937  -4.9293  -4.3320  -4.2218
    -3.7363  -3.7034  -3.3959  -3.2420  -2.7604  -2.6650  -2.5489  -2.4745
    -2.4186  -2.3463  -2.2728  -2.2278  -2.1865  -2.0677  -1.9922  -1.9539

          k =-0.1498 0.0865 0.6221 ( 26546 PWs)   bands (ev):

   -20.5375 -20.3497 -20.3246 -20.1724 -20.1307 -20.0558 -19.7411 -19.6383
   -19.5816 -19.4296 -19.3996 -19.2736  -8.3035  -8.2691  -8.2433  -8.1633
    -8.0532  -7.9626  -7.7909  -7.7674  -7.7242  -7.5074  -7.4732  -7.4237
    -6.1934  -5.9139  -5.8462  -5.3238  -5.1162  -4.9402  -4.3111  -4.0828
    -3.9748  -3.5367  -3.4458  -3.2498  -2.7516  -2.6945  -2.5417  -2.4357
    -2.3898  -2.3640  -2.3057  -2.2047  -2.1983  -2.0737  -2.0070  -1.9388

          k = 0.2996 0.3460-0.3111 ( 26515 PWs)   bands (ev):

   -20.6007 -20.3901 -20.2891 -20.1817 -20.0832 -20.0129 -19.7495 -19.6401
   -19.5308 -19.5148 -19.3772 -19.2491  -8.3146  -8.2993  -8.2027  -8.1512
    -8.0836  -7.9890  -7.9010  -7.8572  -7.7563  -7.5015  -7.4602  -7.3973
    -6.3057  -5.8886  -5.6078  -5.3925  -5.3037  -4.7023  -4.2073  -4.1119
    -3.9570  -3.6399  -3.4153  -3.1661  -2.6672  -2.6357  -2.5393  -2.4769
    -2.3804  -2.3002  -2.2696  -2.2423  -2.1617  -2.1130  -1.9945  -1.9014

          k = 0.1498 0.2595 0.0000 ( 26528 PWs)   bands (ev):

   -20.7507 -20.3253 -20.2500 -20.0619 -20.0219 -19.9175 -19.8312 -19.7378
   -19.6785 -19.4771 -19.4274 -19.1261  -8.3772  -8.2813  -8.2447  -8.1325
    -8.0488  -8.0446  -7.9409  -7.7927  -7.7072  -7.5796  -7.5071  -7.4487
    -6.6662  -5.5851  -5.5158  -5.2697  -5.1917  -4.5636  -4.3602  -4.2261
    -4.1535  -3.5934  -3.5401  -2.8612  -2.5828  -2.5559  -2.5420  -2.4485
    -2.3698  -2.3203  -2.2067  -2.1811  -2.1570  -2.0843  -1.9800  -1.9529

          k = 0.2996-0.1730-1.2442 ( 26506 PWs)   bands (ev):

   -20.5844 -20.5391 -20.2735 -20.1212 -20.0297 -19.9379 -19.7635 -19.7095
   -19.5595 -19.5184 -19.2999 -19.2672  -8.3410  -8.2852  -8.2048  -8.1317
    -8.0808  -8.0653  -7.9869  -7.8928  -7.7398  -7.5740  -7.4657  -7.4051
    -6.1258  -6.1175  -5.5592  -5.4899  -5.0511  -4.6950  -4.1735  -4.0628
    -3.8825  -3.8116  -3.3409  -3.1244  -2.6199  -2.5525  -2.5064  -2.5024
    -2.3969  -2.2603  -2.2598  -2.2051  -2.1890  -2.1116  -1.9313  -1.9213

          k = 0.0000 0.0000 0.9332 ( 26489 PWs)   bands (ev):

   -20.4562 -20.4562 -20.3994 -20.2418 -20.0424 -20.0424 -19.6462 -19.6462
   -19.5075 -19.3939 -19.3939 -19.3931  -8.2897  -8.2897  -8.2024  -8.1628
    -8.0749  -8.0749  -7.9005  -7.8374  -7.8374  -7.4150  -7.4150  -7.3724
    -6.0374  -6.0374  -5.8473  -5.5196  -5.0194  -5.0194  -3.9661  -3.9347
    -3.9347  -3.5103  -3.5103  -3.4508  -2.6261  -2.6261  -2.5080  -2.4637
    -2.3382  -2.3382  -2.2556  -2.2490  -2.2490  -2.0643  -2.0643  -1.8684

          k = 0.4494 0.2595 0.0000 ( 26513 PWs)   bands (ev):

   -20.6235 -20.4080 -20.4037 -20.1157 -19.9703 -19.9285 -19.7842 -19.7506
   -19.5663 -19.4353 -19.3827 -19.2349  -8.3299  -8.2821  -8.2349  -8.1170
    -8.0963  -8.0541  -7.9723  -7.8657  -7.8082  -7.5199  -7.4498  -7.4386
    -6.2907  -5.7872  -5.7604  -5.4812  -5.0166  -4.6753  -4.2090  -4.1745
    -3.8577  -3.6019  -3.4940  -3.0892  -2.5969  -2.5671  -2.5129  -2.5086
    -2.3867  -2.3045  -2.2544  -2.2137  -2.1367  -2.0786  -2.0057  -1.8908

          k = 0.2996 0.1730 0.3111 ( 26532 PWs)   bands (ev):

   -20.6607 -20.3322 -20.2346 -20.1794 -20.0655 -20.0019 -19.7622 -19.7281
   -19.6117 -19.4735 -19.3822 -19.1873  -8.3314  -8.2843  -8.2427  -8.1179
    -8.0774  -7.9533  -7.9264  -7.7251  -7.6848  -7.6446  -7.5251  -7.4443
    -6.4307  -5.7230  -5.5822  -5.2763  -5.2722  -4.6799  -4.3560  -4.1966
    -4.0784  -3.5656  -3.4528  -2.9923  -2.6888  -2.6514  -2.5662  -2.4891
    -2.3982  -2.3473  -2.2366  -2.2067  -2.1238  -2.0670  -1.9869  -1.9508

          k = 0.4494-0.2595-0.9332 ( 26504 PWs)   bands (ev):

   -20.4942 -20.4883 -20.3154 -20.2053 -20.0590 -19.9674 -19.8071 -19.6944
   -19.5076 -19.4523 -19.3761 -19.2506  -8.3053  -8.2752  -8.2221  -8.1181
    -8.0779  -8.0184  -7.8978  -7.8157  -7.7111  -7.6530  -7.4921  -7.4433
    -6.0633  -5.9403  -5.6049  -5.5363  -5.1509  -4.6823  -4.4350  -4.1375
    -3.7582  -3.6067  -3.5025  -3.0621  -2.6806  -2.6641  -2.6175  -2.4984
    -2.4533  -2.4007  -2.2007  -2.1650  -2.1454  -2.0795  -1.9870  -1.8989

          k = 0.2996-0.3460-0.6221 ( 26532 PWs)   bands (ev):

   -20.4642 -20.3924 -20.2943 -20.2601 -20.1062 -20.0881 -19.7185 -19.6922
   -19.4997 -19.4770 -19.3669 -19.2733  -8.3197  -8.2338  -8.1900  -8.1490
    -8.1095  -7.9216  -7.8517  -7.8114  -7.6305  -7.6165  -7.4834  -7.4677
    -5.9806  -5.9364  -5.6515  -5.5868  -5.1000  -5.0443  -4.2029  -4.1221
    -3.7913  -3.7525  -3.4480  -3.1420  -2.7591  -2.6844  -2.6232  -2.5312
    -2.4444  -2.3412  -2.2531  -2.2152  -2.1836  -2.0511  -2.0142  -1.8839

          k = 0.0000 0.0000-1.8663 ( 26490 PWs)   bands (ev):

   -20.4096 -20.3047 -20.3005 -20.3005 -20.1870 -20.1870 -19.6188 -19.6188
   -19.5487 -19.5487 -19.3608 -19.2462  -8.3293  -8.1589  -8.1589  -8.1407
    -8.1407  -7.9574  -7.9026  -7.7979  -7.5742  -7.5742  -7.5717  -7.5717
    -5.9278  -5.7609  -5.4828  -5.4828  -5.3338  -5.3338  -3.9500  -3.9500
    -3.9246  -3.9246  -3.4425  -3.0777  -2.7147  -2.6895  -2.6895  -2.5890
    -2.5890  -2.2884  -2.2591  -2.1381  -2.1381  -2.0654  -2.0654  -1.8349

          k = 0.2996-0.3460 0.3111 ( 26515 PWs)   bands (ev):

   -20.5995 -20.4027 -20.2598 -20.1999 -20.0823 -20.0169 -19.7389 -19.6324
   -19.5864 -19.4592 -19.3930 -19.2484  -8.3223  -8.2860  -8.2063  -8.1224
    -8.0980  -8.0148  -7.9409  -7.8093  -7.7490  -7.4926  -7.4688  -7.4045
    -6.3087  -5.8709  -5.6636  -5.3570  -5.2452  -4.7722  -4.3343  -3.9755
    -3.8377  -3.6752  -3.5435  -3.1126  -2.6760  -2.6062  -2.5451  -2.4802
    -2.3852  -2.3123  -2.2686  -2.2434  -2.1883  -2.0691  -2.0002  -1.9084

     highest occupied level (ev):    -1.8349

!    total energy              =    -418.02761834 Ry
     estimated scf accuracy    <       0.00000002 Ry

     The total energy is the sum of the following terms:
     one-electron contribution =    -272.27742626 Ry
     hartree contribution      =     173.42458057 Ry
     xc contribution           =    -106.19501668 Ry
     ewald contribution        =    -212.97975597 Ry

     convergence has been achieved in   6 iterations

     Forces acting on atoms (cartesian axes, Ry/au):

     atom    1 type  2   force =    -0.00235266    0.00407861    0.00052043
     atom    2 type  2   force =     0.00235266   -0.00407861   -0.00052043
     atom    3 type  2   force =    -0.00235585   -0.00407676    0.00052043
     atom    4 type  2   force =     0.00235585    0.00407676   -0.00052043
     atom    5 type  2   force =     0.00470850   -0.00000184    0.00052043
     atom    6 type  2   force =    -0.00470850    0.00000184   -0.00052043
     atom    7 type  2   force =    -0.00318909    0.00918718   -0.01400470
     atom    8 type  2   force =     0.00318909   -0.00918718    0.01400470
     atom    9 type  2   force =    -0.00636178   -0.00735542   -0.01400470
     atom   10 type  2   force =     0.00636178    0.00735542    0.01400470
     atom   11 type  2   force =     0.00955087   -0.00183175   -0.01400470
     atom   12 type  2   force =    -0.00955087    0.00183175    0.01400470
     atom   13 type  1   force =    -0.00154776   -0.00817716   -0.00293626
     atom   14 type  1   force =     0.00154776    0.00817716    0.00293626
     atom   15 type  1   force =     0.00785550    0.00274818   -0.00293626
     atom   16 type  1   force =    -0.00785550   -0.00274818    0.00293626
     atom   17 type  1   force =    -0.00630775    0.00542898   -0.00293626
     atom   18 type  1   force =     0.00630775   -0.00542898    0.00293626
     atom   19 type  1   force =     0.00989578    0.00079635   -0.00479290
     atom   20 type  1   force =    -0.00989578   -0.00079635    0.00479290
     atom   21 type  1   force =    -0.00563756    0.00817182   -0.00479290
     atom   22 type  1   force =     0.00563756   -0.00817182    0.00479290
     atom   23 type  1   force =    -0.00425823   -0.00896818   -0.00479290
     atom   24 type  1   force =     0.00425823    0.00896818    0.00479290
     atom   25 type  1   force =     0.00241180   -0.00196002    0.00617842
     atom   26 type  1   force =    -0.00241180    0.00196002   -0.00617842
     atom   27 type  1   force =     0.00049153    0.00306869    0.00617842
     atom   28 type  1   force =    -0.00049153   -0.00306869   -0.00617842
     atom   29 type  1   force =    -0.00290332   -0.00110867    0.00617842
     atom   30 type  1   force =     0.00290332    0.00110867   -0.00617842
     atom   31 type  1   force =    -0.00990160    0.00112314    0.00516581
     atom   32 type  1   force =     0.00990160   -0.00112314   -0.00516581
     atom   33 type  1   force =     0.00397813   -0.00913661    0.00516581
     atom   34 type  1   force =    -0.00397813    0.00913661   -0.00516581
     atom   35 type  1   force =     0.00592347    0.00801347    0.00516581
     atom   36 type  1   force =    -0.00592347   -0.00801347   -0.00516581

     Total force =     0.064174     Total SCF correction =     0.000277


     Computing stress (Cartesian axis) and pressure

          total   stress  (Ry/bohr**3)                   (kbar)     P=       25.27
   0.00015269  -0.00000000   0.00000000           22.46       -0.00        0.00
   0.00000000   0.00015269   0.00000000            0.00       22.46        0.00
   0.00000000   0.00000000   0.00020988            0.00        0.00       30.87

     Energy error            =      6.1E-02 Ry
     Gradient error          =      1.4E-02 Ry/Bohr

     number of scf cycles    =   3
     number of bfgs steps    =   2

     energy             old  =    -417.9667707139 Ry
     energy             new  =    -418.0276183359 Ry

     CASE: energy            _new < energy            _old

     new trust radius        =       0.0189386329 bohr
     new conv_thr            =       0.0000000140 Ry


ATOMIC_POSITIONS (crystal)
O                0.2726793109        0.0314777932        0.8578578817
O                0.7273206891        0.9685222178        0.1421420883
O                0.8578578817        0.2726793109        0.0314777932
O                0.1421420883        0.7273206891        0.9685222178
O                0.0314777932        0.8578578817        0.2726793109
O                0.9685222178        0.1421420883        0.7273206891
O                0.4733855820        0.7479767312        0.3298173949
O                0.5266144180        0.2520232688        0.6701825751
O                0.3298173949        0.4733855820        0.7479767312
O                0.6701825751        0.5266144180        0.2520232688
O                0.7479767312        0.3298173949        0.4733855820
O                0.2520232688        0.6701825751        0.5266144180
H                0.1424703663        0.0501969149        0.7916685851
H                0.8575296197        0.9498030771        0.2083314149
H                0.7916685851        0.1424703663        0.0501969149
H                0.2083314149        0.8575296197        0.9498030771
H                0.0501969149        0.7916685851        0.1424703663
H                0.9498030771        0.2083314149        0.8575296197
H                0.4330430354        0.2104023836        1.0067312566
H                0.5669569646        0.7895976314       -0.0067312776
H                1.0067312566        0.4330430354        0.2104023836
H               -0.0067312776        0.5669569646        0.7895976314
H                0.2104023836        1.0067312566        0.4330430354
H                0.7895976314       -0.0067312776        0.5669569646
H                0.7204754755        0.4102329040        0.3979335697
H                0.2795245245        0.5897670660        0.6020664603
H                0.3979335697        0.7204754755        0.4102329040
H                0.6020664603        0.2795245245        0.5897670660
H                0.4102329040        0.3979335697        0.7204754755
H                0.5897670660        0.6020664603        0.2795245245
H                0.7419682196        0.1961510460        0.3624419499
H                0.2580317804        0.8038489390        0.6375580501
H                0.3624419499        0.7419682196        0.1961510460
H                0.6375580501        0.2580317804        0.8038489390
H                0.1961510460        0.3624419499        0.7419682196
H                0.8038489390        0.6375580501        0.2580317804



     Writing config-only to output data dir ./iceII/iceII.save/ :
     XML data file
     NEW-OLD atomic charge density approx. for the potential

     total cpu time spent up to now is       33.2 secs

     per-process dynamical memory:    18.4 Mb

     Self-consistent Calculation

     iteration #  1     ecut=    90.00 Ry     beta= 0.70
     Davidson diagonalization with overlap
     ethr =  1.00E-06,  avg # of iterations =  5.1

     total cpu time spent up to now is       34.6 secs

     total energy              =    -418.03004700 Ry
     estimated scf accuracy    <       0.00067214 Ry

     iteration #  2     ecut=    90.00 Ry     beta= 0.70
     Davidson diagonalization with overlap
     ethr =  7.00E-07,  avg # of iterations =  2.0

     total cpu time spent up to now is       35.5 secs

     total energy              =    -418.03019713 Ry
     estimated scf accuracy    <       0.00009583 Ry

     iteration #  3     ecut=    90.00 Ry     beta= 0.70
     Davidson diagonalization with overlap
     ethr =  9.98E-08,  avg # of iterations =  2.0

     total cpu time spent up to now is       36.4 secs

     total energy              =    -418.03021967 Ry
     estimated scf accuracy    <       0.00000534 Ry

     iteration #  4     ecut=    90.00 Ry     beta= 0.70
     Davidson diagonalization with overlap
     ethr =  5.56E-09,  avg # of iterations =  2.0

     total cpu time spent up to now is       37.3 secs

     total energy              =    -418.03022061 Ry
     estimated scf accuracy    <       0.00000070 Ry

     iteration #  5     ecut=    90.00 Ry     beta= 0.70
     Davidson diagonalization with overlap
     ethr =  7.24E-10,  avg # of iterations =  2.0

     total cpu time spent up to now is       38.2 secs

     total energy              =    -418.03022079 Ry
     estimated scf accuracy    <       0.00000008 Ry

     iteration #  6     ecut=    90.00 Ry     beta= 0.70
     Davidson diagonalization with overlap
     ethr =  8.61E-11,  avg # of iterations =  2.3

     total cpu time spent up to now is       39.1 secs

     End of self-consistent calculation

          k = 0.0000 0.0000 0.0000 ( 26627 PWs)   bands (ev):

   -20.8369 -20.2473 -20.2473 -19.9260 -19.9260 -19.9230 -19.9230 -19.8872
   -19.8860 -19.4722 -19.4722 -19.0873  -8.5055  -8.3115  -8.3115  -8.2423
    -8.1615  -8.1615  -7.7971  -7.7342  -7.7342  -7.6934  -7.6934  -7.5345
    -6.8471  -5.4662  -5.4662  -4.8707  -4.8707  -4.6568  -4.6568  -4.3254
    -4.3083  -3.5224  -3.5224  -2.7898  -2.5847  -2.5847  -2.4987  -2.3415
    -2.3415  -2.3218  -2.1731  -2.1731  -2.1714  -2.0257  -2.0257  -2.0249

          k =-0.1498-0.0865 0.3111 ( 26533 PWs)   bands (ev):

   -20.7443 -20.2946 -20.2497 -20.1117 -20.0715 -19.9993 -19.8336 -19.7716
   -19.7023 -19.4806 -19.4295 -19.1597  -8.4498  -8.3609  -8.3093  -8.2258
    -8.1519  -8.0929  -7.8487  -7.7947  -7.7164  -7.6273  -7.6028  -7.5472
    -6.5851  -5.6779  -5.5005  -5.1965  -5.0058  -4.6351  -4.4510  -4.2795
    -4.1246  -3.5237  -3.4294  -2.9562  -2.6951  -2.6360  -2.5150  -2.4384
    -2.3990  -2.3253  -2.2299  -2.1763  -2.1302  -2.0758  -2.0326  -1.9925

          k = 0.2996 0.1730-0.6221 ( 26532 PWs)   bands (ev):

   -20.5406 -20.4569 -20.2894 -20.1954 -20.1089 -20.0577 -19.7906 -19.7222
   -19.5628 -19.4617 -19.3755 -19.3004  -8.3811  -8.3743  -8.2853  -8.2560
    -8.1564  -8.0714  -7.8428  -7.7944  -7.7144  -7.6867  -7.5027  -7.4772
    -6.1083  -6.0099  -5.5593  -5.5223  -4.9605  -4.9025  -4.2797  -4.1766
    -3.7091  -3.6793  -3.3794  -3.2255  -2.7578  -2.6782  -2.5563  -2.4813
    -2.4315  -2.3338  -2.2762  -2.2492  -2.1786  -2.0719  -1.9842  -1.9585

          k =-0.1498 0.0865 0.6221 ( 26546 PWs)   bands (ev):

   -20.5648 -20.3760 -20.3460 -20.1860 -20.1331 -20.0638 -19.7728 -19.6762
   -19.6047 -19.4452 -19.4134 -19.2800  -8.3898  -8.3435  -8.3297  -8.2404
    -8.1518  -8.0556  -7.8367  -7.8137  -7.7780  -7.5746  -7.5386  -7.4914
    -6.1485  -5.8659  -5.8036  -5.2855  -5.0875  -4.9053  -4.2684  -4.0351
    -3.9388  -3.5178  -3.4333  -3.2287  -2.7535  -2.7028  -2.5524  -2.4476
    -2.3878  -2.3723  -2.3039  -2.2107  -2.2003  -2.0759  -2.0026  -1.9402

          k = 0.2996 0.3460-0.3111 ( 26515 PWs)   bands (ev):

   -20.6217 -20.4138 -20.3211 -20.1865 -20.0921 -20.0285 -19.7773 -19.6749
   -19.5547 -19.5266 -19.3863 -19.2632  -8.4047  -8.3858  -8.2667  -8.2362
    -8.1795  -8.0686  -7.9595  -7.9072  -7.8022  -7.5633  -7.5274  -7.4656
    -6.2572  -5.8386  -5.5773  -5.3633  -5.2619  -4.6650  -4.1623  -4.0782
    -3.9330  -3.6196  -3.3937  -3.1405  -2.6697  -2.6448  -2.5513  -2.4795
    -2.3838  -2.2997  -2.2727  -2.2497  -2.1689  -2.1169  -1.9866  -1.9038

          k = 0.1498 0.2595 0.0000 ( 26528 PWs)   bands (ev):

   -20.7689 -20.3487 -20.2743 -20.0842 -20.0358 -19.9314 -19.8550 -19.7563
   -19.7043 -19.4890 -19.4376 -19.1475  -8.4743  -8.3496  -8.3105  -8.2141
    -8.1434  -8.1362  -7.9887  -7.8543  -7.7572  -7.6389  -7.5727  -7.5111
    -6.6161  -5.5384  -5.4858  -5.2356  -5.1575  -4.5227  -4.3258  -4.1859
    -4.1369  -3.5672  -3.5153  -2.8425  -2.5920  -2.5653  -2.5546  -2.4489
    -2.3668  -2.3178  -2.2089  -2.1943  -2.1611  -2.0785  -1.9809  -1.9552

          k = 0.2996-0.1730-1.2442 ( 26506 PWs)   bands (ev):

   -20.6040 -20.5589 -20.2972 -20.1431 -20.0451 -19.9522 -19.7923 -19.7269
   -19.5845 -19.5271 -19.3195 -19.2809  -8.4279  -8.3788  -8.2867  -8.2218
    -8.1333  -8.1291  -8.0618  -7.9520  -7.7883  -7.6294  -7.5306  -7.4731
    -6.0790  -6.0739  -5.5148  -5.4696  -5.0171  -4.6519  -4.1382  -4.0515
    -3.8501  -3.7771  -3.3245  -3.0920  -2.6244  -2.5619  -2.5210  -2.5047
    -2.3907  -2.2641  -2.2632  -2.2179  -2.1905  -2.1118  -1.9306  -1.9217

          k = 0.0000 0.0000 0.9332 ( 26489 PWs)   bands (ev):

   -20.4772 -20.4772 -20.4363 -20.2336 -20.0617 -20.0617 -19.6673 -19.6673
   -19.5659 -19.4084 -19.4084 -19.3820  -8.3796  -8.3796  -8.2763  -8.2395
    -8.1578  -8.1578  -7.9701  -7.8805  -7.8805  -7.4847  -7.4847  -7.4394
    -5.9845  -5.9845  -5.7910  -5.5141  -4.9818  -4.9818  -3.9135  -3.9135
    -3.9097  -3.4889  -3.4889  -3.4181  -2.6330  -2.6330  -2.5092  -2.4847
    -2.3375  -2.3375  -2.2607  -2.2607  -2.2543  -2.0598  -2.0598  -1.8695

          k = 0.4494 0.2595 0.0000 ( 26513 PWs)   bands (ev):

   -20.6426 -20.4291 -20.4261 -20.1277 -20.0029 -19.9463 -19.8032 -19.7584
   -19.5986 -19.4509 -19.3935 -19.2522  -8.4238  -8.3631  -8.3234  -8.1840
    -8.1778  -8.1192  -8.0471  -7.9170  -7.8541  -7.5771  -7.5187  -7.5044
    -6.2440  -5.7406  -5.7153  -5.4647  -4.9802  -4.6332  -4.1888  -4.1430
    -3.8244  -3.5766  -3.4699  -3.0616  -2.6001  -2.5749  -2.5298  -2.5095
    -2.3873  -2.3042  -2.2612  -2.2184  -2.1374  -2.0825  -2.0099  -1.8875

          k = 0.2996 0.1730 0.3111 ( 26532 PWs)   bands (ev):

   -20.6807 -20.3572 -20.2679 -20.1892 -20.0755 -20.0079 -19.7951 -19.7584
   -19.6218 -19.4978 -19.3914 -19.2038  -8.4271  -8.3671  -8.3063  -8.1927
    -8.1800  -8.0394  -7.9781  -7.7830  -7.7309  -7.7023  -7.5836  -7.5135
    -6.3874  -5.6868  -5.5485  -5.2483  -5.2171  -4.6469  -4.3068  -4.1634
    -4.0531  -3.5467  -3.4333  -2.9695  -2.6960  -2.6574  -2.5746  -2.4883
    -2.4027  -2.3464  -2.2338  -2.2146  -2.1362  -2.0713  -1.9937  -1.9401

          k = 0.4494-0.2595-0.9332 ( 26504 PWs)   bands (ev):

   -20.5161 -20.5106 -20.3411 -20.2156 -20.0765 -19.9788 -19.8336 -19.7158
   -19.5179 -19.4884 -19.3932 -19.2576  -8.4005  -8.3623  -8.3066  -8.1955
    -8.1546  -8.0760  -7.9776  -7.8683  -7.7582  -7.7028  -7.5566  -7.5121
    -6.0364  -5.8898  -5.5760  -5.4957  -5.1061  -4.6397  -4.3979  -4.1067
    -3.7341  -3.5896  -3.4818  -3.0348  -2.6848  -2.6672  -2.6228  -2.4955
    -2.4531  -2.4036  -2.2100  -2.1686  -2.1581  -2.0890  -1.9908  -1.8878

          k = 0.2996-0.3460-0.6221 ( 26532 PWs)   bands (ev):

   -20.4982 -20.4094 -20.3242 -20.2684 -20.1150 -20.0908 -19.7561 -19.7190
   -19.5180 -19.4848 -19.4083 -19.2685  -8.4120  -8.3084  -8.2668  -8.2432
    -8.2035  -7.9963  -7.8984  -7.8591  -7.6933  -7.6739  -7.5479  -7.5344
    -5.9490  -5.8997  -5.6110  -5.5423  -5.0556  -4.9994  -4.1651  -4.0827
    -3.7630  -3.7277  -3.4428  -3.1215  -2.7523  -2.6912  -2.6294  -2.5309
    -2.4404  -2.3595  -2.2452  -2.2224  -2.1946  -2.0583  -2.0202  -1.8753

          k = 0.0000 0.0000-1.8663 ( 26490 PWs)   bands (ev):

   -20.4443 -20.3381 -20.3381 -20.2994 -20.1874 -20.1874 -19.6606 -19.6606
   -19.5447 -19.5447 -19.4131 -19.2405  -8.4241  -8.2430  -8.2430  -8.2325
    -8.2325  -7.9845  -7.9471  -7.8796  -7.6402  -7.6402  -7.6283  -7.6283
    -5.9245  -5.7184  -5.4440  -5.4440  -5.2741  -5.2741  -3.9116  -3.9116
    -3.9017  -3.9017  -3.4458  -3.0573  -2.6958  -2.6949  -2.6949  -2.5849
    -2.5849  -2.3179  -2.2483  -2.1499  -2.1499  -2.0710  -2.0710  -1.8247

          k = 0.2996-0.3460 0.3111 ( 26515 PWs)   bands (ev):

   -20.6201 -20.4291 -20.2919 -20.2006 -20.0944 -20.0328 -19.7585 -19.6782
   -19.6033 -19.4693 -19.4072 -19.2614  -8.4160  -8.3639  -8.2816  -8.2261
    -8.1650  -8.0949  -7.9946  -7.8683  -7.7947  -7.5559  -7.5343  -7.4723
    -6.2593  -5.8334  -5.6161  -5.3200  -5.2194  -4.7343  -4.2899  -3.9411
    -3.8114  -3.6517  -3.5243  -3.0891  -2.6805  -2.6113  -2.5577  -2.4829
    -2.3904  -2.3128  -2.2630  -2.2499  -2.2038  -2.0729  -1.9923  -1.9100

     highest occupied level (ev):    -1.8247

!    total energy              =    -418.03022080 Ry
     estimated scf accuracy    <       0.00000001 Ry

     The total energy is the sum of the following terms:
     one-electron contribution =    -272.73090587 Ry
     hartree contribution      =     173.62979083 Ry
     xc contribution           =    -106.24583342 Ry
     ewald contribution        =    -212.68327234 Ry

     convergence has been achieved in   6 iterations

     Forces acting on atoms (cartesian axes, Ry/au):

     atom    1 type  2   force =     0.00121823   -0.00220248    0.00281899
     atom    2 type  2   force =    -0.00121823    0.00220248   -0.00281899
     atom    3 type  2   force =     0.00129828    0.00215626    0.00281899
     atom    4 type  2   force =    -0.00129828   -0.00215626   -0.00281899
     atom    5 type  2   force =    -0.00251652    0.00004622    0.00281899
     atom    6 type  2   force =     0.00251652   -0.00004622   -0.00281899
     atom    7 type  2   force =    -0.00474520   -0.00888824   -0.00273232
     atom    8 type  2   force =     0.00474520    0.00888824    0.00273232
     atom    9 type  2   force =     0.01007005    0.00033465   -0.00273232
     atom   10 type  2   force =    -0.01007005   -0.00033465    0.00273232
     atom   11 type  2   force =    -0.00532484    0.00855359   -0.00273232
     atom   12 type  2   force =     0.00532484   -0.00855359    0.00273232
     atom   13 type  1   force =    -0.00301028   -0.00367462   -0.00033984
     atom   14 type  1   force =     0.00301028    0.00367462    0.00033984
     atom   15 type  1   force =     0.00468746   -0.00076967   -0.00033984
     atom   16 type  1   force =    -0.00468746    0.00076967    0.00033984
     atom   17 type  1   force =    -0.00167718    0.00444429   -0.00033984
     atom   18 type  1   force =     0.00167718   -0.00444429    0.00033984
     atom   19 type  1   force =     0.00759635    0.00361119   -0.00786692
     atom   20 type  1   force =    -0.00759635   -0.00361119    0.00786692
     atom   21 type  1   force =    -0.00692556    0.00477304   -0.00786692
     atom   22 type  1   force =     0.00692556   -0.00477304    0.00786692
     atom   23 type  1   force =    -0.00067079   -0.00838423   -0.00786692
     atom   24 type  1   force =     0.00067079    0.00838423    0.00786692
     atom   25 type  1   force =     0.00415769   -0.00515330    0.00429424
     atom   26 type  1   force =    -0.00415769    0.00515330   -0.00429424
     atom   27 type  1   force =     0.00238404    0.00617732    0.00429424
     atom   28 type  1   force =    -0.00238404   -0.00617732   -0.00429424
     atom   29 type  1   force =    -0.00654173   -0.00102401    0.00429424
     atom   30 type  1   force =     0.00654173    0.00102401   -0.00429424
     atom   31 type  1   force =     0.00286562   -0.00518119   -0.00412850
     atom   32 type  1   force =    -0.00286562    0.00518119    0.00412850
     atom   33 type  1   force =     0.00305424    0.00507229   -0.00412850
     atom   34 type  1   force =    -0.00305424   -0.00507229    0.00412850
     atom   35 type  1   force =    -0.00591985    0.00010890   -0.00412850
     atom   36 type  1   force =     0.00591985   -0.00010890    0.00412850

     Total force =     0.048557     Total SCF correction =     0.000164


     Computing stress (Cartesian axis) and pressure

          total   stress  (Ry/bohr**3)                   (kbar)     P=       29.58
   0.00019594  -0.00000000   0.00000000           28.82       -0.00        0.00
   0.00000000   0.00019594   0.00000000            0.00       28.82        0.00
   0.00000000   0.00000000   0.00021135            0.00        0.00       31.09

     Energy error            =      2.6E-03 Ry
     Gradient error          =      1.0E-02 Ry/Bohr

     number of scf cycles    =   4
     number of bfgs steps    =   3

     energy             old  =    -418.0276183359 Ry
     energy             new  =    -418.0302207982 Ry

     CASE: energy            _new < energy            _old

     new trust radius        =       0.0185474164 bohr
     new conv_thr            =       0.0000000101 Ry


ATOMIC_POSITIONS (crystal)
O                0.2728354654        0.0317976566        0.8581299369
O                0.7271645346        0.9682023544        0.1418700331
O                0.8581299369        0.2728354654        0.0317976566
O                0.1418700331        0.7271645346        0.9682023544
O                0.0317976566        0.8581299369        0.2728354654
O                0.9682023544        0.1418700331        0.7271645346
O                0.4722397460        0.7467663429        0.3291697230
O                0.5277602540        0.2532336571        0.6708302470
O                0.3291697230        0.4722397460        0.7467663429
O                0.6708302470        0.5277602540        0.2532336571
O                0.7467663429        0.3291697230        0.4722397460
O                0.2532336571        0.6708302470        0.5277602540
H                0.1415876689        0.0490129634        0.7912887737
H                0.8584123171        0.9509870286        0.2087112263
H                0.7912887737        0.1415876689        0.0490129634
H                0.2087112263        0.8584123171        0.9509870286
H                0.0490129634        0.7912887737        0.1415876689
H                0.9509870286        0.2087112263        0.8584123171
H                0.4333194059        0.2099878016        1.0055034150
H                0.5666805941        0.7900122134       -0.0055034360
H                1.0055034150        0.4333194059        0.2099878016
H               -0.0055034360        0.5666805941        0.7900122134
H                0.2099878016        1.0055034150        0.4333194059
H                0.7900122134       -0.0055034360        0.5666805941
H                0.7216252940        0.4109824494        0.3985640962
H                0.2783747060        0.5890175206        0.6014359338
H                0.3985640962        0.7216252940        0.4109824494
H                0.6014359338        0.2783747060        0.5890175206
H                0.4109824494        0.3985640962        0.7216252940
H                0.5890175206        0.6014359338        0.2783747060
H                0.7418686629        0.1954929326        0.3625434949
H                0.2581313371        0.8045070524        0.6374565051
H                0.3625434949        0.7418686629        0.1954929326
H                0.6374565051        0.2581313371        0.8045070524
H                0.1954929326        0.3625434949        0.7418686629
H                0.8045070524        0.6374565051        0.2581313371



     Writing config-only to output data dir ./iceII/iceII.save/ :
     XML data file
     NEW-OLD atomic charge density approx. for the potential

     total cpu time spent up to now is       40.3 secs

     per-process dynamical memory:    18.4 Mb

     Self-consistent Calculation

     iteration #  1     ecut=    90.00 Ry     beta= 0.70
     Davidson diagonalization with overlap
     ethr =  1.00E-06,  avg # of iterations =  4.0

     total cpu time spent up to now is       41.5 secs

     total energy              =    -418.03224190 Ry
     estimated scf accuracy    <       0.00029649 Ry

     iteration #  2     ecut=    90.00 Ry     beta= 0.70
     Davidson diagonalization with overlap
     ethr =  3.09E-07,  avg # of iterations =  2.8

     total cpu time spent up to now is       42.4 secs

     total energy              =    -418.03230548 Ry
     estimated scf accuracy    <       0.00004130 Ry

     iteration #  3     ecut=    90.00 Ry     beta= 0.70
     Davidson diagonalization with overlap
     ethr =  4.30E-08,  avg # of iterations =  2.8

     total cpu time spent up to now is       43.4 secs

     total energy              =    -418.03231530 Ry
     estimated scf accuracy    <       0.00000341 Ry

     iteration #  4     ecut=    90.00 Ry     beta= 0.70
     Davidson diagonalization with overlap
     ethr =  3.55E-09,  avg # of iterations =  2.0

     total cpu time spent up to now is       44.2 secs

     total energy              =    -418.03231586 Ry
     estimated scf accuracy    <       0.00000027 Ry

     iteration #  5     ecut=    90.00 Ry     beta= 0.70
     Davidson diagonalization with overlap
     ethr =  2.79E-10,  avg # of iterations =  2.8

     total cpu time spent up to now is       45.1 secs

     total energy              =    -418.03231593 Ry
     estimated scf accuracy    <       0.00000002 Ry

     iteration #  6     ecut=    90.00 Ry     beta= 0.70
     Davidson diagonalization with overlap
     ethr =  1.73E-11,  avg # of iterations =  3.0

     total cpu time spent up to now is       46.1 secs

     End of self-consistent calculation

          k = 0.0000 0.0000 0.0000 ( 26627 PWs)   bands (ev):

   -20.8408 -20.2465 -20.2465 -19.9438 -19.9438 -19.9255 -19.9255 -19.9023
   -19.8906 -19.4924 -19.4924 -19.1045  -8.5069  -8.3358  -8.3358  -8.2842
    -8.1762  -8.1762  -7.8212  -7.7744  -7.7744  -7.7488  -7.7488  -7.6058
[...]
H                0.9578871012        0.2090726233        0.8618212801
H                0.4332887470        0.2087726135        0.9927887592
H                0.5667112530        0.7912274015        0.0072112198
H                0.9927887592        0.4332887470        0.2087726135
H                0.0072112198        0.5667112530        0.7912274015
H                0.2087726135        0.9927887592        0.4332887470
H                0.7912274015        0.0072112198        0.5667112530
H                0.7281943490        0.4116920727        0.4011970869
H                0.2718056510        0.5883078973        0.5988029431
H                0.4011970869        0.7281943490        0.4116920727
H                0.5988029431        0.2718056510        0.5883078973
H                0.4116920727        0.4011970869        0.7281943490
H                0.5883078973        0.5988029431        0.2718056510
H                0.7368443252        0.1891101997        0.3570315803
H                0.2631556748        0.8108897853        0.6429684197
H                0.3570315803        0.7368443252        0.1891101997
H                0.6429684197        0.2631556748        0.8108897853
H                0.1891101997        0.3570315803        0.7368443252
H                0.8108897853        0.6429684197        0.2631556748



     Writing config-only to output data dir ./iceII/iceII.save/ :
     XML data file
     NEW-OLD atomic charge density approx. for the potential

     total cpu time spent up to now is      114.8 secs

     per-process dynamical memory:    18.7 Mb

     Self-consistent Calculation

     iteration #  1     ecut=    90.00 Ry     beta= 0.70
     Davidson diagonalization with overlap
     ethr =  1.00E-06,  avg # of iterations =  2.0

     Threshold (ethr) on eigenvalues was too large:
     Diagonalizing with lowered threshold

     Davidson diagonalization with overlap
     ethr =  8.42E-09,  avg # of iterations =  4.0

     total cpu time spent up to now is      116.6 secs

     total energy              =    -418.04031735 Ry
     estimated scf accuracy    <       0.00001010 Ry

     iteration #  2     ecut=    90.00 Ry     beta= 0.70
     Davidson diagonalization with overlap
     ethr =  1.05E-08,  avg # of iterations =  2.0

     total cpu time spent up to now is      117.5 secs

     total energy              =    -418.04031870 Ry
     estimated scf accuracy    <       0.00000066 Ry

     iteration #  3     ecut=    90.00 Ry     beta= 0.70
     Davidson diagonalization with overlap
     ethr =  6.90E-10,  avg # of iterations =  2.1

     total cpu time spent up to now is      118.4 secs

     total energy              =    -418.04031883 Ry
     estimated scf accuracy    <       0.00000011 Ry

     iteration #  4     ecut=    90.00 Ry     beta= 0.70
     Davidson diagonalization with overlap
     ethr =  1.17E-10,  avg # of iterations =  2.1

     total cpu time spent up to now is      119.3 secs

     total energy              =    -418.04031885 Ry
     estimated scf accuracy    <          6.8E-09 Ry

     iteration #  5     ecut=    90.00 Ry     beta= 0.70
     Davidson diagonalization with overlap
     ethr =  7.05E-12,  avg # of iterations =  2.0

     total cpu time spent up to now is      120.2 secs

     total energy              =    -418.04031886 Ry
     estimated scf accuracy    <          1.2E-09 Ry

     iteration #  6     ecut=    90.00 Ry     beta= 0.70
     Davidson diagonalization with overlap
     ethr =  1.25E-12,  avg # of iterations =  2.0

     total cpu time spent up to now is      121.1 secs

     End of self-consistent calculation

          k = 0.0000 0.0000 0.0000 ( 26627 PWs)   bands (ev):

   -20.8284 -20.2119 -20.2119 -19.9577 -19.9577 -19.9209 -19.9099 -19.9099
   -19.8895 -19.5202 -19.5202 -19.1116  -8.3536  -8.2971  -8.2971  -8.2013
    -8.1105  -8.1105  -7.7794  -7.7709  -7.7709  -7.7589  -7.6920  -7.6920
    -6.7819  -5.5318  -5.5318  -4.7741  -4.7741  -4.6346  -4.6346  -4.4012
    -4.3062  -3.5133  -3.5133  -2.7122  -2.5725  -2.5725  -2.5215  -2.3925
    -2.3925  -2.3411  -2.2680  -2.2680  -2.1751  -2.0438  -2.0237  -2.0237

          k =-0.1498-0.0865 0.3111 ( 26533 PWs)   bands (ev):

   -20.7343 -20.2684 -20.2023 -20.1340 -20.0867 -20.0018 -19.8478 -19.7955
   -19.7113 -19.5241 -19.4702 -19.1876  -8.3098  -8.2966  -8.2723  -8.1950
    -8.0963  -8.0642  -7.8654  -7.8452  -7.7995  -7.6920  -7.6173  -7.6024
    -6.5756  -5.7190  -5.5481  -5.1743  -4.8805  -4.6225  -4.4687  -4.2703
    -4.1227  -3.5017  -3.4353  -2.8832  -2.6684  -2.5958  -2.5421  -2.4868
    -2.4516  -2.3799  -2.2538  -2.2281  -2.1653  -2.1190  -2.0523  -2.0284

          k = 0.2996 0.1730-0.6221 ( 26532 PWs)   bands (ev):

   -20.4945 -20.4802 -20.2483 -20.2221 -20.0827 -20.0748 -19.7907 -19.7811
   -19.5329 -19.5277 -19.3802 -19.3624  -8.3013  -8.2764  -8.2119  -8.1829
    -8.0932  -8.0530  -7.8828  -7.8782  -7.8231  -7.6807  -7.5499  -7.5328
    -6.1711  -6.0318  -5.5605  -5.4928  -4.8930  -4.8090  -4.3245  -4.2108
    -3.6662  -3.6558  -3.4009  -3.1358  -2.7361  -2.6434  -2.5475  -2.5391
    -2.4734  -2.3876  -2.3295  -2.2316  -2.2011  -2.1259  -2.0393  -2.0315

          k =-0.1498 0.0865 0.6221 ( 26546 PWs)   bands (ev):

   -20.5440 -20.3636 -20.3356 -20.1779 -20.1434 -20.0634 -19.7957 -19.6926
   -19.6235 -19.4667 -19.4483 -19.3229  -8.2967  -8.2726  -8.2329  -8.1875
    -8.0846  -8.0182  -7.8935  -7.8787  -7.8620  -7.6227  -7.5794  -7.5396
    -6.2065  -5.8845  -5.8063  -5.2625  -5.0208  -4.8278  -4.3044  -4.0649
    -3.9124  -3.4975  -3.3989  -3.1765  -2.7334  -2.6651  -2.5306  -2.5140
    -2.4435  -2.4258  -2.3282  -2.2395  -2.1870  -2.1244  -2.0706  -2.0102

          k = 0.2996 0.3460-0.3111 ( 26515 PWs)   bands (ev):

   -20.6086 -20.3953 -20.2681 -20.2162 -20.1169 -20.0405 -19.7798 -19.6508
   -19.6310 -19.5121 -19.4417 -19.3014  -8.3035  -8.2782  -8.2447  -8.1786
    -8.1008  -8.0735  -7.9732  -7.8988  -7.8638  -7.6541  -7.6052  -7.5503
    -6.2341  -5.8403  -5.6090  -5.3130  -5.2355  -4.6214  -4.2084  -4.1139
    -3.8639  -3.5911  -3.3912  -3.0977  -2.6511  -2.6245  -2.5502  -2.5058
    -2.4488  -2.3521  -2.3145  -2.2559  -2.1647  -2.1554  -2.0547  -1.9539

          k = 0.1498 0.2595 0.0000 ( 26528 PWs)   bands (ev):

   -20.7596 -20.3158 -20.2377 -20.0989 -20.0665 -19.9659 -19.8421 -19.7538
   -19.7083 -19.5321 -19.4924 -19.1753  -8.3296  -8.2940  -8.2844  -8.1918
    -8.1172  -8.1067  -7.9224  -7.8521  -7.8216  -7.7202  -7.6722  -7.6054
    -6.5530  -5.5849  -5.4489  -5.2147  -5.1761  -4.4974  -4.2860  -4.1822
    -4.1429  -3.5528  -3.5142  -2.7984  -2.5781  -2.5698  -2.5473  -2.4712
    -2.4107  -2.3572  -2.2897  -2.2676  -2.1486  -2.1011  -2.0066  -1.9775

          k = 0.2996-0.1730-1.2442 ( 26506 PWs)   bands (ev):

   -20.6017 -20.5288 -20.2572 -20.1624 -20.0628 -19.9945 -19.7604 -19.7380
   -19.5883 -19.5748 -19.3402 -19.3380  -8.3109  -8.2700  -8.2523  -8.1758
    -8.1470  -8.1150  -8.0275  -7.9047  -7.8554  -7.6797  -7.6716  -7.5848
    -6.0314  -5.9905  -5.5547  -5.4108  -5.1053  -4.6511  -4.0808  -4.0497
    -3.8627  -3.7238  -3.3201  -3.0906  -2.5995  -2.5644  -2.5140  -2.5123
    -2.4386  -2.3612  -2.3119  -2.2295  -2.1981  -2.1199  -1.9691  -1.9606

          k = 0.0000 0.0000 0.9332 ( 26489 PWs)   bands (ev):

   -20.4699 -20.4699 -20.3496 -20.3060 -20.0661 -20.0661 -19.6765 -19.6765
   -19.5313 -19.4723 -19.4391 -19.4391  -8.2811  -8.2811  -8.2594  -8.1370
    -8.1370  -8.1120  -7.9955  -7.9090  -7.9090  -7.5692  -7.5691  -7.5408
    -5.9456  -5.9456  -5.8830  -5.3794  -4.9925  -4.9925  -3.9273  -3.9203
    -3.9203  -3.4664  -3.4664  -3.3595  -2.6118  -2.6118  -2.5163  -2.4664
    -2.4096  -2.4096  -2.3281  -2.2406  -2.2406  -2.1167  -2.1167  -1.9250

          k = 0.4494 0.2595 0.0000 ( 26513 PWs)   bands (ev):

   -20.6325 -20.4171 -20.3847 -20.1634 -19.9931 -19.9712 -19.8034 -19.7812
   -19.5750 -19.4851 -19.4501 -19.2904  -8.2965  -8.2770  -8.2658  -8.1726
    -8.1515  -8.1000  -8.0142  -7.9216  -7.8789  -7.6724  -7.6530  -7.5889
    -6.1786  -5.6902  -5.6339  -5.5141  -5.0650  -4.6643  -4.1593  -4.0661
    -3.7906  -3.5830  -3.4757  -3.0501  -2.5843  -2.5673  -2.5348  -2.5056
    -2.4358  -2.3794  -2.2941  -2.2609  -2.1716  -2.0906  -2.0173  -1.9401

          k = 0.2996 0.1730 0.3111 ( 26532 PWs)   bands (ev):

   -20.6691 -20.3237 -20.2215 -20.2098 -20.1148 -20.0158 -19.8093 -19.7422
   -19.6743 -19.4994 -19.4426 -19.2398  -8.3093  -8.2784  -8.2493  -8.1700
    -8.1094  -8.0443  -7.9238  -7.8545  -7.8145  -7.7452  -7.6807  -7.5719
    -6.3636  -5.6744  -5.5957  -5.2839  -5.1438  -4.6028  -4.3279  -4.1175
    -4.0504  -3.5081  -3.4339  -2.9316  -2.6873  -2.6205  -2.5815  -2.5253
    -2.4905  -2.3497  -2.3176  -2.2178  -2.1243  -2.1202  -2.0382  -1.9997

          k = 0.4494-0.2595-0.9332 ( 26504 PWs)   bands (ev):

   -20.5094 -20.4765 -20.3132 -20.2378 -20.0960 -19.9786 -19.8588 -19.7204
   -19.5584 -19.4704 -19.4162 -19.3250  -8.2931  -8.2586  -8.2348  -8.1466
    -8.0895  -8.0618  -7.9670  -7.8962  -7.8571  -7.7636  -7.6695  -7.5982
    -5.9807  -5.8521  -5.6521  -5.4192  -5.1671  -4.6745  -4.3463  -4.0223
    -3.7574  -3.5150  -3.4731  -3.0507  -2.6875  -2.6435  -2.6048  -2.5503
    -2.5274  -2.3904  -2.2582  -2.2366  -2.1463  -2.0978  -2.0091  -1.9844

          k = 0.2996-0.3460-0.6221 ( 26532 PWs)   bands (ev):

   -20.4457 -20.4270 -20.2959 -20.2766 -20.1176 -20.1135 -19.7590 -19.7495
   -19.5334 -19.5226 -19.3736 -19.3615  -8.2998  -8.2342  -8.1977  -8.1543
    -8.1311  -7.9740  -7.9376  -7.9073  -7.8205  -7.7213  -7.6051  -7.5890
    -5.9951  -5.9297  -5.6189  -5.5164  -4.9891  -4.9368  -4.1960  -4.0991
    -3.7198  -3.6879  -3.3802  -3.1033  -2.7547  -2.6570  -2.6148  -2.6052
    -2.5111  -2.3982  -2.2730  -2.2401  -2.1803  -2.0821  -2.0619  -1.9870

          k = 0.0000 0.0000-1.8663 ( 26490 PWs)   bands (ev):

   -20.3828 -20.3411 -20.2718 -20.2718 -20.2561 -20.2561 -19.6461 -19.6461
   -19.6002 -19.6002 -19.3530 -19.3492  -8.2999  -8.1577  -8.1577  -8.1538
    -8.1538  -8.0138  -7.9346  -7.8918  -7.7884  -7.7884  -7.6634  -7.6634
    -5.9914  -5.7064  -5.4017  -5.4017  -5.2804  -5.2804  -3.8876  -3.8876
    -3.8672  -3.8672  -3.3492  -3.0794  -2.7113  -2.6651  -2.6651  -2.6643
    -2.6643  -2.3423  -2.2717  -2.1711  -2.1711  -2.0882  -2.0882  -1.9433

          k = 0.2996-0.3460 0.3111 ( 26515 PWs)   bands (ev):

   -20.6089 -20.3904 -20.2828 -20.2062 -20.1170 -20.0387 -19.7804 -19.6659
   -19.6138 -19.5218 -19.4323 -19.3041  -8.2980  -8.2788  -8.2483  -8.1588
    -8.1160  -8.0827  -7.9880  -7.8881  -7.8584  -7.6430  -7.6020  -7.5638
    -6.2329  -5.8142  -5.6753  -5.2840  -5.1686  -4.7048  -4.3239  -3.9409
    -3.7879  -3.6204  -3.5167  -3.0469  -2.6649  -2.6049  -2.5333  -2.4893
    -2.4701  -2.3740  -2.3200  -2.2690  -2.1701  -2.1224  -2.0553  -1.9604

     highest occupied level (ev):    -1.9250

!    total energy              =    -418.04031886 Ry
     estimated scf accuracy    <          5.6E-11 Ry

     The total energy is the sum of the following terms:
     one-electron contribution =    -274.12541076 Ry
     hartree contribution      =     174.30825394 Ry
     xc contribution           =    -106.23980050 Ry
     ewald contribution        =    -211.98336153 Ry

     convergence has been achieved in   6 iterations

     Forces acting on atoms (cartesian axes, Ry/au):

     atom    1 type  2   force =    -0.00020290   -0.00054017    0.00011419
     atom    2 type  2   force =     0.00020290    0.00054017   -0.00011419
     atom    3 type  2   force =     0.00056925    0.00009436    0.00011419
     atom    4 type  2   force =    -0.00056925   -0.00009436   -0.00011419
     atom    5 type  2   force =    -0.00036635    0.00044580    0.00011419
     atom    6 type  2   force =     0.00036635   -0.00044580   -0.00011419
     atom    7 type  2   force =     0.00053403   -0.00044965   -0.00017661
     atom    8 type  2   force =    -0.00053403    0.00044965    0.00017661
     atom    9 type  2   force =     0.00012239    0.00068731   -0.00017661
     atom   10 type  2   force =    -0.00012239   -0.00068731    0.00017661
     atom   11 type  2   force =    -0.00065642   -0.00023766   -0.00017661
     atom   12 type  2   force =     0.00065642    0.00023766    0.00017661
     atom   13 type  1   force =     0.00070036    0.00012093   -0.00014640
     atom   14 type  1   force =    -0.00070036   -0.00012093    0.00014640
     atom   15 type  1   force =    -0.00045491    0.00054607   -0.00014640
     atom   16 type  1   force =     0.00045491   -0.00054607    0.00014640
     atom   17 type  1   force =    -0.00024545   -0.00066700   -0.00014640
     atom   18 type  1   force =     0.00024545    0.00066700    0.00014640
     atom   19 type  1   force =     0.00005962    0.00078035    0.00013719
     atom   20 type  1   force =    -0.00005962   -0.00078035   -0.00013719
     atom   21 type  1   force =    -0.00070561   -0.00033854    0.00013719
     atom   22 type  1   force =     0.00070561    0.00033854   -0.00013719
     atom   23 type  1   force =     0.00064599   -0.00044181    0.00013719
     atom   24 type  1   force =    -0.00064599    0.00044181   -0.00013719
     atom   25 type  1   force =     0.00043318   -0.00009396   -0.00001471
     atom   26 type  1   force =    -0.00043318    0.00009396    0.00001471
     atom   27 type  1   force =    -0.00013522    0.00042213   -0.00001471
     atom   28 type  1   force =     0.00013522   -0.00042213    0.00001471
     atom   29 type  1   force =    -0.00029797   -0.00032817   -0.00001471
     atom   30 type  1   force =     0.00029797    0.00032817    0.00001471
     atom   31 type  1   force =     0.00015328   -0.00013165    0.00036675
     atom   32 type  1   force =    -0.00015328    0.00013165   -0.00036675
     atom   33 type  1   force =     0.00003737    0.00019857    0.00036675
     atom   34 type  1   force =    -0.00003737   -0.00019857   -0.00036675
     atom   35 type  1   force =    -0.00019065   -0.00006692    0.00036675
     atom   36 type  1   force =     0.00019065    0.00006692   -0.00036675

     Total force =     0.003790     Total SCF correction =     0.000021


     Computing stress (Cartesian axis) and pressure

          total   stress  (Ry/bohr**3)                   (kbar)     P=       29.10
   0.00020654  -0.00000000  -0.00000000           30.38       -0.00       -0.00
   0.00000000   0.00020654   0.00000000            0.00       30.38        0.00
  -0.00000000   0.00000000   0.00018037           -0.00        0.00       26.53

     Energy error            =      4.6E-05 Ry
     Gradient error          =      7.8E-04 Ry/Bohr

     bfgs converged in  15 scf cycles and  14 bfgs steps
     (criteria: energy <  1.0E-04 Ry, force <  1.0E-03 Ry/Bohr)

     End of BFGS Geometry Optimization

     Final energy             =    -418.0403188557 Ry

     File ./iceII/iceII.bfgs deleted, as requested
Begin final coordinates

ATOMIC_POSITIONS (crystal)
O                0.2727685113        0.0289716022        0.8568212985
O                0.7272314887        0.9710284088        0.1431786715
O                0.8568212985        0.2727685113        0.0289716022
O                0.1431786715        0.7272314887        0.9710284088
O                0.0289716022        0.8568212985        0.2727685113
O                0.9710284088        0.1431786715        0.7272314887
O                0.4708032720        0.7456298429        0.3247999325
O                0.5291967280        0.2543701571        0.6752000375
O                0.3247999325        0.4708032720        0.7456298429
O                0.6752000375        0.5291967280        0.2543701571
O                0.7456298429        0.3247999325        0.4708032720
O                0.2543701571        0.6752000375        0.5291967280
H                0.1381787059        0.0421128908        0.7909273767
H                0.8618212801        0.9578871012        0.2090726233
H                0.7909273767        0.1381787059        0.0421128908
H                0.2090726233        0.8618212801        0.9578871012
H                0.0421128908        0.7909273767        0.1381787059
H                0.9578871012        0.2090726233        0.8618212801
H                0.4332887470        0.2087726135        0.9927887592
H                0.5667112530        0.7912274015        0.0072112198
H                0.9927887592        0.4332887470        0.2087726135
H                0.0072112198        0.5667112530        0.7912274015
H                0.2087726135        0.9927887592        0.4332887470
H                0.7912274015        0.0072112198        0.5667112530
H                0.7281943490        0.4116920727        0.4011970869
H                0.2718056510        0.5883078973        0.5988029431
H                0.4011970869        0.7281943490        0.4116920727
H                0.5988029431        0.2718056510        0.5883078973
H                0.4116920727        0.4011970869        0.7281943490
H                0.5883078973        0.5988029431        0.2718056510
H                0.7368443252        0.1891101997        0.3570315803
H                0.2631556748        0.8108897853        0.6429684197
H                0.3570315803        0.7368443252        0.1891101997
H                0.6429684197        0.2631556748        0.8108897853
H                0.1891101997        0.3570315803        0.7368443252
H                0.8108897853        0.6429684197        0.2631556748
End final coordinates



     Writing all to output data dir ./iceII/iceII.save/ :
     XML data file, charge density, pseudopotentials, collected wavefunctions

     init_run     :      2.45s CPU      2.56s WALL (       1 calls)
     electrons    :     95.87s CPU     99.12s WALL (      15 calls)
     update_pot   :      1.57s CPU      1.82s WALL (      14 calls)
     forces       :      1.69s CPU      1.71s WALL (      15 calls)
     stress       :     13.75s CPU     13.95s WALL (      15 calls)

     Called by init_run:
     wfcinit      :      0.33s CPU      0.33s WALL (       1 calls)
     potinit      :      1.61s CPU      1.67s WALL (       1 calls)
     hinit0       :      0.38s CPU      0.40s WALL (       1 calls)

     Called by electrons:
     c_bands      :     74.04s CPU     74.87s WALL (     102 calls)
     sum_band     :     10.21s CPU     10.33s WALL (     102 calls)
     v_of_rho     :     13.85s CPU     15.48s WALL (     113 calls)
     newd         :      0.36s CPU      0.38s WALL (     113 calls)
     mix_rho      :      0.20s CPU      0.21s WALL (     102 calls)
     vdW_kernel   :      1.50s CPU      1.52s WALL (       1 calls)

     Called by c_bands:
     init_us_2    :      1.19s CPU      1.24s WALL (     940 calls)
     cegterg      :     71.90s CPU     72.51s WALL (     408 calls)

     Called by *egterg:
     cdiaghg      :      5.74s CPU      5.76s WALL (    1466 calls)
     h_psi        :     55.18s CPU     55.65s WALL (    1542 calls)
     s_psi        :      2.14s CPU      2.19s WALL (    1542 calls)
     g_psi        :      0.15s CPU      0.15s WALL (    1130 calls)

     Called by h_psi:
     h_psi:calbec :      3.75s CPU      3.77s WALL (    1542 calls)
     vloc_psi     :     48.83s CPU     49.27s WALL (    1542 calls)
     add_vuspsi   :      2.22s CPU      2.22s WALL (    1542 calls)

     General routines
     calbec       :      5.28s CPU      5.31s WALL (    2250 calls)
     fft          :      6.71s CPU      6.94s WALL (    7691 calls)
     ffts         :      0.08s CPU      0.08s WALL (     102 calls)
     fftw         :     51.02s CPU     51.47s WALL (  143058 calls)

     Parallel routines

     PWSCF        :   1m56.34s CPU   2m 2.88s WALL


   This run was terminated on:  14:13:53   1Apr2026            

=------------------------------------------------------------------------------=
   JOB DONE.
=------------------------------------------------------------------------------=
