
     Program PWSCF v.7.3.1 starts on 26Mar2026 at 14:48: 0 

     This program is part of the open-source Quantum ESPRESSO suite
     for quantum simulation of materials; please cite
         "P. Giannozzi et al., J. Phys.:Condens. Matter 21 395502 (2009);
         "P. Giannozzi et al., J. Phys.:Condens. Matter 29 465901 (2017);
         "P. Giannozzi et al., J. Chem. Phys. 152 154105 (2020);
          URL http://www.quantum-espresso.org", 
     in publications or presentations arising from this work. More details at
     http://www.quantum-espresso.org/quote

     Parallel version (MPI), running on   128 processors

     MPI processes distributed on     1 nodes
     242877 MiB available memory on the printing compute node when the environment starts

     Waiting for input...
     Reading input from standard input

     Current dimensions of program PWSCF are:
     Max number of different atomic species (ntypx) = 10
     Max number of k-points (npk) =  40000
     Max angular momentum in pseudopotentials (lmaxx) =  4

     IMPORTANT: XC functional enforced from input :
     Exchange-correlation= VDW-DF2
                           (   1   4  13   0   2   0   0)
     Any further DFT definition will be discarded
     Please, verify this is what you really want


     K-points division:     npool     =       4
     R & G space division:  proc/nbgrp/npool/nimage =      32
     Subspace diagonalization in iterative solution of the eigenvalue problem:
     a serial algorithm will be used


     Parallelization info
     --------------------
     sticks:   dense  smooth     PW     G-vecs:    dense   smooth      PW
     Min         166     166     49                 6707     6707    1077
     Max         167     167     50                 6711     6711    1080
     Sum        5317    5317   1579               214667   214667   34507

     Using Slab Decomposition



     bravais-lattice index     =            5
     lattice parameter (alat)  =      14.2316  a.u.
     unit-cell volume          =    1862.3177 (a.u.)^3
     number of atoms/cell      =           36
     number of atomic types    =            2
     number of electrons       =        96.00
     number of Kohn-Sham states=           48
     kinetic-energy cutoff     =      90.0000  Ry
     charge density cutoff     =     360.0000  Ry
     scf convergence threshold =      1.0E-07
     mixing beta               =       0.7000
     number of iterations used =            8  plain     mixing
     Exchange-correlation= VDW-DF2
                           (   1   4  13   0   2   0   0)

     celldm(1)=  14.231602  celldm(2)=   0.000000  celldm(3)=   0.000000
     celldm(4)=  -0.392337  celldm(5)=   0.000000  celldm(6)=   0.000000

     crystal axes: (cart. coord. in units of alat)
               a(1) = (   0.834367  -0.481722   0.267909 )  
               a(2) = (   0.000000   0.963444   0.267909 )  
               a(3) = (  -0.834367  -0.481722   0.267909 )  

     reciprocal axes: (cart. coord. in units 2 pi/alat)
               b(1) = (  0.599257 -0.345981  1.244203 )  
               b(2) = (  0.000000  0.691962  1.244203 )  
               b(3) = ( -0.599257 -0.345981  1.244203 )  


     PseudoPot. # 1 for H  read from file:
     ./H.pbe-van_ak.UPF
     MD5 check sum: 077eb6d537518a38cb46c6de387227b7
     Pseudo is Ultrasoft, Zval =  1.0
     Generated by new atomic code, or converted to UPF format
     Using radial grid of  615 points,  1 beta functions with: 
                l(1) =   0
     Q(r) pseudized with  8 coefficients,  rinner =    0.800

     PseudoPot. # 2 for O  read from file:
     ./O.pbe-van_ak.UPF
     MD5 check sum: 78c19812648e8988a0fe644b0f25305e
     Pseudo is Ultrasoft, Zval =  6.0
     Generated by new atomic code, or converted to UPF format
     Using radial grid of  737 points,  4 beta functions with: 
                l(1) =   0
                l(2) =   0
                l(3) =   1
                l(4) =   1
     Q(r) pseudized with  8 coefficients,  rinner =    0.800   0.800   0.800


     atomic species   valence    mass     pseudopotential
     H                 1.00     1.00800     H ( 1.00)
     O                 6.00    16.00000     O ( 1.00)

      6 Sym. Ops., with inversion, found



   Cartesian axes

     site n.     atom                  positions (alat units)
         1        O      tau(   1) = (  -0.4881587  -0.5153728   0.3102004  )
         2        O      tau(   2) = (   0.4881587   0.5153729   0.4935268  )
         3        O      tau(   3) = (   0.6904053  -0.1650714   0.3102004  )
         4        O      tau(   4) = (  -0.6904053   0.1650714   0.4935268  )
         5        O      tau(   5) = (  -0.2022466   0.6804442   0.3102004  )
         6        O      tau(   6) = (   0.2022466  -0.6804442   0.4935268  )
         7        O      tau(   7) = (   0.1208629   0.3351200   0.4137471  )
         8        O      tau(   8) = (  -0.1208629  -0.3351200   0.3899800  )
         9        O      tau(   9) = (  -0.3506539  -0.0628897   0.4137471  )
        10        O      tau(  10) = (   0.3506539   0.0628897   0.3899800  )
        11        O      tau(  11) = (   0.2297910  -0.2722304   0.4137471  )
        12        O      tau(  12) = (  -0.2297910   0.2722304   0.3899800  )
        13        H      tau(  13) = (  -0.5430428  -0.4102686   0.2622098  )
        14        H      tau(  14) = (   0.5430428   0.4102686   0.5415173  )
        15        H      tau(  15) = (   0.6268245  -0.2651546   0.2622098  )
        16        H      tau(  16) = (  -0.6268245   0.2651546   0.5415173  )
        17        H      tau(  17) = (  -0.0837816   0.6754232   0.2622098  )
        18        H      tau(  18) = (   0.0837817  -0.6754232   0.5415173  )
        19        H      tau(  19) = (  -0.4681736  -0.4859583   0.4327384  )
        20        H      tau(  20) = (   0.4681736   0.4859583   0.3709887  )
        21        H      tau(  21) = (   0.6549390  -0.1624711   0.4327384  )
        22        H      tau(  22) = (  -0.6549390   0.1624711   0.3709887  )
        23        H      tau(  23) = (  -0.1867654   0.6484294   0.4327384  )
        24        H      tau(  24) = (   0.1867654  -0.6484294   0.3709887  )
        25        H      tau(  25) = (   0.2718867  -0.1516220   0.4118766  )
        26        H      tau(  26) = (  -0.2718867   0.1516219   0.3918506  )
        27        H      tau(  27) = (  -0.0046349   0.3112717   0.4118766  )
        28        H      tau(  28) = (   0.0046349  -0.3112717   0.3918506  )
        29        H      tau(  29) = (  -0.2672518  -0.1596498   0.4118766  )
        30        H      tau(  30) = (   0.2672518   0.1596498   0.3918506  )
        31        H      tau(  31) = (   0.3136186  -0.3416266   0.3473301  )
        32        H      tau(  32) = (  -0.3136186   0.3416266   0.4563970  )
        33        H      tau(  33) = (   0.1390481   0.4424150   0.3473301  )
        34        H      tau(  34) = (  -0.1390480  -0.4424150   0.4563970  )
        35        H      tau(  35) = (  -0.4526667  -0.1007884   0.3473301  )
        36        H      tau(  36) = (   0.4526666   0.1007884   0.4563970  )

     number of k points=    14
                       cart. coord. in units 2pi/alat
        k(    1) = (   0.0000000   0.0000000   0.0000000), wk =   0.0312500
        k(    2) = (  -0.1498141  -0.0864952   0.3110508), wk =   0.1875000
        k(    3) = (   0.2996283   0.1729905  -0.6221017), wk =   0.0937500
        k(    4) = (  -0.1498141   0.0864952   0.6221017), wk =   0.1875000
        k(    5) = (   0.2996283   0.3459809  -0.3110508), wk =   0.1875000
        k(    6) = (   0.1498141   0.2594857   0.0000000), wk =   0.1875000
        k(    7) = (   0.2996283  -0.1729905  -1.2442034), wk =   0.0937500
        k(    8) = (   0.0000000   0.0000000   0.9331525), wk =   0.0625000
        k(    9) = (   0.4494424   0.2594857   0.0000000), wk =   0.1875000
        k(   10) = (   0.2996283   0.1729905   0.3110508), wk =   0.1875000
        k(   11) = (   0.4494424  -0.2594857  -0.9331525), wk =   0.1875000
        k(   12) = (   0.2996283  -0.3459809  -0.6221017), wk =   0.1875000
        k(   13) = (   0.0000000   0.0000000  -1.8663050), wk =   0.0312500
        k(   14) = (   0.2996283  -0.3459809   0.3110508), wk =   0.1875000

     Dense  grid:   214667 G-vectors     FFT dimensions: (  90,  90,  90)

     Estimated max dynamical RAM per process >      14.34 MB

     Estimated total dynamical RAM >       1.64 GB

     Initial potential from superposition of free atoms

     starting charge      95.9998, renormalised to      96.0000


     %%%%%%%%%%%%%%%%%%%%%%%%%%%%%%%%%%%%%%%%%%%%%%%%%%%%%%%%%%%%%%%%%%%%%%%%
     %                                                                      %
     % You are using vdW-DF, which was implemented by the Thonhauser group. %
     % Please cite the following two papers that made this development      %
     % possible and the two reviews that describe the various versions:     %
     %                                                                      %
     %   T. Thonhauser et al., PRL 115, 136402 (2015).                      %
     %   T. Thonhauser et al., PRB 76, 125112 (2007).                       %
     %   K. Berland et al., Rep. Prog. Phys. 78, 066501 (2015).             %
     %   D.C. Langreth et al., J. Phys.: Condens. Matter 21, 084203 (2009). %
     %                                                                      %
     % If you are calculating stress with vdW-DF, please also cite:         %
     %                                                                      %
     %   R. Sabatini et al., J. Phys.: Condens. Matter 24, 424209 (2012).   %
     %                                                                      %
     %%%%%%%%%%%%%%%%%%%%%%%%%%%%%%%%%%%%%%%%%%%%%%%%%%%%%%%%%%%%%%%%%%%%%%%%

     %%%%%%%%%%%%%%%%%%%%%%%%%%%%%%%%%%%%%%%%%%%%%%%%%%%%%%%%%%%%%%%%%%%%%%%%
     %                                                                      %
     %  vdW-DF NEWS:                                                        %
     %                                                                      %
     %  * vdW-DF3 is now available. DOI: 10.1021/acs.jctc.0c00471           %
     %    use with input_dft = 'vdW-DF3-opt1' or 'vdW-DF3-opt2'             %
     %                                                                      %
     %  * Unscreened and range-separated hybrid vdW-DF-cx functionals       %
     %    DOI: 10.1063/1.4986522 and 10.1088/1361-648X/ac2ad2               %
     %    use with input_dft = 'vdW-DF-cx0'    and 'vdW-DF-ahcx'            %
     %  * Unscreened and range-separated hybrid vdW-DF2-b86r functionals    %
     %    DOI: 10.1063/1.4986522 and DOI: 10.1103/PhysRevX.12.041003        %
     %    use with input_dft = 'vdW-DF2-br0' and 'vdW-DF2-ahbr'             %
     %                                                                      %
     %%%%%%%%%%%%%%%%%%%%%%%%%%%%%%%%%%%%%%%%%%%%%%%%%%%%%%%%%%%%%%%%%%%%%%%%


     Starting wfcs are   72 randomized atomic wfcs

     total cpu time spent up to now is        2.8 secs

     per-process dynamical memory:    18.9 Mb

     Self-consistent Calculation

     iteration #  1     ecut=    90.00 Ry     beta= 0.70
     Davidson diagonalization with overlap
     ethr =  1.00E-02,  avg # of iterations =  2.0

     total cpu time spent up to now is        3.7 secs

     total energy              =    -415.83932812 Ry
     estimated scf accuracy    <       4.99103018 Ry

     iteration #  2     ecut=    90.00 Ry     beta= 0.70
     Davidson diagonalization with overlap
     ethr =  5.20E-03,  avg # of iterations =  3.0

     total cpu time spent up to now is        4.8 secs

     total energy              =    -417.50721977 Ry
     estimated scf accuracy    <       3.01463303 Ry

     iteration #  3     ecut=    90.00 Ry     beta= 0.70
     Davidson diagonalization with overlap
     ethr =  3.14E-03,  avg # of iterations =  2.0

     total cpu time spent up to now is        5.6 secs

     total energy              =    -417.90333626 Ry
     estimated scf accuracy    <       0.12165015 Ry

     iteration #  4     ecut=    90.00 Ry     beta= 0.70
     Davidson diagonalization with overlap
     ethr =  1.27E-04,  avg # of iterations =  4.0

     total cpu time spent up to now is        6.8 secs

     total energy              =    -417.99537554 Ry
     estimated scf accuracy    <       0.15423546 Ry

     iteration #  5     ecut=    90.00 Ry     beta= 0.70
     Davidson diagonalization with overlap
     ethr =  1.27E-04,  avg # of iterations =  2.0

     total cpu time spent up to now is        7.6 secs

     total energy              =    -418.00158892 Ry
     estimated scf accuracy    <       0.02169082 Ry

     iteration #  6     ecut=    90.00 Ry     beta= 0.70
     Davidson diagonalization with overlap
     ethr =  2.26E-05,  avg # of iterations =  2.0

     total cpu time spent up to now is        8.5 secs

     total energy              =    -418.00146655 Ry
     estimated scf accuracy    <       0.00537317 Ry

     iteration #  7     ecut=    90.00 Ry     beta= 0.70
     Davidson diagonalization with overlap
     ethr =  5.60E-06,  avg # of iterations =  3.0

     total cpu time spent up to now is        9.4 secs

     total energy              =    -418.00412453 Ry
     estimated scf accuracy    <       0.00041915 Ry

     iteration #  8     ecut=    90.00 Ry     beta= 0.70
     Davidson diagonalization with overlap
     ethr =  4.37E-07,  avg # of iterations =  3.0

     total cpu time spent up to now is       10.4 secs

     total energy              =    -418.00362574 Ry
     estimated scf accuracy    <       0.00155839 Ry

     iteration #  9     ecut=    90.00 Ry     beta= 0.70
     Davidson diagonalization with overlap
     ethr =  4.37E-07,  avg # of iterations =  3.0

     total cpu time spent up to now is       11.4 secs

     total energy              =    -418.00372936 Ry
     estimated scf accuracy    <       0.00016560 Ry

     iteration # 10     ecut=    90.00 Ry     beta= 0.70
     Davidson diagonalization with overlap
     ethr =  1.72E-07,  avg # of iterations =  2.0

     total cpu time spent up to now is       12.3 secs

     total energy              =    -418.00376222 Ry
     estimated scf accuracy    <       0.00001712 Ry

     iteration # 11     ecut=    90.00 Ry     beta= 0.70
     Davidson diagonalization with overlap
     ethr =  1.78E-08,  avg # of iterations =  2.0

     total cpu time spent up to now is       13.1 secs

     total energy              =    -418.00375900 Ry
     estimated scf accuracy    <       0.00001434 Ry

     iteration # 12     ecut=    90.00 Ry     beta= 0.70
     Davidson diagonalization with overlap
     ethr =  1.49E-08,  avg # of iterations =  2.0

     total cpu time spent up to now is       14.0 secs

     total energy              =    -418.00376009 Ry
     estimated scf accuracy    <       0.00000192 Ry

     iteration # 13     ecut=    90.00 Ry     beta= 0.70
     Davidson diagonalization with overlap
     ethr =  2.00E-09,  avg # of iterations =  3.0

     total cpu time spent up to now is       15.0 secs

     End of self-consistent calculation

          k = 0.0000 0.0000 0.0000 ( 26843 PWs)   bands (ev):

   -21.2165 -20.6526 -20.6526 -20.4223 -20.4223 -20.3747 -20.3747 -20.3747
   -20.3641 -20.0227 -20.0227 -19.6595  -8.6903  -8.6207  -8.6207  -8.5794
    -8.4753  -8.4753  -8.1671  -8.1671  -8.1665  -8.1202  -8.0965  -8.0965
    -6.7970  -5.6296  -5.6296  -4.9518  -4.9518  -4.7772  -4.7772  -4.5809
    -4.4819  -3.7466  -3.7466  -2.9990  -2.7600  -2.7600  -2.7144  -2.5613
    -2.5613  -2.5210  -2.4136  -2.4136  -2.3582  -2.2510  -2.2091  -2.2091

          k =-0.1498-0.0865 0.3111 ( 26859 PWs)   bands (ev):

   -21.1296 -20.7024 -20.6409 -20.5827 -20.5421 -20.4602 -20.3170 -20.2670
   -20.1929 -20.0288 -19.9801 -19.7270  -8.6498  -8.6288  -8.6062  -8.5619
    -8.4664  -8.4365  -8.2394  -8.2092  -8.1913  -8.0934  -8.0251  -8.0193
    -6.6101  -5.8085  -5.6587  -5.3049  -5.0387  -4.7834  -4.6112  -4.4531
    -4.2947  -3.7385  -3.6756  -3.1447  -2.8560  -2.7802  -2.7332  -2.6435
    -2.6206  -2.5526  -2.4455  -2.3936  -2.3210  -2.3001  -2.2331  -2.2050

          k = 0.2996 0.1730-0.6221 ( 26840 PWs)   bands (ev):

   -20.9074 -20.8978 -20.6831 -20.6608 -20.5364 -20.5330 -20.2569 -20.2548
   -20.0424 -20.0269 -19.8936 -19.8891  -8.6346  -8.6153  -8.5672  -8.5511
    -8.4656  -8.4132  -8.2589  -8.2497  -8.2043  -8.0796  -7.9735  -7.9593
    -6.2398  -6.1024  -5.6455  -5.6383  -5.0324  -4.9547  -4.4739  -4.3732
    -3.8845  -3.8446  -3.6453  -3.3833  -2.9368  -2.8134  -2.7221  -2.7101
    -2.6458  -2.5809  -2.5085  -2.3955  -2.3797  -2.2806  -2.2141  -2.1988

          k =-0.1498 0.0865 0.6221 ( 26887 PWs)   bands (ev):

   -20.9545 -20.7879 -20.7646 -20.6200 -20.5940 -20.5183 -20.2666 -20.1712
   -20.1174 -19.9791 -19.9604 -19.8482  -8.6303  -8.6117  -8.5835  -8.5540
    -8.4586  -8.3942  -8.2600  -8.2528  -8.2326  -8.0349  -7.9966  -7.9639
    -6.2790  -5.9584  -5.8974  -5.3967  -5.1609  -4.9717  -4.4641  -4.2225
    -4.0903  -3.7295  -3.6411  -3.4176  -2.9219  -2.8427  -2.7110  -2.6901
    -2.6157  -2.6084  -2.5173  -2.3996  -2.3630  -2.2843  -2.2393  -2.1807

          k = 0.2996 0.3460-0.3111 ( 26834 PWs)   bands (ev):

   -21.0137 -20.8186 -20.7036 -20.6585 -20.5635 -20.4918 -20.2597 -20.1387
   -20.1193 -20.0231 -19.9511 -19.8280  -8.6366  -8.6240  -8.5880  -8.5378
    -8.4656  -8.4378  -8.3232  -8.2711  -8.2377  -8.0616  -8.0178  -7.9746
    -6.2925  -5.9368  -5.7087  -5.4479  -5.3641  -4.7894  -4.3729  -4.2809
    -4.0825  -3.8019  -3.6339  -3.3458  -2.8481  -2.7997  -2.7324  -2.6739
    -2.6183  -2.5364  -2.4783  -2.4354  -2.3320  -2.3286  -2.2263  -2.1304

          k = 0.1498 0.2595 0.0000 ( 26866 PWs)   bands (ev):

   -21.1529 -20.7478 -20.6771 -20.5475 -20.5143 -20.4249 -20.3169 -20.2392
   -20.1910 -20.0339 -19.9970 -19.7157  -8.6687  -8.6219  -8.6149  -8.5606
    -8.4794  -8.4689  -8.2760  -8.2335  -8.1933  -8.1159  -8.0769  -8.0222
    -6.5930  -5.6920  -5.5664  -5.3444  -5.3009  -4.6788  -4.4786  -4.3614
    -4.3286  -3.7860  -3.7406  -3.0841  -2.7637  -2.7468  -2.7370  -2.6299
    -2.5729  -2.5384  -2.4484  -2.4305  -2.3270  -2.2972  -2.1855  -2.1611

          k = 0.2996-0.1730-1.2442 ( 26838 PWs)   bands (ev):

   -21.0057 -20.9436 -20.6959 -20.6050 -20.5108 -20.4506 -20.2430 -20.2242
   -20.0826 -20.0742 -19.8646 -19.8568  -8.6461  -8.6166  -8.5922  -8.5402
    -8.4832  -8.4796  -8.3626  -8.2840  -8.2210  -8.0783  -8.0759  -8.0059
    -6.1102  -6.0852  -5.6696  -5.5181  -5.2448  -4.8226  -4.2799  -4.2594
    -4.0749  -3.9326  -3.5453  -3.3420  -2.7774  -2.7486  -2.7116  -2.6754
    -2.5899  -2.5397  -2.4817  -2.4034  -2.3874  -2.2967  -2.1440  -2.1425

          k = 0.0000 0.0000 0.9332 ( 26802 PWs)   bands (ev):

   -20.8854 -20.8854 -20.7778 -20.7434 -20.5155 -20.5155 -20.1677 -20.1677
   -20.0171 -19.9884 -19.9528 -19.9528  -8.6248  -8.6248  -8.5978  -8.4894
    -8.4894  -8.4752  -8.3613  -8.2750  -8.2750  -7.9920  -7.9920  -7.9652
    -6.0154  -6.0154  -5.9791  -5.5073  -5.1409  -5.1409  -4.1218  -4.1218
    -4.0647  -3.7069  -3.7069  -3.5963  -2.8002  -2.8002  -2.6928  -2.6646
    -2.5788  -2.5788  -2.5212  -2.3999  -2.3999  -2.2850  -2.2850  -2.1014

          k = 0.4494 0.2595 0.0000 ( 26834 PWs)   bands (ev):

   -21.0355 -20.8375 -20.8131 -20.6069 -20.4459 -20.4305 -20.2812 -20.2642
   -20.0740 -19.9926 -19.9584 -19.8173  -8.6385  -8.6139  -8.6068  -8.5335
    -8.5055  -8.4485  -8.3674  -8.2837  -8.2420  -8.0744  -8.0597  -8.0105
    -6.2504  -5.8010  -5.7381  -5.6281  -5.1999  -4.8252  -4.3696  -4.2795
    -3.9881  -3.8035  -3.6965  -3.3042  -2.7621  -2.7497  -2.7272  -2.6691
    -2.6014  -2.5491  -2.4658  -2.4332  -2.3614  -2.2660  -2.1948  -2.1196

          k = 0.2996 0.1730 0.3111 ( 26853 PWs)   bands (ev):

   -21.0696 -20.7547 -20.6593 -20.6496 -20.5623 -20.4750 -20.2805 -20.2214
   -20.1627 -20.0075 -19.9542 -19.7728  -8.6402  -8.6245  -8.5906  -8.5353
    -8.4759  -8.4145  -8.2871  -8.2273  -8.1866  -8.1377  -8.0763  -7.9942
    -6.4232  -5.7655  -5.7294  -5.4053  -5.2697  -4.7736  -4.4961  -4.2954
    -4.2427  -3.7362  -3.6640  -3.1975  -2.8769  -2.7908  -2.7622  -2.6920
    -2.6524  -2.5171  -2.4902  -2.4016  -2.3008  -2.2976  -2.2085  -2.1780

          k = 0.4494-0.2595-0.9332 ( 26841 PWs)   bands (ev):

   -20.9211 -20.8957 -20.7438 -20.6752 -20.5442 -20.4414 -20.3245 -20.2037
   -20.0591 -19.9812 -19.9322 -19.8462  -8.6277  -8.6034  -8.5893  -8.5073
    -8.4632  -8.4175  -8.3168  -8.2677  -8.2250  -8.1462  -8.0693  -8.0152
    -6.0725  -5.9445  -5.7794  -5.5345  -5.3039  -4.8261  -4.5315  -4.2210
    -3.9578  -3.7372  -3.6840  -3.3094  -2.8794  -2.8168  -2.7821  -2.7132
    -2.6849  -2.5560  -2.4369  -2.4144  -2.3237  -2.2785  -2.1869  -2.1558

          k = 0.2996-0.3460-0.6221 ( 26842 PWs)   bands (ev):

   -20.8630 -20.8493 -20.7279 -20.7098 -20.5662 -20.5643 -20.2322 -20.2277
   -20.0375 -20.0284 -19.8914 -19.8832  -8.6306  -8.5813  -8.5572  -8.5252
    -8.4984  -8.3494  -8.3002  -8.2632  -8.2000  -8.1159  -8.0173  -8.0027
    -6.0746  -6.0309  -5.7176  -5.6530  -5.1214  -5.0737  -4.3651  -4.2788
    -3.9199  -3.8860  -3.5996  -3.3613  -2.9541  -2.8290  -2.7821  -2.7733
    -2.6903  -2.5634  -2.4378  -2.4192  -2.3598  -2.2548  -2.2366  -2.1567

          k = 0.0000 0.0000-1.8663 ( 26790 PWs)   bands (ev):

   -20.8083 -20.7727 -20.6985 -20.6985 -20.6964 -20.6964 -20.1287 -20.1287
   -20.1033 -20.1033 -19.8820 -19.8632  -8.6269  -8.5279  -8.5279  -8.5198
    -8.5198  -8.3541  -8.2824  -8.2760  -8.1745  -8.1745  -8.0611  -8.0611
    -6.0587  -5.8804  -5.5149  -5.5149  -5.4055  -5.4055  -4.0690  -4.0690
    -4.0676  -4.0676  -3.5546  -3.3413  -2.9317  -2.8342  -2.8342  -2.8175
    -2.8175  -2.5047  -2.4458  -2.3394  -2.3394  -2.2734  -2.2734  -2.1166

          k = 0.2996-0.3460 0.3111 ( 26834 PWs)   bands (ev):

   -21.0139 -20.8153 -20.7134 -20.6529 -20.5623 -20.4907 -20.2585 -20.1486
   -20.1156 -20.0198 -19.9488 -19.8299  -8.6384  -8.6151  -8.5958  -8.5181
    -8.4826  -8.4422  -8.3359  -8.2632  -8.2329  -8.0539  -8.0115  -7.9867
    -6.2958  -5.8958  -5.7883  -5.4206  -5.2960  -4.8655  -4.4854  -4.1178
    -4.0059  -3.8432  -3.7367  -3.3050  -2.8617  -2.7811  -2.7180  -2.6675
    -2.6319  -2.5453  -2.4838  -2.4507  -2.3461  -2.2903  -2.2281  -2.1362

     highest occupied level (ev):    -2.1014

!    total energy              =    -418.00376077 Ry
     estimated scf accuracy    <       0.00000002 Ry

     The total energy is the sum of the following terms:
     one-electron contribution =    -282.20751429 Ry
     hartree contribution      =     177.70027286 Ry
     xc contribution           =    -106.83074234 Ry
     ewald contribution        =    -206.66577700 Ry

     convergence has been achieved in  13 iterations

     Forces acting on atoms (cartesian axes, Ry/au):

     atom    1 type  2   force =     0.01531081   -0.05336051   -0.03005952
     atom    2 type  2   force =    -0.01531081    0.05336051    0.03005952
     atom    3 type  2   force =     0.03855615    0.03993980   -0.03005952
     atom    4 type  2   force =    -0.03855615   -0.03993980    0.03005952
     atom    5 type  2   force =    -0.05386696    0.01342071   -0.03005952
     atom    6 type  2   force =     0.05386696   -0.01342071    0.03005952
     atom    7 type  2   force =     0.04303149   -0.03287844    0.02598031
     atom    8 type  2   force =    -0.04303149    0.03287844   -0.02598031
     atom    9 type  2   force =     0.00695783    0.05370558    0.02598031
     atom   10 type  2   force =    -0.00695783   -0.05370558   -0.02598031
     atom   11 type  2   force =    -0.04998931   -0.02082714    0.02598031
     atom   12 type  2   force =     0.04998931    0.02082714   -0.02598031
     atom   13 type  1   force =    -0.02321935    0.04334009   -0.02449480
     atom   14 type  1   force =     0.02321935   -0.04334009    0.02449480
     atom   15 type  1   force =    -0.02592394   -0.04177860   -0.02449480
     atom   16 type  1   force =     0.02592394    0.04177860    0.02449480
     atom   17 type  1   force =     0.04914330   -0.00156150   -0.02449480
     atom   18 type  1   force =    -0.04914330    0.00156150    0.02449480
     atom   19 type  1   force =     0.01040568    0.00969353    0.05405268
     atom   20 type  1   force =    -0.01040568   -0.00969353   -0.05405268
     atom   21 type  1   force =    -0.01359769    0.00416482    0.05405268
     atom   22 type  1   force =     0.01359769   -0.00416482   -0.05405268
     atom   23 type  1   force =     0.00319201   -0.01385835    0.05405268
     atom   24 type  1   force =    -0.00319201    0.01385835   -0.05405268
     atom   25 type  1   force =     0.01616488    0.05226347    0.00083104
     atom   26 type  1   force =    -0.01616488   -0.05226347   -0.00083104
     atom   27 type  1   force =    -0.05334394   -0.01213254    0.00083104
     atom   28 type  1   force =     0.05334394    0.01213254   -0.00083104
     atom   29 type  1   force =     0.03717905   -0.04013094    0.00083104
     atom   30 type  1   force =    -0.03717905    0.04013094   -0.00083104
     atom   31 type  1   force =     0.03531214   -0.03262016   -0.02819202
     atom   32 type  1   force =    -0.03531214    0.03262016    0.02819202
     atom   33 type  1   force =     0.01059382    0.04689129   -0.02819202
     atom   34 type  1   force =    -0.01059382   -0.04689129    0.02819202
     atom   35 type  1   force =    -0.04590596   -0.01427113   -0.02819202
     atom   36 type  1   force =     0.04590596    0.01427113    0.02819202

     Total force =     0.344967     Total SCF correction =     0.000182


     Computing stress (Cartesian axis) and pressure

          total   stress  (Ry/bohr**3)                   (kbar)     P=       93.70
   0.00064065  -0.00000000   0.00000000           94.24       -0.00        0.00
   0.00000000   0.00064065   0.00000000            0.00       94.24        0.00
  -0.00000000   0.00000000   0.00062966           -0.00        0.00       92.63


     Writing all to output data dir ./iceII/iceII.save/ :
     XML data file, charge density, pseudopotentials, collected wavefunctions

     init_run     :      2.49s CPU      2.57s WALL (       1 calls)
     electrons    :     11.90s CPU     12.22s WALL (       1 calls)
     forces       :      0.10s CPU      0.12s WALL (       1 calls)
     stress       :      0.93s CPU      0.95s WALL (       1 calls)

     Called by init_run:
     wfcinit      :      0.34s CPU      0.34s WALL (       1 calls)
     potinit      :      1.65s CPU      1.68s WALL (       1 calls)
     hinit0       :      0.38s CPU      0.39s WALL (       1 calls)

     Called by electrons:
     c_bands      :      9.01s CPU      9.09s WALL (      13 calls)
     sum_band     :      1.30s CPU      1.32s WALL (      13 calls)
     v_of_rho     :      3.11s CPU      3.29s WALL (      14 calls)
     newd         :      0.04s CPU      0.04s WALL (      14 calls)
     mix_rho      :      0.04s CPU      0.04s WALL (      13 calls)
     vdW_kernel   :      1.51s CPU      1.52s WALL (       1 calls)

     Called by c_bands:
     init_us_2    :      0.14s CPU      0.15s WALL (     116 calls)
     cegterg      :      8.75s CPU      8.80s WALL (      52 calls)

     Called by *egterg:
     cdiaghg      :      0.68s CPU      0.68s WALL (     184 calls)
     h_psi        :      6.95s CPU      7.00s WALL (     188 calls)
     s_psi        :      0.27s CPU      0.27s WALL (     188 calls)
     g_psi        :      0.02s CPU      0.02s WALL (     132 calls)

     Called by h_psi:
     h_psi:calbec :      0.47s CPU      0.48s WALL (     188 calls)
     vloc_psi     :      6.16s CPU      6.20s WALL (     188 calls)
     add_vuspsi   :      0.28s CPU      0.28s WALL (     188 calls)

     General routines
     calbec       :      0.63s CPU      0.64s WALL (     260 calls)
     fft          :      1.15s CPU      1.16s WALL (     906 calls)
     ffts         :      0.01s CPU      0.01s WALL (      13 calls)
     fftw         :      6.43s CPU      6.48s WALL (   17836 calls)

     Parallel routines

     PWSCF        :     15.70s CPU     16.57s WALL


   This run was terminated on:  14:48:16  26Mar2026            

=------------------------------------------------------------------------------=
   JOB DONE.
=------------------------------------------------------------------------------=
