
     Program PWSCF v.7.3.1 starts on  1Apr2026 at 14:18: 9 

     This program is part of the open-source Quantum ESPRESSO suite
     for quantum simulation of materials; please cite
         "P. Giannozzi et al., J. Phys.:Condens. Matter 21 395502 (2009);
         "P. Giannozzi et al., J. Phys.:Condens. Matter 29 465901 (2017);
         "P. Giannozzi et al., J. Chem. Phys. 152 154105 (2020);
          URL http://www.quantum-espresso.org", 
     in publications or presentations arising from this work. More details at
     http://www.quantum-espresso.org/quote

     Parallel version (MPI), running on   128 processors

     MPI processes distributed on     1 nodes
     242695 MiB available memory on the printing compute node when the environment starts

     Waiting for input...
     Reading input from standard input

     Current dimensions of program PWSCF are:
     Max number of different atomic species (ntypx) = 10
     Max number of k-points (npk) =  40000
     Max angular momentum in pseudopotentials (lmaxx) =  4

     IMPORTANT: XC functional enforced from input :
     Exchange-correlation= VDW-DF2
                           (   1   4  13   0   2   0   0)
     Any further DFT definition will be discarded
     Please, verify this is what you really want


     K-points division:     npool     =       4
     R & G space division:  proc/nbgrp/npool/nimage =      32
     Subspace diagonalization in iterative solution of the eigenvalue problem:
     a serial algorithm will be used


     Parallelization info
     --------------------
     sticks:   dense  smooth     PW     G-vecs:    dense   smooth      PW
     Min         168     168     49                 6814     6814    1091
     Max         169     169     50                 6817     6817    1095
     Sum        5391    5391   1595               218087   218087   34987

     Using Slab Decomposition



     bravais-lattice index     =            5
     lattice parameter (alat)  =      14.3051  a.u.
     unit-cell volume          =    1891.3253 (a.u.)^3
     number of atoms/cell      =           36
     number of atomic types    =            2
     number of electrons       =        96.00
     number of Kohn-Sham states=           48
     kinetic-energy cutoff     =      90.0000  Ry
     charge density cutoff     =     360.0000  Ry
     scf convergence threshold =      1.0E-07
     mixing beta               =       0.7000
     number of iterations used =            8  plain     mixing
     energy convergence thresh.=      1.0E-04
     force convergence thresh. =      1.0E-03
     Exchange-correlation= VDW-DF2
                           (   1   4  13   0   2   0   0)
     nstep                     =           50


     celldm(1)=  14.305112  celldm(2)=   0.000000  celldm(3)=   0.000000
     celldm(4)=  -0.392337  celldm(5)=   0.000000  celldm(6)=   0.000000

     crystal axes: (cart. coord. in units of alat)
               a(1) = (   0.834367  -0.481722   0.267909 )  
               a(2) = (   0.000000   0.963444   0.267909 )  
               a(3) = (  -0.834367  -0.481722   0.267909 )  

     reciprocal axes: (cart. coord. in units 2 pi/alat)
               b(1) = (  0.599257 -0.345981  1.244203 )  
               b(2) = (  0.000000  0.691962  1.244203 )  
               b(3) = ( -0.599257 -0.345981  1.244203 )  


     PseudoPot. # 1 for H  read from file:
     ./H.pbe-van_ak.UPF
     MD5 check sum: 077eb6d537518a38cb46c6de387227b7
     Pseudo is Ultrasoft, Zval =  1.0
     Generated by new atomic code, or converted to UPF format
     Using radial grid of  615 points,  1 beta functions with: 
                l(1) =   0
     Q(r) pseudized with  8 coefficients,  rinner =    0.800

     PseudoPot. # 2 for O  read from file:
     ./O.pbe-van_ak.UPF
     MD5 check sum: 78c19812648e8988a0fe644b0f25305e
     Pseudo is Ultrasoft, Zval =  6.0
     Generated by new atomic code, or converted to UPF format
     Using radial grid of  737 points,  4 beta functions with: 
                l(1) =   0
                l(2) =   0
                l(3) =   1
                l(4) =   1
     Q(r) pseudized with  8 coefficients,  rinner =    0.800   0.800   0.800


     atomic species   valence    mass     pseudopotential
     H                 1.00     1.00800     H ( 1.00)
     O                 6.00    16.00000     O ( 1.00)

      6 Sym. Ops., with inversion, found



   Cartesian axes

     site n.     atom                  positions (alat units)
         1        O      tau(   1) = (  -0.4847673  -0.5197781   0.3083633  )
         2        O      tau(   2) = (   0.4847673   0.5197782   0.4953638  )
         3        O      tau(   3) = (   0.6925247  -0.1599317   0.3083633  )
         4        O      tau(   4) = (  -0.6925248   0.1599317   0.4953638  )
         5        O      tau(   5) = (  -0.2077574   0.6797099   0.3083633  )
         6        O      tau(   6) = (   0.2077574  -0.6797099   0.4953638  )
         7        O      tau(   7) = (   0.1218176   0.3323883   0.4179381  )
         8        O      tau(   8) = (  -0.1218176  -0.3323883   0.3857890  )
         9        O      tau(   9) = (  -0.3487655  -0.0606970   0.4179381  )
        10        O      tau(  10) = (   0.3487655   0.0606970   0.3857890  )
        11        O      tau(  11) = (   0.2269479  -0.2716913   0.4179381  )
        12        O      tau(  12) = (  -0.2269479   0.2716912   0.3857890  )
        13        H      tau(  13) = (  -0.5381668  -0.4032014   0.2796970  )
        14        H      tau(  14) = (   0.5381668   0.4032014   0.5240301  )
        15        H      tau(  15) = (   0.6182661  -0.2644654   0.2796970  )
        16        H      tau(  16) = (  -0.6182661   0.2644654   0.5240301  )
        17        H      tau(  17) = (  -0.0800993   0.6676668   0.2796970  )
        18        H      tau(  18) = (   0.0800993  -0.6676668   0.5240301  )
        19        H      tau(  19) = (  -0.4872704  -0.4817221   0.4326731  )
        20        H      tau(  20) = (   0.4872704   0.4817221   0.3710540  )
        21        H      tau(  21) = (   0.6608188  -0.1811275   0.4326731  )
        22        H      tau(  22) = (  -0.6608188   0.1811275   0.3710540  )
        23        H      tau(  23) = (  -0.1735484   0.6628496   0.4326731  )
        24        H      tau(  24) = (   0.1735484  -0.6628496   0.3710540  )
        25        H      tau(  25) = (   0.2703349  -0.1502973   0.4058822  )
        26        H      tau(  26) = (  -0.2703350   0.1502973   0.3978449  )
        27        H      tau(  27) = (  -0.0050062   0.3092656   0.4058822  )
        28        H      tau(  28) = (   0.0050062  -0.3092656   0.3978449  )
        29        H      tau(  29) = (  -0.2653287  -0.1589683   0.4058822  )
        30        H      tau(  30) = (   0.2653287   0.1589683   0.3978449  )
        31        H      tau(  31) = (   0.3178939  -0.3347969   0.3493534  )
        32        H      tau(  32) = (  -0.3178939   0.3347969   0.4543737  )
        33        H      tau(  33) = (   0.1309957   0.4427026   0.3493534  )
        34        H      tau(  34) = (  -0.1309956  -0.4427026   0.4543737  )
        35        H      tau(  35) = (  -0.4488895  -0.1079057   0.3493534  )
        36        H      tau(  36) = (   0.4488895   0.1079057   0.4543737  )

     number of k points=    14
                       cart. coord. in units 2pi/alat
        k(    1) = (   0.0000000   0.0000000   0.0000000), wk =   0.0312500
        k(    2) = (  -0.1498141  -0.0864952   0.3110508), wk =   0.1875000
        k(    3) = (   0.2996283   0.1729905  -0.6221017), wk =   0.0937500
        k(    4) = (  -0.1498141   0.0864952   0.6221017), wk =   0.1875000
        k(    5) = (   0.2996283   0.3459809  -0.3110508), wk =   0.1875000
        k(    6) = (   0.1498141   0.2594857   0.0000000), wk =   0.1875000
        k(    7) = (   0.2996283  -0.1729905  -1.2442034), wk =   0.0937500
        k(    8) = (   0.0000000   0.0000000   0.9331525), wk =   0.0625000
        k(    9) = (   0.4494424   0.2594857   0.0000000), wk =   0.1875000
        k(   10) = (   0.2996283   0.1729905   0.3110508), wk =   0.1875000
        k(   11) = (   0.4494424  -0.2594857  -0.9331525), wk =   0.1875000
        k(   12) = (   0.2996283  -0.3459809  -0.6221017), wk =   0.1875000
        k(   13) = (   0.0000000   0.0000000  -1.8663050), wk =   0.0312500
        k(   14) = (   0.2996283  -0.3459809   0.3110508), wk =   0.1875000

     Dense  grid:   218087 G-vectors     FFT dimensions: (  90,  90,  90)

     Estimated max dynamical RAM per process >      14.52 MB

     Estimated total dynamical RAM >       1.66 GB

     Initial potential from superposition of free atoms

     starting charge      95.9998, renormalised to      96.0000


     %%%%%%%%%%%%%%%%%%%%%%%%%%%%%%%%%%%%%%%%%%%%%%%%%%%%%%%%%%%%%%%%%%%%%%%%
     %                                                                      %
     % You are using vdW-DF, which was implemented by the Thonhauser group. %
     % Please cite the following two papers that made this development      %
     % possible and the two reviews that describe the various versions:     %
     %                                                                      %
     %   T. Thonhauser et al., PRL 115, 136402 (2015).                      %
     %   T. Thonhauser et al., PRB 76, 125112 (2007).                       %
     %   K. Berland et al., Rep. Prog. Phys. 78, 066501 (2015).             %
     %   D.C. Langreth et al., J. Phys.: Condens. Matter 21, 084203 (2009). %
     %                                                                      %
     % If you are calculating stress with vdW-DF, please also cite:         %
     %                                                                      %
     %   R. Sabatini et al., J. Phys.: Condens. Matter 24, 424209 (2012).   %
     %                                                                      %
     %%%%%%%%%%%%%%%%%%%%%%%%%%%%%%%%%%%%%%%%%%%%%%%%%%%%%%%%%%%%%%%%%%%%%%%%

     %%%%%%%%%%%%%%%%%%%%%%%%%%%%%%%%%%%%%%%%%%%%%%%%%%%%%%%%%%%%%%%%%%%%%%%%
     %                                                                      %
     %  vdW-DF NEWS:                                                        %
     %                                                                      %
     %  * vdW-DF3 is now available. DOI: 10.1021/acs.jctc.0c00471           %
     %    use with input_dft = 'vdW-DF3-opt1' or 'vdW-DF3-opt2'             %
     %                                                                      %
     %  * Unscreened and range-separated hybrid vdW-DF-cx functionals       %
     %    DOI: 10.1063/1.4986522 and 10.1088/1361-648X/ac2ad2               %
     %    use with input_dft = 'vdW-DF-cx0'    and 'vdW-DF-ahcx'            %
     %  * Unscreened and range-separated hybrid vdW-DF2-b86r functionals    %
     %    DOI: 10.1063/1.4986522 and DOI: 10.1103/PhysRevX.12.041003        %
     %    use with input_dft = 'vdW-DF2-br0' and 'vdW-DF2-ahbr'             %
     %                                                                      %
     %%%%%%%%%%%%%%%%%%%%%%%%%%%%%%%%%%%%%%%%%%%%%%%%%%%%%%%%%%%%%%%%%%%%%%%%


     Starting wfcs are   72 randomized atomic wfcs

     total cpu time spent up to now is        2.8 secs

     per-process dynamical memory:    18.7 Mb

     Self-consistent Calculation

     iteration #  1     ecut=    90.00 Ry     beta= 0.70
     Davidson diagonalization with overlap
     ethr =  1.00E-02,  avg # of iterations =  2.0

     total cpu time spent up to now is        3.7 secs

     total energy              =    -415.85660479 Ry
     estimated scf accuracy    <       4.68968053 Ry

     iteration #  2     ecut=    90.00 Ry     beta= 0.70
     Davidson diagonalization with overlap
     ethr =  4.89E-03,  avg # of iterations =  3.0

     total cpu time spent up to now is        4.8 secs

     total energy              =    -417.41980270 Ry
     estimated scf accuracy    <       3.03039198 Ry

     iteration #  3     ecut=    90.00 Ry     beta= 0.70
     Davidson diagonalization with overlap
     ethr =  3.16E-03,  avg # of iterations =  2.0

     total cpu time spent up to now is        5.7 secs

     total energy              =    -417.81408964 Ry
     estimated scf accuracy    <       0.12987656 Ry

     iteration #  4     ecut=    90.00 Ry     beta= 0.70
     Davidson diagonalization with overlap
     ethr =  1.35E-04,  avg # of iterations =  4.0

     total cpu time spent up to now is        6.9 secs

     total energy              =    -417.91251589 Ry
     estimated scf accuracy    <       0.15577853 Ry

     iteration #  5     ecut=    90.00 Ry     beta= 0.70
     Davidson diagonalization with overlap
     ethr =  1.35E-04,  avg # of iterations =  2.0

     total cpu time spent up to now is        7.7 secs

     total energy              =    -417.91660088 Ry
     estimated scf accuracy    <       0.02477299 Ry

     iteration #  6     ecut=    90.00 Ry     beta= 0.70
     Davidson diagonalization with overlap
     ethr =  2.58E-05,  avg # of iterations =  2.0

     total cpu time spent up to now is        8.5 secs

     total energy              =    -417.91785541 Ry
     estimated scf accuracy    <       0.00512872 Ry

     iteration #  7     ecut=    90.00 Ry     beta= 0.70
     Davidson diagonalization with overlap
     ethr =  5.34E-06,  avg # of iterations =  2.0

     total cpu time spent up to now is        9.4 secs

     total energy              =    -417.91934903 Ry
     estimated scf accuracy    <       0.00006238 Ry

     iteration #  8     ecut=    90.00 Ry     beta= 0.70
     Davidson diagonalization with overlap
     ethr =  6.50E-08,  avg # of iterations =  5.1

     total cpu time spent up to now is       10.8 secs

     total energy              =    -417.91941868 Ry
     estimated scf accuracy    <       0.00029792 Ry

     iteration #  9     ecut=    90.00 Ry     beta= 0.70
     Davidson diagonalization with overlap
     ethr =  6.50E-08,  avg # of iterations =  2.0

     total cpu time spent up to now is       11.5 secs

     total energy              =    -417.91935484 Ry
     estimated scf accuracy    <       0.00016872 Ry

     iteration # 10     ecut=    90.00 Ry     beta= 0.70
     Davidson diagonalization with overlap
     ethr =  6.50E-08,  avg # of iterations =  3.0

     total cpu time spent up to now is       12.5 secs

     total energy              =    -417.91937210 Ry
     estimated scf accuracy    <       0.00001429 Ry

     iteration # 11     ecut=    90.00 Ry     beta= 0.70
     Davidson diagonalization with overlap
     ethr =  1.49E-08,  avg # of iterations =  2.0

     total cpu time spent up to now is       13.3 secs

     total energy              =    -417.91937393 Ry
     estimated scf accuracy    <       0.00000204 Ry

     iteration # 12     ecut=    90.00 Ry     beta= 0.70
     Davidson diagonalization with overlap
     ethr =  2.13E-09,  avg # of iterations =  3.0

     total cpu time spent up to now is       14.4 secs

     total energy              =    -417.91937492 Ry
     estimated scf accuracy    <       0.00000011 Ry

     iteration # 13     ecut=    90.00 Ry     beta= 0.70
     Davidson diagonalization with overlap
     ethr =  1.17E-10,  avg # of iterations =  3.1

     total cpu time spent up to now is       15.3 secs

     total energy              =    -417.91937490 Ry
     estimated scf accuracy    <       0.00000011 Ry

     iteration # 14     ecut=    90.00 Ry     beta= 0.70
     Davidson diagonalization with overlap
     ethr =  1.10E-10,  avg # of iterations =  2.0

     total cpu time spent up to now is       16.2 secs

     End of self-consistent calculation

          k = 0.0000 0.0000 0.0000 ( 27251 PWs)   bands (ev):

   -21.2129 -20.6698 -20.6698 -20.4119 -20.4119 -20.3863 -20.3863 -20.3638
   -20.3586 -20.0079 -20.0079 -19.6444  -8.4685  -8.2484  -8.1880  -8.1880
    -8.0765  -8.0765  -7.6414  -7.4945  -7.4945  -7.2691  -7.2691  -7.1066
    -7.0555  -6.0406  -6.0406  -5.3869  -5.3869  -5.3076  -5.3076  -4.9961
    -4.7700  -4.0964  -4.0964  -3.4035  -2.8206  -2.8206  -2.7137  -2.6208
    -2.5653  -2.5653  -2.4161  -2.4161  -2.3773  -2.3589  -2.2997  -2.2997

          k =-0.1498-0.0865 0.3111 ( 27267 PWs)   bands (ev):

   -21.1263 -20.7166 -20.6557 -20.5805 -20.5553 -20.4687 -20.3013 -20.2524
   -20.1878 -20.0163 -19.9671 -19.7140  -8.4065  -8.3143  -8.2318  -8.1809
    -8.0596  -7.9922  -7.6550  -7.4691  -7.4400  -7.3054  -7.1560  -7.1190
    -6.8845  -6.1994  -6.0502  -5.7583  -5.4057  -5.2531  -5.1128  -4.8634
    -4.8025  -4.0862  -4.0208  -3.5421  -2.9618  -2.8777  -2.7441  -2.6728
    -2.6097  -2.5672  -2.5195  -2.4518  -2.3734  -2.3335  -2.2885  -2.2369

          k = 0.2996 0.1730-0.6221 ( 27278 PWs)   bands (ev):

   -20.9046 -20.8951 -20.7002 -20.6720 -20.5563 -20.5463 -20.2407 -20.2231
   -20.0285 -20.0185 -19.8987 -19.8683  -8.3694  -8.3129  -8.2243  -8.1924
    -8.0694  -7.9954  -7.6022  -7.4682  -7.4154  -7.3159  -7.0592  -7.0583
    -6.6040  -6.4522  -6.1028  -5.9451  -5.4075  -5.3177  -5.1019  -4.9361
    -4.3498  -4.2473  -3.9544  -3.7223  -3.0890  -2.9067  -2.7676  -2.7439
    -2.6574  -2.6287  -2.5285  -2.4563  -2.4406  -2.2913  -2.2731  -2.1866

          k =-0.1498 0.0865 0.6221 ( 27260 PWs)   bands (ev):

   -20.9497 -20.7895 -20.7740 -20.6338 -20.6096 -20.5346 -20.2443 -20.1499
   -20.1067 -19.9700 -19.9497 -19.8405  -8.3792  -8.2859  -8.2696  -8.1531
    -8.0834  -7.9789  -7.6008  -7.5171  -7.4534  -7.1921  -7.1154  -7.0539
    -6.6111  -6.3755  -6.2655  -5.7553  -5.5593  -5.3634  -5.0205  -4.8015
    -4.5833  -4.0536  -4.0175  -3.7430  -3.0618  -2.9571  -2.7575  -2.7040
    -2.6658  -2.6090  -2.5559  -2.4623  -2.4275  -2.3005  -2.2793  -2.1795

          k = 0.2996 0.3460-0.3111 ( 27273 PWs)   bands (ev):

   -21.0130 -20.8285 -20.6947 -20.6779 -20.5705 -20.4973 -20.2444 -20.1307
   -20.1176 -20.0112 -19.9431 -19.8121  -8.3899  -8.3633  -8.1977  -8.1686
    -8.1029  -7.9962  -7.6524  -7.5868  -7.4429  -7.1557  -7.1261  -7.0407
    -6.7471  -6.4066  -6.1470  -5.7780  -5.7341  -5.1749  -4.9888  -4.7018
    -4.4562  -4.2219  -4.0019  -3.7082  -2.9512  -2.8749  -2.7767  -2.7016
    -2.6316  -2.5716  -2.5088  -2.4928  -2.3937  -2.3513  -2.2806  -2.1619

          k = 0.1498 0.2595 0.0000 ( 27300 PWs)   bands (ev):

   -21.1507 -20.7618 -20.6947 -20.5394 -20.5090 -20.4142 -20.3250 -20.2398
   -20.1956 -20.0219 -19.9788 -19.7000  -8.4482  -8.3314  -8.2203  -8.1699
    -8.0376  -8.0290  -7.7320  -7.5742  -7.3630  -7.2718  -7.1883  -7.0522
    -7.0407  -6.1699  -6.0227  -5.7546  -5.6386  -5.1237  -4.9684  -4.8487
    -4.6385  -4.1703  -4.0782  -3.4908  -2.8241  -2.7978  -2.7542  -2.6632
    -2.6140  -2.5813  -2.4459  -2.4284  -2.3915  -2.3748  -2.2566  -2.2391

          k = 0.2996-0.1730-1.2442 ( 27246 PWs)   bands (ev):

   -21.0022 -20.9543 -20.7149 -20.5944 -20.5112 -20.4364 -20.2629 -20.2156
   -20.0903 -20.0610 -19.8529 -19.8338  -8.4230  -8.3787  -8.2249  -8.1928
    -8.0140  -8.0017  -7.7449  -7.6575  -7.3527  -7.2966  -7.0952  -7.0446
    -6.6517  -6.6114  -6.0988  -5.8808  -5.5427  -5.2497  -4.8265  -4.5659
    -4.4522  -4.4026  -3.9146  -3.7152  -2.8470  -2.7843  -2.7591  -2.7107
    -2.6176  -2.5402  -2.5268  -2.4379  -2.4304  -2.3680  -2.2154  -2.2019

          k = 0.0000 0.0000 0.9332 ( 27252 PWs)   bands (ev):

   -20.8875 -20.8875 -20.7943 -20.7341 -20.5251 -20.5251 -20.1578 -20.1578
   -20.0252 -19.9644 -19.9412 -19.9412  -8.3627  -8.3627  -8.2124  -8.1047
    -8.0980  -8.0980  -7.6640  -7.5493  -7.5493  -7.0539  -7.0539  -7.0091
    -6.5189  -6.5189  -6.5181  -5.7998  -5.4652  -5.4652  -4.7603  -4.5583
    -4.5583  -4.0722  -4.0722  -3.9111  -2.8845  -2.8845  -2.7573  -2.6683
    -2.6015  -2.6015  -2.5352  -2.4659  -2.4658  -2.3328  -2.3328  -2.1350

          k = 0.4494 0.2595 0.0000 ( 27268 PWs)   bands (ev):

   -21.0354 -20.8413 -20.8302 -20.5952 -20.4472 -20.4277 -20.2790 -20.2669
   -20.0910 -19.9783 -19.9379 -19.7998  -8.4158  -8.3675  -8.2891  -8.1209
    -8.0556  -7.9881  -7.7615  -7.6005  -7.4594  -7.1793  -7.1189  -7.0698
    -6.7728  -6.3604  -6.2738  -5.8294  -5.5474  -5.2488  -4.7564  -4.7188
    -4.4966  -4.1822  -4.0403  -3.6868  -2.8239  -2.8153  -2.7438  -2.7153
    -2.6319  -2.5624  -2.4885  -2.4609  -2.3979  -2.3426  -2.2735  -2.1813

          k = 0.2996 0.1730 0.3111 ( 27287 PWs)   bands (ev):

   -21.0678 -20.7717 -20.6679 -20.6541 -20.5543 -20.4860 -20.2623 -20.2318
   -20.1431 -20.0052 -19.9387 -19.7580  -8.4137  -8.3485  -8.2585  -8.1180
    -8.1044  -7.9350  -7.6926  -7.5433  -7.3481  -7.2693  -7.2105  -7.0994
    -6.7798  -6.1937  -6.0083  -5.9168  -5.6801  -5.2824  -4.9645  -4.7420
    -4.5882  -4.1503  -4.0178  -3.5815  -2.9726  -2.8924  -2.8035  -2.7442
    -2.6299  -2.5850  -2.4963  -2.4531  -2.3570  -2.3144  -2.2452  -2.2296

          k = 0.4494-0.2595-0.9332 ( 27253 PWs)   bands (ev):

   -20.9183 -20.9089 -20.7525 -20.6768 -20.5394 -20.4529 -20.3073 -20.2109
   -20.0424 -19.9839 -19.9218 -19.8250  -8.4418  -8.3341  -8.2888  -8.1217
    -8.0705  -7.9151  -7.7491  -7.5068  -7.3709  -7.3100  -7.1424  -7.1050
    -6.4812  -6.4366  -6.0827  -5.9394  -5.7332  -5.3814  -4.9132  -4.6136
    -4.3008  -4.2417  -4.0562  -3.6613  -2.9667  -2.9166  -2.8733  -2.7447
    -2.7047  -2.6087  -2.4355  -2.4108  -2.3689  -2.3279  -2.2475  -2.1889

          k = 0.2996-0.3460-0.6221 ( 27248 PWs)   bands (ev):

   -20.8649 -20.8493 -20.7370 -20.7185 -20.5785 -20.5742 -20.2189 -20.2069
   -20.0308 -20.0191 -19.8938 -19.8593  -8.4552  -8.2417  -8.2100  -8.1843
    -8.1437  -7.9171  -7.6316  -7.5241  -7.3379  -7.2927  -7.1141  -7.1082
    -6.4441  -6.3097  -6.1265  -6.0019  -5.6423  -5.6020  -4.8250  -4.7495
    -4.3077  -4.2662  -4.0546  -3.6446  -3.1234  -2.9351  -2.8694  -2.7921
    -2.7242  -2.5690  -2.4912  -2.4424  -2.4133  -2.2775  -2.2570  -2.1672

          k = 0.0000 0.0000-1.8663 ( 27264 PWs)   bands (ev):

   -20.8235 -20.7869 -20.7007 -20.7007 -20.6923 -20.6923 -20.1341 -20.1341
   -20.0823 -20.0823 -19.8759 -19.8449  -8.5083  -8.1930  -8.1930  -8.1797
    -8.1797  -7.8869  -7.6831  -7.5288  -7.2340  -7.2340  -7.2015  -7.2015
    -6.2426  -6.0815  -5.9997  -5.9997  -5.9812  -5.9812  -4.5823  -4.5823
    -4.3540  -4.3540  -4.0640  -3.5908  -3.1585  -2.9405  -2.9405  -2.8362
    -2.8362  -2.5064  -2.4905  -2.3646  -2.3646  -2.2932  -2.2932  -2.1378

          k = 0.2996-0.3460 0.3111 ( 27273 PWs)   bands (ev):

   -21.0132 -20.8256 -20.7114 -20.6656 -20.5669 -20.4976 -20.2472 -20.1492
   -20.0870 -20.0306 -19.9322 -19.8148  -8.4084  -8.3256  -8.2330  -8.1633
    -8.0794  -8.0011  -7.7069  -7.5488  -7.4198  -7.1993  -7.0842  -7.0634
    -6.7359  -6.3310  -6.2562  -5.8256  -5.5830  -5.2469  -5.0711  -4.6032
    -4.4268  -4.2091  -4.0881  -3.6792  -2.9619  -2.8413  -2.7924  -2.6949
    -2.6453  -2.5781  -2.5112  -2.4902  -2.4133  -2.3160  -2.2810  -2.1718

     highest occupied level (ev):    -2.1350

!    total energy              =    -417.91937492 Ry
     estimated scf accuracy    <          1.5E-09 Ry

     The total energy is the sum of the following terms:
     one-electron contribution =    -281.63494881 Ry
     hartree contribution      =     177.21079346 Ry
     xc contribution           =    -106.35792033 Ry
     ewald contribution        =    -207.13729924 Ry

     convergence has been achieved in  14 iterations

     Forces acting on atoms (cartesian axes, Ry/au):

     atom    1 type  2   force =    -0.01882108    0.03072224    0.00736172
     atom    2 type  2   force =     0.01882108   -0.03072224   -0.00736172
     atom    3 type  2   force =    -0.01719570   -0.03166065    0.00736172
     atom    4 type  2   force =     0.01719570    0.03166065   -0.00736172
     atom    5 type  2   force =     0.03601678    0.00093841    0.00736172
     atom    6 type  2   force =    -0.03601678   -0.00093841   -0.00736172
     atom    7 type  2   force =    -0.00242118    0.00706602   -0.00554068
     atom    8 type  2   force =     0.00242118   -0.00706602    0.00554068
     atom    9 type  2   force =    -0.00490876   -0.00562981   -0.00554068
     atom   10 type  2   force =     0.00490876    0.00562981    0.00554068
     atom   11 type  2   force =     0.00732994   -0.00143621   -0.00554068
     atom   12 type  2   force =    -0.00732994    0.00143621    0.00554068
     atom   13 type  1   force =    -0.01057810    0.00271807   -0.06645621
     atom   14 type  1   force =     0.01057810   -0.00271807    0.06645621
     atom   15 type  1   force =     0.00293513   -0.01051994   -0.06645621
     atom   16 type  1   force =    -0.00293513    0.01051994    0.06645621
     atom   17 type  1   force =     0.00764297    0.00780187   -0.06645621
     atom   18 type  1   force =    -0.00764297   -0.00780187    0.06645621
     atom   19 type  1   force =     0.03243745   -0.04055052    0.04709608
     atom   20 type  1   force =    -0.03243745    0.04055052   -0.04709608
     atom   21 type  1   force =     0.01889906    0.04836692    0.04709608
     atom   22 type  1   force =    -0.01889906   -0.04836692   -0.04709608
     atom   23 type  1   force =    -0.05133651   -0.00781639    0.04709608
     atom   24 type  1   force =     0.05133651    0.00781639   -0.04709608
     atom   25 type  1   force =    -0.00488090    0.03254203    0.01163767
     atom   26 type  1   force =     0.00488090   -0.03254203   -0.01163767
     atom   27 type  1   force =    -0.02574178   -0.02049800    0.01163767
     atom   28 type  1   force =     0.02574178    0.02049800   -0.01163767
     atom   29 type  1   force =     0.03062267   -0.01204403    0.01163767
     atom   30 type  1   force =    -0.03062267    0.01204403   -0.01163767
     atom   31 type  1   force =    -0.00483011   -0.03132523   -0.00303108
     atom   32 type  1   force =     0.00483011    0.03132523    0.00303108
     atom   33 type  1   force =     0.02954350    0.01147961   -0.00303108
     atom   34 type  1   force =    -0.02954350   -0.01147961    0.00303108
     atom   35 type  1   force =    -0.02471339    0.01984561   -0.00303108
     atom   36 type  1   force =     0.02471339   -0.01984561    0.00303108

     Total force =     0.280582     Total SCF correction =     0.000049


     Computing stress (Cartesian axis) and pressure

          total   stress  (Ry/bohr**3)                   (kbar)     P=       53.73
   0.00029445   0.00000000   0.00000000           43.32        0.00        0.00
  -0.00000000   0.00029445   0.00000000           -0.00       43.32        0.00
   0.00000000   0.00000000   0.00050692            0.00        0.00       74.57


     BFGS Geometry Optimization
     Energy error            =      0.0E+00 Ry
     Gradient error          =      6.6E-02 Ry/Bohr

     number of scf cycles    =   1
     number of bfgs steps    =   0

     energy             new  =    -417.9193749208 Ry

     new trust radius        =       0.0701040237 bohr
     new conv_thr            =       0.0000001000 Ry


ATOMIC_POSITIONS (crystal)
O                0.2721088185        0.0261263796        0.8546856589
O                0.7278911815        0.9738736314        0.1453143111
O                0.8546856589        0.2721088185        0.0261263796
O                0.1453143111        0.7278911815        0.9738736314
O                0.0261263796        0.8546856589        0.2721088185
O                0.9738736314        0.1453143111        0.7278911815
O                0.4772457549        0.7498598880        0.3314486082
O                0.5227542451        0.2501401120        0.6685513618
O                0.3314486082        0.4772457549        0.7498598880
O                0.6685513618        0.5227542451        0.2501401120
O                0.7498598880        0.3314486082        0.4772457549
O                0.2501401120        0.6685513618        0.5227542451
H                0.1587110357        0.0633513712        0.8045972868
H                0.8412889503        0.9366486208        0.1954027132
H                0.8045972868        0.1587110357        0.0633513712
H                0.1954027132        0.8412889503        0.9366486208
H                0.0633513712        0.8045972868        0.1587110357
H                0.9366486208        0.1954027132        0.8412889503
H                0.4194358108        0.2071347375        1.0007181225
H                0.5805641892        0.7928652775       -0.0007181435
H                1.0007181225        0.4194358108        0.2071347375
H               -0.0007181435        0.5805641892        0.7928652775
H                0.2071347375        1.0007181225        0.4194358108
H                0.7928652775       -0.0007181435        0.5805641892
H                0.7190206596        0.4035863042        0.3954296208
H                0.2809793404        0.5964136658        0.6045704092
H                0.3954296208        0.7190206596        0.4035863042
H                0.6045704092        0.2809793404        0.5964136658
H                0.4035863042        0.3954296208        0.7190206596
H                0.5964136658        0.6045704092        0.2809793404
H                0.7412916528        0.2012211092        0.3606963471
H                0.2587083472        0.7987788758        0.6393036529
H                0.3606963471        0.7412916528        0.2012211092
H                0.6393036529        0.2587083472        0.7987788758
H                0.2012211092        0.3606963471        0.7412916528
H                0.7987788758        0.6393036529        0.2587083472



     Writing config-only to output data dir ./iceII/iceII.save/ :
     XML data file
     NEW-OLD atomic charge density approx. for the potential

     total cpu time spent up to now is       17.6 secs

     per-process dynamical memory:    21.9 Mb

     Self-consistent Calculation

     iteration #  1     ecut=    90.00 Ry     beta= 0.70
     Davidson diagonalization with overlap
     ethr =  1.00E-06,  avg # of iterations =  7.0

     total cpu time spent up to now is       19.2 secs

     total energy              =    -417.98291538 Ry
     estimated scf accuracy    <       0.00247121 Ry

     iteration #  2     ecut=    90.00 Ry     beta= 0.70
     Davidson diagonalization with overlap
     ethr =  2.57E-06,  avg # of iterations =  2.9

     total cpu time spent up to now is       20.2 secs

     total energy              =    -417.98338867 Ry
     estimated scf accuracy    <       0.00041276 Ry

     iteration #  3     ecut=    90.00 Ry     beta= 0.70
     Davidson diagonalization with overlap
     ethr =  4.30E-07,  avg # of iterations =  2.9

     total cpu time spent up to now is       21.1 secs

     total energy              =    -417.98348335 Ry
     estimated scf accuracy    <       0.00003217 Ry

     iteration #  4     ecut=    90.00 Ry     beta= 0.70
     Davidson diagonalization with overlap
     ethr =  3.35E-08,  avg # of iterations =  2.0

     total cpu time spent up to now is       21.9 secs

     total energy              =    -417.98348687 Ry
     estimated scf accuracy    <       0.00000273 Ry

     iteration #  5     ecut=    90.00 Ry     beta= 0.70
     Davidson diagonalization with overlap
     ethr =  2.85E-09,  avg # of iterations =  3.1

     total cpu time spent up to now is       23.0 secs

     total energy              =    -417.98348775 Ry
     estimated scf accuracy    <       0.00000032 Ry

     iteration #  6     ecut=    90.00 Ry     beta= 0.70
     Davidson diagonalization with overlap
     ethr =  3.38E-10,  avg # of iterations =  2.0

     total cpu time spent up to now is       23.8 secs

     End of self-consistent calculation

          k = 0.0000 0.0000 0.0000 ( 27251 PWs)   bands (ev):

   -21.1022 -20.5487 -20.5487 -20.2933 -20.2933 -20.2586 -20.2586 -20.2402
   -20.2355 -19.8789 -19.8789 -19.5105  -8.4829  -8.2265  -8.2265  -8.2196
    -8.1070  -8.1070  -7.6519  -7.5979  -7.5979  -7.4438  -7.4438  -7.2455
    -7.1794  -5.9076  -5.9076  -5.2516  -5.2516  -5.2075  -5.2075  -4.8313
    -4.6944  -3.9907  -3.9907  -3.2695  -2.7987  -2.7987  -2.6929  -2.5777
    -2.5391  -2.5391  -2.3798  -2.3798  -2.3468  -2.3414  -2.2775  -2.2775

          k =-0.1498-0.0865 0.3111 ( 27267 PWs)   bands (ev):

   -21.0144 -20.5948 -20.5309 -20.4661 -20.4344 -20.3459 -20.1776 -20.1268
   -20.0592 -19.8885 -19.8386 -19.5814  -8.4217  -8.3205  -8.2473  -8.1796
    -8.0937  -8.0263  -7.7201  -7.6078  -7.4977  -7.4759  -7.3451  -7.3142
    -6.8988  -6.0871  -5.9220  -5.6486  -5.3650  -5.0638  -5.0096  -4.7185
    -4.6699  -3.9804  -3.9061  -3.4223  -2.9346  -2.8552  -2.7129  -2.6541
    -2.5888  -2.5312  -2.4955  -2.4137  -2.3508  -2.2994  -2.2679  -2.2142

          k = 0.2996 0.1730-0.6221 ( 27278 PWs)   bands (ev):

   -20.7914 -20.7776 -20.5643 -20.5643 -20.4344 -20.4275 -20.1091 -20.1030
   -19.9047 -19.8868 -19.7536 -19.7529  -8.3611  -8.3295  -8.2362  -8.2103
    -8.0946  -8.0221  -7.6886  -7.5918  -7.5104  -7.5026  -7.2588  -7.2477
    -6.5179  -6.3735  -5.9689  -5.8954  -5.3445  -5.2590  -4.8961  -4.7339
    -4.1975  -4.1487  -3.8434  -3.6319  -3.0532  -2.8891  -2.7501  -2.7040
    -2.6354  -2.5974  -2.4974  -2.4481  -2.4091  -2.2729  -2.2311  -2.1643

          k =-0.1498 0.0865 0.6221 ( 27260 PWs)   bands (ev):

   -20.8358 -20.6703 -20.6539 -20.5122 -20.4912 -20.4127 -20.1193 -20.0205
   -19.9812 -19.8426 -19.8190 -19.7109  -8.3718  -8.2960  -8.2908  -8.1679
    -8.1089  -8.0042  -7.6757  -7.6439  -7.5783  -7.3610  -7.3039  -7.2528
    -6.5333  -6.2730  -6.1775  -5.6772  -5.4709  -5.2929  -4.8314  -4.6180
    -4.4405  -3.9535  -3.8984  -3.6521  -3.0288  -2.9335  -2.7413  -2.6618
    -2.6392  -2.5808  -2.5354  -2.4348  -2.4111  -2.2807  -2.2395  -2.1550

          k = 0.2996 0.3460-0.3111 ( 27273 PWs)   bands (ev):

   -20.8993 -20.7074 -20.5918 -20.5466 -20.4482 -20.3730 -20.1239 -20.0082
   -19.9742 -19.8935 -19.8088 -19.6826  -8.3846  -8.3676  -8.2052  -8.1894
    -8.1296  -8.0142  -7.7865  -7.7216  -7.5835  -7.3199  -7.3041  -7.2210
    -6.6564  -6.2774  -6.0113  -5.7166  -5.6711  -5.0823  -4.7681  -4.5760
    -4.3552  -4.0933  -3.8844  -3.5995  -2.9226  -2.8560  -2.7539  -2.6811
    -2.5989  -2.5320  -2.4880  -2.4686  -2.3788  -2.3301  -2.2393  -2.1345

          k = 0.1498 0.2595 0.0000 ( 27300 PWs)   bands (ev):

   -21.0390 -20.6430 -20.5745 -20.4188 -20.3875 -20.2927 -20.1991 -20.1164
   -20.0649 -19.8930 -19.8504 -19.5673  -8.4576  -8.3214  -8.2445  -8.1754
    -8.0713  -8.0597  -7.8463  -7.6918  -7.5197  -7.4254  -7.3430  -7.2356
    -6.9994  -6.0176  -5.8922  -5.6682  -5.5588  -4.9970  -4.8242  -4.7017
    -4.5496  -4.0554  -3.9741  -3.3536  -2.8033  -2.7768  -2.7399  -2.6403
    -2.5768  -2.5479  -2.4166  -2.3943  -2.3746  -2.3506  -2.2263  -2.2101

          k = 0.2996-0.1730-1.2442 ( 27246 PWs)   bands (ev):

   -20.8876 -20.8398 -20.5952 -20.4749 -20.3886 -20.3156 -20.1325 -20.0933
   -19.9556 -19.9356 -19.7234 -19.7034  -8.4212  -8.3711  -8.2382  -8.1942
    -8.0430  -8.0296  -7.9092  -7.7832  -7.5374  -7.4280  -7.2732  -7.2200
    -6.5155  -6.4987  -5.9684  -5.8231  -5.4484  -5.1239  -4.6685  -4.4636
    -4.3120  -4.3039  -3.7887  -3.5940  -2.8286  -2.7644  -2.7394  -2.6938
    -2.5879  -2.5006  -2.4918  -2.4121  -2.4100  -2.3487  -2.1836  -2.1687

          k = 0.0000 0.0000 0.9332 ( 27252 PWs)   bands (ev):

   -20.7702 -20.7702 -20.6780 -20.6194 -20.4008 -20.4008 -20.0336 -20.0336
   -19.8669 -19.8582 -19.8130 -19.8130  -8.3594  -8.3594  -8.2382  -8.1309
    -8.1166  -8.1166  -7.8057  -7.6790  -7.6790  -7.2430  -7.2430  -7.1909
    -6.4066  -6.4066  -6.3316  -5.7829  -5.3798  -5.3798  -4.5382  -4.4130
    -4.4129  -3.9611  -3.9611  -3.8302  -2.8628  -2.8628  -2.7303  -2.6648
    -2.5637  -2.5637  -2.4951  -2.4512  -2.4512  -2.2997  -2.2997  -2.1069

          k = 0.4494 0.2595 0.0000 ( 27268 PWs)   bands (ev):

   -20.9217 -20.7239 -20.7131 -20.4780 -20.3139 -20.3114 -20.1512 -20.1467
   -19.9560 -19.8509 -19.8096 -19.6690  -8.4160  -8.3560  -8.2939  -8.1351
    -8.0878  -8.0122  -7.9166  -7.7321  -7.6244  -7.3400  -7.2851  -7.2445
    -6.6621  -6.2121  -6.1549  -5.7916  -5.4314  -5.1120  -4.6407  -4.6108
    -4.3459  -4.0625  -3.9293  -3.5608  -2.8043  -2.7930  -2.7292  -2.6986
    -2.5988  -2.5274  -2.4592  -2.4353  -2.3716  -2.3173  -2.2476  -2.1457

          k = 0.2996 0.1730 0.3111 ( 27287 PWs)   bands (ev):

   -20.9550 -20.6509 -20.5484 -20.5356 -20.4333 -20.3643 -20.1383 -20.0993
   -20.0216 -19.8742 -19.8103 -19.6263  -8.4117  -8.3507  -8.2598  -8.1377
    -8.1283  -7.9632  -7.8186  -7.6343  -7.5096  -7.4566  -7.3510  -7.2814
    -6.7379  -6.0784  -5.9167  -5.7800  -5.6044  -5.1199  -4.8432  -4.6210
    -4.4862  -4.0219  -3.9036  -3.4591  -2.9446  -2.8695  -2.7802  -2.7117
    -2.5987  -2.5635  -2.4654  -2.4345  -2.3435  -2.2919  -2.2179  -2.1889

          k = 0.4494-0.2595-0.9332 ( 27253 PWs)   bands (ev):

   -20.8026 -20.7926 -20.6336 -20.5591 -20.4171 -20.3295 -20.1833 -20.0811
   -19.9190 -19.8504 -19.7938 -19.6942  -8.4180  -8.3409  -8.2877  -8.1414
    -8.0919  -7.9356  -7.8889  -7.6552  -7.5230  -7.4855  -7.3106  -7.2735
    -6.3889  -6.3220  -5.9645  -5.8898  -5.6029  -5.1924  -4.8317  -4.5270
    -4.1932  -4.0798  -3.9404  -3.5397  -2.9388  -2.8909  -2.8464  -2.7116
    -2.6699  -2.5946  -2.4158  -2.3879  -2.3595  -2.3073  -2.2194  -2.1416

          k = 0.2996-0.3460-0.6221 ( 27248 PWs)   bands (ev):

   -20.7470 -20.7344 -20.6110 -20.6060 -20.4567 -20.4527 -20.0872 -20.0851
   -19.9027 -19.8956 -19.7510 -19.7388  -8.4286  -8.2608  -8.2227  -8.2003
    -8.1608  -7.9363  -7.7210  -7.6838  -7.4712  -7.4618  -7.3017  -7.2970
    -6.3390  -6.2354  -6.0081  -5.9530  -5.5128  -5.4675  -4.6850  -4.6060
    -4.2068  -4.1608  -3.9078  -3.5515  -3.0798  -2.9118  -2.8454  -2.7539
    -2.6860  -2.5565  -2.4669  -2.4263  -2.4011  -2.2585  -2.2304  -2.1234

          k = 0.0000 0.0000-1.8663 ( 27264 PWs)   bands (ev):

   -20.6897 -20.6846 -20.5929 -20.5929 -20.5619 -20.5619 -19.9856 -19.9856
   -19.9779 -19.9779 -19.7386 -19.7176  -8.4688  -8.2153  -8.2153  -8.1845
    -8.1845  -7.9011  -7.7676  -7.7223  -7.3967  -7.3967  -7.3874  -7.3874
    -6.1253  -6.1196  -5.8610  -5.8610  -5.8267  -5.8267  -4.4479  -4.4479
    -4.2799  -4.2799  -3.8886  -3.4951  -3.1020  -2.9148  -2.9148  -2.8000
    -2.8000  -2.5034  -2.4677  -2.3548  -2.3548  -2.2692  -2.2692  -2.0853

          k = 0.2996-0.3460 0.3111 ( 27273 PWs)   bands (ev):

   -20.8990 -20.7100 -20.5801 -20.5576 -20.4453 -20.3742 -20.1219 -20.0098
   -19.9811 -19.8858 -19.8087 -19.6840  -8.4044  -8.3292  -8.2411  -8.1850
    -8.0939  -8.0331  -7.8345  -7.6779  -7.5693  -7.3521  -7.2781  -7.2333
    -6.6542  -6.2118  -6.1183  -5.7392  -5.5398  -5.1510  -4.8767  -4.4513
    -4.2902  -4.1120  -3.9768  -3.5648  -2.9338  -2.8219  -2.7701  -2.6752
    -2.6124  -2.5400  -2.4813  -2.4687  -2.4036  -2.2925  -2.2417  -2.1432

     highest occupied level (ev):    -2.0853

!    total energy              =    -417.98348777 Ry
     estimated scf accuracy    <       0.00000005 Ry

     The total energy is the sum of the following terms:
     one-electron contribution =    -280.18890525 Ry
     hartree contribution      =     176.58741854 Ry
     xc contribution           =    -106.26795406 Ry
     ewald contribution        =    -208.11404701 Ry

     convergence has been achieved in   6 iterations

     Forces acting on atoms (cartesian axes, Ry/au):

     atom    1 type  2   force =    -0.00884953    0.01599195    0.01877497
     atom    2 type  2   force =     0.00884953   -0.01599195   -0.01877497
     atom    3 type  2   force =    -0.00942467   -0.01565989    0.01877497
     atom    4 type  2   force =     0.00942467    0.01565989   -0.01877497
     atom    5 type  2   force =     0.01827420   -0.00033206    0.01877497
     atom    6 type  2   force =    -0.01827420    0.00033206   -0.01877497
     atom    7 type  2   force =    -0.01633693    0.00129899   -0.00745033
     atom    8 type  2   force =     0.01633693   -0.00129899    0.00745033
     atom    9 type  2   force =     0.00704351   -0.01479769   -0.00745033
     atom   10 type  2   force =    -0.00704351    0.01479769    0.00745033
     atom   11 type  2   force =     0.00929342    0.01349871   -0.00745033
     atom   12 type  2   force =    -0.00929342   -0.01349871    0.00745033
     atom   13 type  1   force =    -0.01138518    0.00704103   -0.04739849
     atom   14 type  1   force =     0.01138518   -0.00704103    0.04739849
     atom   15 type  1   force =    -0.00040512   -0.01338037   -0.04739849
     atom   16 type  1   force =     0.00040512    0.01338037    0.04739849
     atom   17 type  1   force =     0.01179030    0.00633934   -0.04739849
     atom   18 type  1   force =    -0.01179030   -0.00633934    0.04739849
     atom   19 type  1   force =     0.02504168   -0.02892491    0.01865029
     atom   20 type  1   force =    -0.02504168    0.02892491   -0.01865029
     atom   21 type  1   force =     0.01252887    0.03614918    0.01865029
     atom   22 type  1   force =    -0.01252887   -0.03614918   -0.01865029
     atom   23 type  1   force =    -0.03757054   -0.00722427    0.01865029
     atom   24 type  1   force =     0.03757054    0.00722427   -0.01865029
     atom   25 type  1   force =    -0.00652357    0.00919575    0.01119858
     atom   26 type  1   force =     0.00652357   -0.00919575   -0.01119858
     atom   27 type  1   force =    -0.00470197   -0.01024745    0.01119858
     atom   28 type  1   force =     0.00470197    0.01024745   -0.01119858
     atom   29 type  1   force =     0.01122554    0.00105170    0.01119858
     atom   30 type  1   force =    -0.01122554   -0.00105170   -0.01119858
     atom   31 type  1   force =    -0.00435559   -0.02305626   -0.00184154
     atom   32 type  1   force =     0.00435559    0.02305626    0.00184154
     atom   33 type  1   force =     0.02214510    0.00775608   -0.00184154
     atom   34 type  1   force =    -0.02214510   -0.00775608    0.00184154
     atom   35 type  1   force =    -0.01778951    0.01530018   -0.00184154
     atom   36 type  1   force =     0.01778951   -0.01530018    0.00184154

     Total force =     0.190597     Total SCF correction =     0.000255


     Computing stress (Cartesian axis) and pressure

          total   stress  (Ry/bohr**3)                   (kbar)     P=       39.48
   0.00022911  -0.00000000  -0.00000000           33.70       -0.00       -0.00
   0.00000000   0.00022911   0.00000000            0.00       33.70        0.00
  -0.00000000   0.00000000   0.00034687           -0.00        0.00       51.03

     Energy error            =      6.4E-02 Ry
     Gradient error          =      4.7E-02 Ry/Bohr

     number of scf cycles    =   2
     number of bfgs steps    =   1

     energy             old  =    -417.9193749208 Ry
     energy             new  =    -417.9834877721 Ry

     CASE: energy            _new < energy            _old

     new trust radius        =       0.0771144261 bohr
     new conv_thr            =       0.0000000474 Ry


ATOMIC_POSITIONS (crystal)
O                0.2730123107        0.0296377064        0.8568779884
O                0.7269876893        0.9703623046        0.1431219816
O                0.8568779884        0.2730123107        0.0296377064
O                0.1431219816        0.7269876893        0.9703623046
O                0.0296377064        0.8568779884        0.2730123107
O                0.9703623046        0.1431219816        0.7269876893
O                0.4753571236        0.7490907420        0.3313310129
O                0.5246428764        0.2509092580        0.6686689571
O                0.3313310129        0.4753571236        0.7490907420
O                0.6686689571        0.5246428764        0.2509092580
O                0.7490907420        0.3313310129        0.4753571236
O                0.2509092580        0.6686689571        0.5246428764
H                0.1512856242        0.0573150507        0.7985734100
H                0.8487143618        0.9426849413        0.2014265900
H                0.7985734100        0.1512856242        0.0573150507
H                0.2014265900        0.8487143618        0.9426849413
H                0.0573150507        0.7985734100        0.1512856242
H                0.9426849413        0.2014265900        0.8487143618
H                0.4251305345        0.2078953037        1.0031575982
H                0.5748694655        0.7921047113       -0.0031576192
H                1.0031575982        0.4251305345        0.2078953037
H               -0.0031576192        0.5748694655        0.7921047113
H                0.2078953037        1.0031575982        0.4251305345
H                0.7921047113       -0.0031576192        0.5748694655
H                0.7196282909        0.4059557998        0.3968181056
H                0.2803717091        0.5940441702        0.6031819244
H                0.3968181056        0.7196282909        0.4059557998
H                0.6031819244        0.2803717091        0.5940441702
H                0.4059557998        0.3968181056        0.7196282909
H                0.5940441702        0.6031819244        0.2803717091
H                0.7416281996        0.1992137156        0.3615838141
H                0.2583718004        0.8007862694        0.6384161859
H                0.3615838141        0.7416281996        0.1992137156
H                0.6384161859        0.2583718004        0.8007862694
H                0.1992137156        0.3615838141        0.7416281996
H                0.8007862694        0.6384161859        0.2583718004



     Writing config-only to output data dir ./iceII/iceII.save/ :
     XML data file
     NEW-OLD atomic charge density approx. for the potential

     total cpu time spent up to now is       25.2 secs

     per-process dynamical memory:    21.2 Mb

     Self-consistent Calculation

     iteration #  1     ecut=    90.00 Ry     beta= 0.70
     Davidson diagonalization with overlap
     ethr =  1.00E-06,  avg # of iterations =  7.0

     total cpu time spent up to now is       26.9 secs

     total energy              =    -418.02522688 Ry
     estimated scf accuracy    <       0.00212043 Ry

     iteration #  2     ecut=    90.00 Ry     beta= 0.70
     Davidson diagonalization with overlap
     ethr =  2.21E-06,  avg # of iterations =  2.0

     total cpu time spent up to now is       27.7 secs

     total energy              =    -418.02556127 Ry
     estimated scf accuracy    <       0.00015052 Ry

     iteration #  3     ecut=    90.00 Ry     beta= 0.70
     Davidson diagonalization with overlap
     ethr =  1.57E-07,  avg # of iterations =  2.0

     total cpu time spent up to now is       28.6 secs

     total energy              =    -418.02558573 Ry
     estimated scf accuracy    <       0.00001346 Ry

     iteration #  4     ecut=    90.00 Ry     beta= 0.70
     Davidson diagonalization with overlap
     ethr =  1.40E-08,  avg # of iterations =  2.1

     total cpu time spent up to now is       29.5 secs

     total energy              =    -418.02558857 Ry
     estimated scf accuracy    <       0.00000130 Ry

     iteration #  5     ecut=    90.00 Ry     beta= 0.70
     Davidson diagonalization with overlap
     ethr =  1.36E-09,  avg # of iterations =  2.3

     total cpu time spent up to now is       30.5 secs

     total energy              =    -418.02558888 Ry
     estimated scf accuracy    <       0.00000005 Ry

     iteration #  6     ecut=    90.00 Ry     beta= 0.70
     Davidson diagonalization with overlap
     ethr =  5.24E-11,  avg # of iterations =  3.4

     total cpu time spent up to now is       31.5 secs

     End of self-consistent calculation

          k = 0.0000 0.0000 0.0000 ( 27251 PWs)   bands (ev):

   -21.0308 -20.4764 -20.4764 -20.2092 -20.2092 -20.1815 -20.1815 -20.1622
   -20.1519 -19.7917 -19.7917 -19.4272  -8.5347  -8.3284  -8.3284  -8.3049
    -8.1860  -8.1860  -7.7835  -7.7609  -7.7609  -7.6883  -7.6883  -7.5154
    -7.0833  -5.7582  -5.7582  -5.1412  -5.1412  -5.0160  -5.0160  -4.6654
    -4.5962  -3.8643  -3.8643  -3.1336  -2.7744  -2.7744  -2.7006  -2.5416
    -2.5387  -2.5387  -2.3783  -2.3783  -2.3543  -2.2884  -2.2438  -2.2438

          k =-0.1498-0.0865 0.3111 ( 27267 PWs)   bands (ev):

   -20.9428 -20.5206 -20.4630 -20.3827 -20.3523 -20.2672 -20.0979 -20.0444
   -19.9782 -19.8021 -19.7525 -19.4973  -8.4804  -8.3902  -8.3360  -8.2746
    -8.1781  -8.1196  -7.8663  -7.7952  -7.7140  -7.6472  -7.5839  -7.5508
    -6.8280  -5.9539  -5.7900  -5.4955  -5.2638  -4.9181  -4.8304  -4.5891
    -4.4899  -3.8561  -3.7735  -3.2930  -2.8991  -2.8266  -2.7115  -2.6333
    -2.5881  -2.5213  -2.4677  -2.3956  -2.3268  -2.2914  -2.2481  -2.2006

          k = 0.2996 0.1730-0.6221 ( 27278 PWs)   bands (ev):

   -20.7317 -20.6909 -20.5031 -20.4693 -20.3656 -20.3408 -20.0384 -20.0091
   -19.8363 -19.7911 -19.6806 -19.6554  -8.4142  -8.4022  -8.3300  -8.2872
    -8.1884  -8.1072  -7.8537  -7.8016  -7.7043  -7.6896  -7.5006  -7.4867
    -6.3964  -6.2620  -5.8358  -5.7927  -5.2316  -5.1547  -4.6780  -4.5429
    -4.0364  -4.0215  -3.7155  -3.5270  -2.9976  -2.8605  -2.7395  -2.6786
    -2.6213  -2.5822  -2.4795  -2.4273  -2.3993  -2.2640  -2.2128  -2.1582

          k =-0.1498 0.0865 0.6221 ( 27260 PWs)   bands (ev):

   -20.7655 -20.5959 -20.5769 -20.4372 -20.4085 -20.3338 -20.0383 -19.9409
   -19.8980 -19.7599 -19.7339 -19.6238  -8.4231  -8.3759  -8.3639  -8.2740
    -8.1868  -8.0939  -7.8386  -7.8274  -7.7736  -7.5775  -7.5380  -7.4942
    -6.4237  -6.1391  -6.0668  -5.5624  -5.3531  -5.1775  -4.6375  -4.4186
    -4.2808  -3.8352  -3.7642  -3.5437  -2.9776  -2.8993  -2.7288  -2.6450
    -2.6165  -2.5668  -2.5214  -2.4146  -2.3980  -2.2716  -2.2236  -2.1472

          k = 0.2996 0.3460-0.3111 ( 27273 PWs)   bands (ev):

   -20.8274 -20.6329 -20.5318 -20.4566 -20.3639 -20.2925 -20.0462 -19.9397
   -19.8684 -19.8247 -19.7181 -19.5976  -8.4396  -8.4205  -8.2892  -8.2791
    -8.2129  -8.1110  -7.9504  -7.9111  -7.7982  -7.5572  -7.5295  -7.4689
    -6.5210  -6.1295  -5.8561  -5.6084  -5.5607  -4.9625  -4.5476  -4.4248
    -4.2391  -3.9498  -3.7465  -3.4769  -2.8867  -2.8354  -2.7394  -2.6746
    -2.5848  -2.5031  -2.4844  -2.4531  -2.3652  -2.3167  -2.2174  -2.1188

          k = 0.1498 0.2595 0.0000 ( 27300 PWs)   bands (ev):

   -20.9673 -20.5717 -20.5027 -20.3376 -20.3042 -20.2088 -20.1218 -20.0381
   -19.9838 -19.8064 -19.7624 -19.4836  -8.5079  -8.3853  -8.3292  -8.2588
    -8.1667  -8.1629  -7.9941  -7.8690  -7.7414  -7.6487  -7.5718  -7.4992
    -6.8648  -5.8512  -5.7481  -5.5305  -5.4394  -4.8531  -4.6615  -4.5345
    -4.4376  -3.9171  -3.8520  -3.2102  -2.7830  -2.7540  -2.7441  -2.6390
    -2.5652  -2.5326  -2.4075  -2.3794  -2.3675  -2.3218  -2.2012  -2.1812

          k = 0.2996-0.1730-1.2442 ( 27246 PWs)   bands (ev):

   -20.8139 -20.7697 -20.5242 -20.3930 -20.3080 -20.2297 -20.0568 -20.0134
   -19.8749 -19.8471 -19.6409 -19.6157  -8.4688  -8.4180  -8.3074  -8.2654
    -8.1479  -8.1478  -8.0736  -7.9669  -7.7658  -7.6429  -7.5204  -7.4725
    -6.3529  -6.3497  -5.8015  -5.7230  -5.3226  -4.9812  -4.4918  -4.3490
    -4.1893  -4.1354  -3.6554  -3.4595  -2.8163  -2.7525  -2.7189  -2.6927
    -2.5857  -2.4768  -2.4713  -2.4091  -2.3950  -2.3269  -2.1530  -2.1506

          k = 0.0000 0.0000 0.9332 ( 27252 PWs)   bands (ev):

   -20.6957 -20.6957 -20.6250 -20.5217 -20.3202 -20.3202 -19.9539 -19.9539
   -19.8084 -19.7474 -19.7288 -19.7288  -8.4158  -8.4158  -8.3003  -8.2630
    -8.1979  -8.1979  -7.9646  -7.8796  -7.8796  -7.4842  -7.4842  -7.4448
    -6.2580  -6.2580  -6.1380  -5.7072  -5.2690  -5.2690  -4.3108  -4.2542
    -4.2542  -3.8284  -3.8284  -3.7332  -2.8358  -2.8358  -2.7154  -2.6597
    -2.5475  -2.5475  -2.4795  -2.4408  -2.4408  -2.2787  -2.2787  -2.0890

          k = 0.4494 0.2595 0.0000 ( 27268 PWs)   bands (ev):

   -20.8494 -20.6503 -20.6435 -20.3935 -20.2433 -20.2209 -20.0781 -20.0583
   -19.8778 -19.7665 -19.7217 -19.5840  -8.4639  -8.4065  -8.3484  -8.2219
    -8.1927  -8.1334  -8.0703  -7.9209  -7.8403  -7.5792  -7.5187  -7.4976
    -6.5102  -6.0408  -5.9972  -5.7041  -5.2914  -4.9634  -4.5007  -4.4795
    -4.1775  -3.9227  -3.8043  -3.4240  -2.7938  -2.7730  -2.7165  -2.6989
    -2.5861  -2.5081  -2.4555  -2.4231  -2.3528  -2.2959  -2.2237  -2.1203

          k = 0.2996 0.1730 0.3111 ( 27287 PWs)   bands (ev):

   -20.8832 -20.5786 -20.4815 -20.4528 -20.3467 -20.2848 -20.0579 -20.0232
   -19.9329 -19.7949 -19.7220 -19.5411  -8.4615  -8.4029  -8.3416  -8.2330
    -8.2108  -8.0685  -7.9827  -7.7983  -7.7320  -7.6884  -7.5730  -7.5176
    -6.6373  -5.9470  -5.8193  -5.5829  -5.4920  -4.9596  -4.6769  -4.4813
    -4.3647  -3.8798  -3.7725  -3.3245  -2.9058  -2.8467  -2.7691  -2.6912
    -2.5941  -2.5487  -2.4524  -2.4169  -2.3273  -2.2796  -2.1993  -2.1741

          k = 0.4494-0.2595-0.9332 ( 27253 PWs)   bands (ev):

   -20.7293 -20.7223 -20.5621 -20.4763 -20.3354 -20.2507 -20.1014 -19.9994
   -19.8343 -19.7725 -19.7110 -19.6041  -8.4425  -8.4007  -8.3499  -8.2291
    -8.1901  -8.0745  -8.0218  -7.8582  -7.7467  -7.7025  -7.5474  -7.5108
    -6.2761  -6.1734  -5.8360  -5.7782  -5.4434  -4.9973  -4.7117  -4.4114
    -4.0634  -3.9213  -3.8101  -3.4016  -2.8996  -2.8681  -2.8213  -2.6980
    -2.6532  -2.5919  -2.4051  -2.3757  -2.3463  -2.2913  -2.2024  -2.1250

          k = 0.2996-0.3460-0.6221 ( 27248 PWs)   bands (ev):

   -20.6898 -20.6454 -20.5399 -20.5261 -20.3795 -20.3679 -20.0125 -19.9978
   -19.8224 -19.8087 -19.6873 -19.6336  -8.4534  -8.3429  -8.3100  -8.2781
    -8.2399  -8.0367  -7.8923  -7.8752  -7.6810  -7.6714  -7.5423  -7.5345
    -6.2162  -6.1437  -5.8827  -5.8366  -5.3578  -5.3104  -4.5170  -4.4417
    -4.0822  -4.0386  -3.7586  -3.4431  -3.0108  -2.8832  -2.8226  -2.7341
    -2.6651  -2.5384  -2.4590  -2.4172  -2.3871  -2.2515  -2.2208  -2.1084

          k = 0.0000 0.0000-1.8663 ( 27264 PWs)   bands (ev):

   -20.6380 -20.5823 -20.5373 -20.5373 -20.4646 -20.4646 -19.9155 -19.9155
   -19.8832 -19.8832 -19.6782 -19.6102  -8.4742  -8.2810  -8.2810  -8.2773
    -8.2773  -8.0160  -7.9248  -7.9187  -7.6247  -7.6247  -7.6202  -7.6202
    -6.0890  -6.0245  -5.7158  -5.7158  -5.6360  -5.6360  -4.2807  -4.2807
    -4.1832  -4.1832  -3.7356  -3.3849  -3.0084  -2.8869  -2.8869  -2.7844
    -2.7844  -2.4824  -2.4666  -2.3410  -2.3410  -2.2668  -2.2668  -2.0666

          k = 0.2996-0.3460 0.3111 ( 27273 PWs)   bands (ev):

   -20.8266 -20.6413 -20.5051 -20.4768 -20.3619 -20.2949 -20.0401 -19.9299
   -19.9054 -19.7926 -19.7272 -19.5979  -8.4529  -8.3956  -8.3144  -8.2578
    -8.2057  -8.1261  -7.9942  -7.8687  -7.7888  -7.5647  -7.5230  -7.4771
    -6.5247  -6.0821  -5.9457  -5.6094  -5.4555  -5.0302  -4.6691  -4.2878
    -4.1464  -3.9868  -3.8472  -3.4359  -2.8962  -2.8072  -2.7488  -2.6734
    -2.5884  -2.5226  -2.4747  -2.4559  -2.3880  -2.2769  -2.2214  -2.1268

     highest occupied level (ev):    -2.0666

!    total energy              =    -418.02558889 Ry
     estimated scf accuracy    <          7.6E-09 Ry

     The total energy is the sum of the following terms:
     one-electron contribution =    -279.21823903 Ry
     hartree contribution      =     176.16444469 Ry
     xc contribution           =    -106.24213925 Ry
     ewald contribution        =    -208.72965531 Ry

     convergence has been achieved in   6 iterations

     Forces acting on atoms (cartesian axes, Ry/au):

     atom    1 type  2   force =    -0.00621448    0.00892287    0.00123813
     atom    2 type  2   force =     0.00621448   -0.00892287   -0.00123813
     atom    3 type  2   force =    -0.00462019   -0.00984334    0.00123813
     atom    4 type  2   force =     0.00462019    0.00984334   -0.00123813
     atom    5 type  2   force =     0.01083467    0.00092047    0.00123813
     atom    6 type  2   force =    -0.01083467   -0.00092047   -0.00123813
     atom    7 type  2   force =    -0.00111685    0.00548056   -0.00882693
     atom    8 type  2   force =     0.00111685   -0.00548056    0.00882693
     atom    9 type  2   force =    -0.00418787   -0.00370750   -0.00882693
     atom   10 type  2   force =     0.00418787    0.00370750    0.00882693
     atom   11 type  2   force =     0.00530473   -0.00177306   -0.00882693
     atom   12 type  2   force =    -0.00530473    0.00177306    0.00882693
     atom   13 type  1   force =    -0.00546902   -0.00223255   -0.02257880
     atom   14 type  1   force =     0.00546902    0.00223255    0.02257880
     atom   15 type  1   force =     0.00466796   -0.00362003   -0.02257880
     atom   16 type  1   force =    -0.00466796    0.00362003    0.02257880
     atom   17 type  1   force =     0.00080106    0.00585258   -0.02257880
     atom   18 type  1   force =    -0.00080106   -0.00585258    0.02257880
     atom   19 type  1   force =     0.01660015   -0.01113393    0.01269356
     atom   20 type  1   force =    -0.01660015    0.01113393   -0.01269356
     atom   21 type  1   force =     0.00134219    0.01994311    0.01269356
     atom   22 type  1   force =    -0.00134219   -0.01994311   -0.01269356
     atom   23 type  1   force =    -0.01794234   -0.00880919    0.01269356
     atom   24 type  1   force =     0.01794234    0.00880919   -0.01269356
     atom   25 type  1   force =     0.00114096    0.01022849    0.00724956
     atom   26 type  1   force =    -0.00114096   -0.01022849   -0.00724956
     atom   27 type  1   force =    -0.00942861   -0.00412615    0.00724956
     atom   28 type  1   force =     0.00942861    0.00412615   -0.00724956
     atom   29 type  1   force =     0.00828765   -0.00610234    0.00724956
     atom   30 type  1   force =    -0.00828765    0.00610234   -0.00724956
     atom   31 type  1   force =    -0.00604524   -0.01006813    0.00110755
     atom   32 type  1   force =     0.00604524    0.01006813   -0.00110755
     atom   33 type  1   force =     0.01174188   -0.00020126    0.00110755
     atom   34 type  1   force =    -0.01174188    0.00020126   -0.00110755
     atom   35 type  1   force =    -0.00569664    0.01026940    0.00110755
     atom   36 type  1   force =     0.00569664   -0.01026940   -0.00110755

     Total force =     0.098953     Total SCF correction =     0.000143


     Computing stress (Cartesian axis) and pressure

          total   stress  (Ry/bohr**3)                   (kbar)     P=       32.49
   0.00018546   0.00000000  -0.00000000           27.28        0.00       -0.00
  -0.00000000   0.00018546   0.00000000           -0.00       27.28        0.00
   0.00000000   0.00000000   0.00029173            0.00        0.00       42.91

     Energy error            =      4.2E-02 Ry
     Gradient error          =      2.3E-02 Ry/Bohr

     number of scf cycles    =   3
     number of bfgs steps    =   2

     energy             old  =    -417.9834877721 Ry
     energy             new  =    -418.0255888931 Ry

     CASE: energy            _new < energy            _old

     new trust radius        =       0.0797480170 bohr
     new conv_thr            =       0.0000000226 Ry


ATOMIC_POSITIONS (crystal)
O                0.2726713167        0.0322580388        0.8581413665
O                0.7273286833        0.9677419722        0.1418586035
O                0.8581413665        0.2726713167        0.0322580388
O                0.1418586035        0.7273286833        0.9677419722
O                0.0322580388        0.8581413665        0.2726713167
O                0.9677419722        0.1418586035        0.7273286833
O                0.4726962822        0.7477871351        0.3296243880
O                0.5273037178        0.2522128649        0.6703755820
O                0.3296243880        0.4726962822        0.7477871351
O                0.6703755820        0.5273037178        0.2522128649
O                0.7477871351        0.3296243880        0.4726962822
O                0.2522128649        0.6703755820        0.5273037178
H                0.1437752455        0.0505546200        0.7925768147
H                0.8562247405        0.9494453720        0.2074231853
H                0.7925768147        0.1437752455        0.0505546200
H                0.2074231853        0.8562247405        0.9494453720
H                0.0505546200        0.7925768147        0.1437752455
H                0.9494453720        0.2074231853        0.8562247405
H                0.4317589799        0.2093722331        1.0056239982
H                0.5682410201        0.7906277819       -0.0056240192
H                1.0056239982        0.4317589799        0.2093722331
H               -0.0056240192        0.5682410201        0.7906277819
H                0.2093722331        1.0056239982        0.4317589799
H                0.7906277819       -0.0056240192        0.5682410201
H                0.7207206912        0.4092195473        0.3980772810
H                0.2792793088        0.5907804227        0.6019227490
H                0.3980772810        0.7207206912        0.4092195473
H                0.6019227490        0.2792793088        0.5907804227
H                0.4092195473        0.3980772810        0.7207206912
H                0.5907804227        0.6019227490        0.2792793088
H                0.7419488991        0.1975415272        0.3631282753
H                0.2580511009        0.8024584578        0.6368717247
H                0.3631282753        0.7419488991        0.1975415272
H                0.6368717247        0.2580511009        0.8024584578
H                0.1975415272        0.3631282753        0.7419488991
H                0.8024584578        0.6368717247        0.2580511009



     Writing config-only to output data dir ./iceII/iceII.save/ :
     XML data file
     NEW-OLD atomic charge density approx. for the potential

     total cpu time spent up to now is       32.8 secs

     per-process dynamical memory:    21.2 Mb

     Self-consistent Calculation

     iteration #  1     ecut=    90.00 Ry     beta= 0.70
     Davidson diagonalization with overlap
     ethr =  1.00E-06,  avg # of iterations =  7.0

     total cpu time spent up to now is       34.5 secs

     total energy              =    -418.04053781 Ry
     estimated scf accuracy    <       0.00205509 Ry

     iteration #  2     ecut=    90.00 Ry     beta= 0.70
     Davidson diagonalization with overlap
     ethr =  2.14E-06,  avg # of iterations =  2.0

     total cpu time spent up to now is       35.3 secs

     total energy              =    -418.04084307 Ry
     estimated scf accuracy    <       0.00012986 Ry

     iteration #  3     ecut=    90.00 Ry     beta= 0.70
     Davidson diagonalization with overlap
     ethr =  1.35E-07,  avg # of iterations =  2.0

     total cpu time spent up to now is       36.1 secs

     total energy              =    -418.04086178 Ry
     estimated scf accuracy    <       0.00000747 Ry

     iteration #  4     ecut=    90.00 Ry     beta= 0.70
     Davidson diagonalization with overlap
     ethr =  7.78E-09,  avg # of iterations =  3.1

     total cpu time spent up to now is       37.1 secs

     total energy              =    -418.04086401 Ry
     estimated scf accuracy    <       0.00000094 Ry

     iteration #  5     ecut=    90.00 Ry     beta= 0.70
     Davidson diagonalization with overlap
     ethr =  9.75E-10,  avg # of iterations =  3.0

     total cpu time spent up to now is       38.1 secs

     total energy              =    -418.04086430 Ry
     estimated scf accuracy    <       0.00000009 Ry

     iteration #  6     ecut=    90.00 Ry     beta= 0.70
     Davidson diagonalization with overlap
     ethr =  9.41E-11,  avg # of iterations =  2.6

     total cpu time spent up to now is       39.0 secs

     End of self-consistent calculation

          k = 0.0000 0.0000 0.0000 ( 27251 PWs)   bands (ev):

   -20.9476 -20.4028 -20.4028 -20.1011 -20.1011 -20.0846 -20.0846 -20.0589
   -20.0557 -19.6648 -19.6648 -19.3136  -8.6367  -8.4387  -8.4387  -8.3936
    -8.3183  -8.3183  -7.9374  -7.9012  -7.9012  -7.8527  -7.8527  -7.7008
    -6.9062  -5.5803  -5.5803  -5.0239  -5.0239  -4.8038  -4.8038  -4.4944
    -4.4643  -3.7147  -3.7147  -2.9997  -2.7568  -2.7568  -2.6815  -2.5143
    -2.5143  -2.4919  -2.3551  -2.3347  -2.3347  -2.2203  -2.2118  -2.2118

          k =-0.1498-0.0865 0.3111 ( 27267 PWs)   bands (ev):

   -20.8615 -20.4467 -20.4076 -20.2661 -20.2232 -20.1628 -20.0092 -19.9512
   -19.8885 -19.6723 -19.6260 -19.3791  -8.5853  -8.4917  -8.4410  -8.3747
    -8.3092  -8.2494  -7.9958  -7.9493  -7.8751  -7.7914  -7.7663  -7.7212
    -6.6617  -5.7872  -5.6186  -5.3285  -5.1504  -4.7880  -4.5969  -4.4484
    -4.2830  -3.7159  -3.6273  -3.1603  -2.8626  -2.8043  -2.6931  -2.6043
    -2.5691  -2.4987  -2.4165  -2.3459  -2.3103  -2.2489  -2.2133  -2.1744

          k = 0.2996 0.1730-0.6221 ( 27278 PWs)   bands (ev):

   -20.6770 -20.5900 -20.4432 -20.3434 -20.2645 -20.2129 -19.9725 -19.9025
   -19.7616 -19.6557 -19.5816 -19.5013  -8.5143  -8.5120  -8.4264  -8.4018
    -8.3097  -8.2246  -7.9906  -7.9473  -7.8739  -7.8465  -7.6811  -7.6575
    -6.1998  -6.1141  -5.6778  -5.6436  -5.0963  -5.0456  -4.4297  -4.3370
    -3.8801  -3.8638  -3.5816  -3.4215  -2.9303  -2.8414  -2.7232  -2.6484
    -2.6052  -2.5153  -2.4495  -2.4286  -2.3514  -2.2464  -2.1616  -2.1380

          k =-0.1498 0.0865 0.6221 ( 27260 PWs)   bands (ev):

   -20.6972 -20.5199 -20.4912 -20.3373 -20.2837 -20.2216 -19.9528 -19.8663
   -19.7954 -19.6431 -19.6125 -19.4852  -8.5248  -8.4783  -8.4718  -8.3829
    -8.3069  -8.2137  -7.9851  -7.9631  -7.9301  -7.7468  -7.7122  -7.6705
    -6.2455  -5.9682  -5.9115  -5.4147  -5.2252  -5.0451  -4.4252  -4.1916
    -4.1044  -3.7095  -3.6285  -3.4284  -2.9209  -2.8666  -2.7189  -2.6249
    -2.5613  -2.5448  -2.4835  -2.3880  -2.3722  -2.2488  -2.1804  -2.1201

          k = 0.2996 0.3460-0.3111 ( 27273 PWs)   bands (ev):

   -20.7475 -20.5557 -20.4717 -20.3339 -20.2455 -20.1903 -19.9587 -19.8652
   -19.7575 -19.7096 -19.5861 -19.4713  -8.5419  -8.5208  -8.4041  -8.3812
    -8.3300  -8.2207  -8.1019  -8.0538  -7.9517  -7.7329  -7.7013  -7.6458
    -6.3456  -5.9415  -5.6975  -5.4907  -5.3911  -4.8188  -4.3213  -4.2383
    -4.1152  -3.8032  -3.5952  -3.3411  -2.8420  -2.8117  -2.7217  -2.6481
    -2.5536  -2.4688  -2.4514  -2.4259  -2.3482  -2.2914  -2.1650  -2.0882

          k = 0.1498 0.2595 0.0000 ( 27300 PWs)   bands (ev):

   -20.8840 -20.4956 -20.4273 -20.2431 -20.1940 -20.0952 -20.0330 -19.9367
   -19.8918 -19.6805 -19.6317 -19.3682  -8.6075  -8.4828  -8.4424  -8.3645
    -8.2957  -8.2877  -8.1236  -8.0089  -7.9092  -7.8032  -7.7431  -7.6818
    -6.6889  -5.6515  -5.6093  -5.3681  -5.2879  -4.6826  -4.4938  -4.3486
    -4.3075  -3.7606  -3.7054  -3.0608  -2.7627  -2.7357  -2.7295  -2.6142
    -2.5332  -2.4878  -2.3858  -2.3667  -2.3367  -2.2647  -2.1634  -2.1424

          k = 0.2996-0.1730-1.2442 ( 27246 PWs)   bands (ev):

   -20.7290 -20.6904 -20.4481 -20.2982 -20.2040 -20.1146 -19.9784 -19.9079
   -19.7824 -19.7130 -19.5281 -19.4857  -8.5617  -8.5176  -8.4263  -8.3716
    -8.2736  -8.2579  -8.2141  -8.1002  -7.9367  -7.7918  -7.7015  -7.6506
    -6.1771  -6.1735  -5.6305  -5.5936  -5.1534  -4.8074  -4.3135  -4.2267
    -4.0336  -3.9561  -3.5188  -3.2996  -2.7902  -2.7336  -2.7014  -2.6696
    -2.5517  -2.4378  -2.4364  -2.3995  -2.3641  -2.2906  -2.1131  -2.1099

          k = 0.0000 0.0000 0.9332 ( 27252 PWs)   bands (ev):

   -20.6118 -20.6118 -20.5834 -20.3692 -20.2239 -20.2239 -19.8535 -19.8535
   -19.7749 -19.6076 -19.6076 -19.5720  -8.5173  -8.5173  -8.4268  -8.3648
    -8.3051  -8.3051  -8.1216  -8.0256  -8.0256  -7.6635  -7.6635  -7.6211
    -6.0804  -6.0804  -5.8889  -5.6477  -5.1233  -5.1233  -4.0877  -4.0877
    -4.0591  -3.6883  -3.6883  -3.6137  -2.8035  -2.8035  -2.6827  -2.6616
    -2.5068  -2.5068  -2.4349  -2.4332  -2.4332  -2.2344  -2.2344  -2.0556

          k = 0.4494 0.2595 0.0000 ( 27268 PWs)   bands (ev):

   -20.7661 -20.5683 -20.5670 -20.2787 -20.1727 -20.1148 -19.9792 -19.9341
   -19.7989 -19.6468 -19.5913 -19.4621  -8.5598  -8.5001  -8.4628  -8.3325
    -8.3175  -8.2522  -8.2018  -8.0619  -7.9985  -7.7433  -7.6936  -7.6771
    -6.3347  -5.8497  -5.8269  -5.5915  -5.1169  -4.7846  -4.3641  -4.3200
    -3.9999  -3.7683  -3.6599  -3.2694  -2.7668  -2.7469  -2.7079  -2.6750
    -2.5541  -2.4731  -2.4337  -2.3943  -2.3160  -2.2641  -2.1926  -2.0738

          k = 0.2996 0.1730 0.3111 ( 27287 PWs)   bands (ev):

   -20.8023 -20.5047 -20.4235 -20.3377 -20.2296 -20.1667 -19.9781 -19.9412
   -19.8057 -19.6956 -19.5901 -19.4179  -8.5635  -8.5014  -8.4412  -8.3414
    -8.3343  -8.1961  -8.1173  -7.9370  -7.8831  -7.8617  -7.7474  -7.6908
    -6.4750  -5.8019  -5.6701  -5.3821  -5.3385  -4.8030  -4.4617  -4.3328
    -4.2239  -3.7352  -3.6266  -3.1804  -2.8651  -2.8201  -2.7457  -2.6528
    -2.5721  -2.5153  -2.4111  -2.3921  -2.3164  -2.2523  -2.1765  -2.1186

          k = 0.4494-0.2595-0.9332 ( 27253 PWs)   bands (ev):

   -20.6495 -20.6455 -20.4884 -20.3621 -20.2340 -20.1428 -20.0086 -19.9006
   -19.7081 -19.6945 -19.5951 -19.4626  -8.5361  -8.5016  -8.4489  -8.3438
    -8.3031  -8.2091  -8.1367  -8.0141  -7.9090  -7.8570  -7.7260  -7.6873
    -6.1412  -5.9963  -5.6987  -5.6176  -5.2387  -4.7892  -4.5597  -4.2805
    -3.9157  -3.7735  -3.6701  -3.2455  -2.8545  -2.8322  -2.7886  -2.6589
    -2.6161  -2.5719  -2.3883  -2.3463  -2.3381  -2.2709  -2.1735  -2.0688

          k = 0.2996-0.3460-0.6221 ( 27248 PWs)   bands (ev):

   -20.6385 -20.5474 -20.4743 -20.4118 -20.2679 -20.2425 -19.9411 -19.9024
   -19.7128 -19.6769 -19.6187 -19.4705  -8.5460  -8.4483  -8.4113  -8.3907
    -8.3543  -8.1518  -8.0403  -8.0039  -7.8537  -7.8343  -7.7209  -7.7093
    -6.0592  -6.0082  -5.7277  -5.6646  -5.1871  -5.1339  -4.3280  -4.2508
    -3.9386  -3.9079  -3.6252  -3.3275  -2.9249  -2.8530  -2.7944  -2.6935
    -2.6132  -2.5337  -2.4194  -2.3982  -2.3731  -2.2360  -2.1999  -2.0568

          k = 0.0000 0.0000-1.8663 ( 27264 PWs)   bands (ev):

   -20.5903 -20.4891 -20.4891 -20.4361 -20.3296 -20.3296 -19.8558 -19.8558
   -19.7268 -19.7268 -19.6303 -19.4443  -8.5569  -8.3950  -8.3950  -8.3784
    -8.3784  -8.1175  -8.0839  -8.0386  -7.8064  -7.8064  -7.7905  -7.7905
    -6.0427  -5.8393  -5.5703  -5.5703  -5.3961  -5.3961  -4.0824  -4.0824
    -4.0810  -4.0810  -3.6191  -3.2676  -2.8793  -2.8549  -2.8549  -2.7415
    -2.7415  -2.4960  -2.4225  -2.3311  -2.3311  -2.2477  -2.2477  -2.0094

          k = 0.2996-0.3460 0.3111 ( 27273 PWs)   bands (ev):

   -20.7459 -20.5712 -20.4448 -20.3443 -20.2501 -20.1940 -19.9367 -19.8745
   -19.7924 -19.6642 -19.6055 -19.4694  -8.5524  -8.4988  -8.4217  -8.3773
    -8.3086  -8.2434  -8.1339  -8.0206  -7.9447  -7.7266  -7.7069  -7.6515
    -6.3474  -5.9413  -5.7278  -5.4493  -5.3544  -4.8837  -4.4430  -4.1092
    -3.9989  -3.8357  -3.7126  -3.2965  -2.8523  -2.7798  -2.7298  -2.6505
    -2.5576  -2.4859  -2.4345  -2.4276  -2.3821  -2.2513  -2.1699  -2.0942

     highest occupied level (ev):    -2.0094

!    total energy              =    -418.04086432 Ry
     estimated scf accuracy    <          4.5E-09 Ry

     The total energy is the sum of the following terms:
     one-electron contribution =    -277.91919985 Ry
     hartree contribution      =     175.60291711 Ry
     xc contribution           =    -106.16889484 Ry
     ewald contribution        =    -209.55568674 Ry

     convergence has been achieved in   6 iterations

     Forces acting on atoms (cartesian axes, Ry/au):

     atom    1 type  2   force =     0.00157816   -0.00317003    0.00432529
     atom    2 type  2   force =    -0.00157816    0.00317003   -0.00432529
     atom    3 type  2   force =     0.00195625    0.00295174    0.00432529
     atom    4 type  2   force =    -0.00195625   -0.00295174   -0.00432529
     atom    5 type  2   force =    -0.00353441    0.00021829    0.00432529
     atom    6 type  2   force =     0.00353441   -0.00021829   -0.00432529
     atom    7 type  2   force =    -0.00436862   -0.01111259   -0.00048150
     atom    8 type  2   force =     0.00436862    0.01111259    0.00048150
     atom    9 type  2   force =     0.01180810    0.00177296   -0.00048150
     atom   10 type  2   force =    -0.01180810   -0.00177296    0.00048150
     atom   11 type  2   force =    -0.00743947    0.00933963   -0.00048150
     atom   12 type  2   force =     0.00743947   -0.00933963    0.00048150
     atom   13 type  1   force =    -0.00330460   -0.00259297   -0.00044866
     atom   14 type  1   force =     0.00330460    0.00259297    0.00044866
     atom   15 type  1   force =     0.00389787   -0.00156538   -0.00044866
     atom   16 type  1   force =    -0.00389787    0.00156538    0.00044866
     atom   17 type  1   force =    -0.00059328    0.00415835   -0.00044866
     atom   18 type  1   force =     0.00059328   -0.00415835    0.00044866
     atom   19 type  1   force =     0.00686544    0.00348427   -0.00911015
     atom   20 type  1   force =    -0.00686544   -0.00348427    0.00911015
     atom   21 type  1   force =    -0.00645019    0.00420351   -0.00911015
     atom   22 type  1   force =     0.00645019   -0.00420351    0.00911015
     atom   23 type  1   force =    -0.00041525   -0.00768778   -0.00911015
     atom   24 type  1   force =     0.00041525    0.00768778    0.00911015
     atom   25 type  1   force =     0.00413239   -0.00472243    0.00383524
     atom   26 type  1   force =    -0.00413239    0.00472243   -0.00383524
     atom   27 type  1   force =     0.00202355    0.00593997    0.00383524
     atom   28 type  1   force =    -0.00202355   -0.00593997   -0.00383524
     atom   29 type  1   force =    -0.00615594   -0.00121754    0.00383524
     atom   30 type  1   force =     0.00615594    0.00121754   -0.00383524
     atom   31 type  1   force =     0.00441312   -0.00617364   -0.00505955
     atom   32 type  1   force =    -0.00441312    0.00617364    0.00505955
     atom   33 type  1   force =     0.00313997    0.00690869   -0.00505955
     atom   34 type  1   force =    -0.00313997   -0.00690869    0.00505955
     atom   35 type  1   force =    -0.00755309   -0.00073505   -0.00505955
     atom   36 type  1   force =     0.00755309    0.00073505    0.00505955

     Total force =     0.053185     Total SCF correction =     0.000099


     Computing stress (Cartesian axis) and pressure

          total   stress  (Ry/bohr**3)                   (kbar)     P=       21.67
   0.00014603   0.00000000   0.00000000           21.48        0.00        0.00
  -0.00000000   0.00014603   0.00000000           -0.00       21.48        0.00
   0.00000000   0.00000000   0.00014983            0.00        0.00       22.04

     Energy error            =      1.5E-02 Ry
     Gradient error          =      1.2E-02 Ry/Bohr

     number of scf cycles    =   4
     number of bfgs steps    =   3

     energy             old  =    -418.0255888931 Ry
     energy             new  =    -418.0408643197 Ry

     CASE: energy            _new < energy            _old

     new trust radius        =       0.0110740441 bohr
     new conv_thr            =       0.0000000118 Ry


ATOMIC_POSITIONS (crystal)
O                0.2730004313        0.0325383817        0.8584785487
O                0.7269995687        0.9674616293        0.1415214213
O                0.8584785487        0.2730004313        0.0325383817
O                0.1415214213        0.7269995687        0.9674616293
O                0.0325383817        0.8584785487        0.2730004313
O                0.9674616293        0.1415214213        0.7269995687
O                0.4726272573        0.7471697354        0.3298483041
O                0.5273727427        0.2528302646        0.6701516659
O                0.3298483041        0.4726272573        0.7471697354
O                0.6701516659        0.5273727427        0.2528302646
O                0.7471697354        0.3298483041        0.4726272573
O                0.2528302646        0.6701516659        0.5273727427
H                0.1432290144        0.0499453385        0.7923686380
H                0.8567709716        0.9500546535        0.2076313620
H                0.7923686380        0.1432290144        0.0499453385
H                0.2076313620        0.8567709716        0.9500546535
H                0.0499453385        0.7923686380        0.1432290144
H                0.9500546535        0.2076313620        0.8567709716
H                0.4317111160        0.2089790443        1.0047530297
H                0.5682888840        0.7910209707       -0.0047530507
H                1.0047530297        0.4317111160        0.2089790443
H               -0.0047530507        0.5682888840        0.7910209707
H                0.2089790443        1.0047530297        0.4317111160
H                0.7910209707       -0.0047530507        0.5682888840
H                0.7213663324        0.4095778493        0.3983587307
H                0.2786336676        0.5904221207        0.6016412993
H                0.3983587307        0.7213663324        0.4095778493
H                0.6016412993        0.2786336676        0.5904221207
H                0.4095778493        0.3983587307        0.7213663324
H                0.5904221207        0.6016412993        0.2786336676
H                0.7418640656        0.1967280117        0.3627671983
H                0.2581359344        0.8032719733        0.6372328017
H                0.3627671983        0.7418640656        0.1967280117
H                0.6372328017        0.2581359344        0.8032719733
H                0.1967280117        0.3627671983        0.7418640656
H                0.8032719733        0.6372328017        0.2581359344



     Writing config-only to output data dir ./iceII/iceII.save/ :
     XML data file
     NEW-OLD atomic charge density approx. for the potential

     total cpu time spent up to now is       40.3 secs

     per-process dynamical memory:    21.2 Mb

     Self-consistent Calculation

     iteration #  1     ecut=    90.00 Ry     beta= 0.70
     Davidson diagonalization with overlap
     ethr =  1.00E-06,  avg # of iterations =  4.0

     total cpu time spent up to now is       41.6 secs

     total energy              =    -418.04219963 Ry
     estimated scf accuracy    <       0.00030920 Ry

     iteration #  2     ecut=    90.00 Ry     beta= 0.70
     Davidson diagonalization with overlap
     ethr =  3.22E-07,  avg # of iterations =  2.0

     total cpu time spent up to now is       42.4 secs

     total energy              =    -418.04225984 Ry
     estimated scf accuracy    <       0.00001591 Ry

     iteration #  3     ecut=    90.00 Ry     beta= 0.70
     Davidson diagonalization with overlap
     ethr =  1.66E-08,  avg # of iterations =  2.0

     total cpu time spent up to now is       43.3 secs

     total energy              =    -418.04226359 Ry
     estimated scf accuracy    <       0.00000147 Ry

     iteration #  4     ecut=    90.00 Ry     beta= 0.70
     Davidson diagonalization with overlap
     ethr =  1.54E-09,  avg # of iterations =  2.1

     total cpu time spent up to now is       44.2 secs

     total energy              =    -418.04226393 Ry
     estimated scf accuracy    <       0.00000018 Ry

     iteration #  5     ecut=    90.00 Ry     beta= 0.70
     Davidson diagonalization with overlap
     ethr =  1.90E-10,  avg # of iterations =  2.4

     total cpu time spent up to now is       45.1 secs

     End of self-consistent calculation

          k = 0.0000 0.0000 0.0000 ( 27251 PWs)   bands (ev):

   -20.9329 -20.3776 -20.3776 -20.0932 -20.0932 -20.0737 -20.0737 -20.0558
   -20.0387 -19.6707 -19.6707 -19.3091  -8.5789  -8.4358  -8.4358  -8.3850
    -8.2696  -8.2696  -7.9518  -7.8996  -7.8996  -7.8892  -7.8892  -7.7526
    -6.8990  -5.5880  -5.5880  -5.0003  -5.0003  -4.7971  -4.7971  -4.4922
    -4.4604  -3.7072  -3.7072  -2.9818  -2.7386  -2.7386  -2.6882  -2.5242
    -2.5242  -2.4898  -2.3599  -2.3599  -2.3594  -2.2121  -2.2042  -2.2042

          k =-0.1498-0.0865 0.3111 ( 27267 PWs)   bands (ev):

[...]
H                0.1392640183        0.0420616139        0.7915636375
H                0.8607359677        0.9579383781        0.2084363625
H                0.7915636375        0.1392640183        0.0420616139
H                0.2084363625        0.8607359677        0.9579383781
H                0.0420616139        0.7915636375        0.1392640183
H                0.9579383781        0.2084363625        0.8607359677
H                0.4312445501        0.2068778648        0.9913790550
H                0.5687554499        0.7931221502        0.0086209240
H                0.9913790550        0.4312445501        0.2068778648
H                0.0086209240        0.5687554499        0.7931221502
H                0.2068778648        0.9913790550        0.4312445501
H                0.7931221502        0.0086209240        0.5687554499
H                0.7280140657        0.4106199154        0.4013873572
H                0.2719859343        0.5893800546        0.5986126728
H                0.4013873572        0.7280140657        0.4106199154
H                0.5986126728        0.2719859343        0.5893800546
H                0.4106199154        0.4013873572        0.7280140657
H                0.5893800546        0.5986126728        0.2719859343
H                0.7373830382        0.1911268350        0.3585144941
H                0.2626169618        0.8088731500        0.6414855059
H                0.3585144941        0.7373830382        0.1911268350
H                0.6414855059        0.2626169618        0.8088731500
H                0.1911268350        0.3585144941        0.7373830382
H                0.8088731500        0.6414855059        0.2626169618



     Writing config-only to output data dir ./iceII/iceII.save/ :
     XML data file
     NEW-OLD atomic charge density approx. for the potential

     total cpu time spent up to now is      121.7 secs

     per-process dynamical memory:    21.2 Mb

     Self-consistent Calculation

     iteration #  1     ecut=    90.00 Ry     beta= 0.70
     Davidson diagonalization with overlap
     ethr =  1.00E-06,  avg # of iterations =  2.0

     Threshold (ethr) on eigenvalues was too large:
     Diagonalizing with lowered threshold

     Davidson diagonalization with overlap
     ethr =  6.58E-09,  avg # of iterations =  3.0

     total cpu time spent up to now is      123.4 secs

     total energy              =    -418.05038472 Ry
     estimated scf accuracy    <       0.00000863 Ry

     iteration #  2     ecut=    90.00 Ry     beta= 0.70
     Davidson diagonalization with overlap
     ethr =  8.99E-09,  avg # of iterations =  2.0

     total cpu time spent up to now is      124.3 secs

     total energy              =    -418.05038602 Ry
     estimated scf accuracy    <       0.00000040 Ry

     iteration #  3     ecut=    90.00 Ry     beta= 0.70
     Davidson diagonalization with overlap
     ethr =  4.20E-10,  avg # of iterations =  2.1

     total cpu time spent up to now is      125.2 secs

     total energy              =    -418.05038611 Ry
     estimated scf accuracy    <       0.00000004 Ry

     iteration #  4     ecut=    90.00 Ry     beta= 0.70
     Davidson diagonalization with overlap
     ethr =  4.65E-11,  avg # of iterations =  2.1

     total cpu time spent up to now is      126.1 secs

     total energy              =    -418.05038612 Ry
     estimated scf accuracy    <          4.1E-09 Ry

     iteration #  5     ecut=    90.00 Ry     beta= 0.70
     Davidson diagonalization with overlap
     ethr =  4.28E-12,  avg # of iterations =  2.1

     total cpu time spent up to now is      127.0 secs

     End of self-consistent calculation

          k = 0.0000 0.0000 0.0000 ( 27251 PWs)   bands (ev):

   -20.9325 -20.3580 -20.3580 -20.1198 -20.1198 -20.0798 -20.0727 -20.0727
   -20.0585 -19.7106 -19.7106 -19.3311  -8.4703  -8.4103  -8.4103  -8.3321
    -8.2424  -8.2424  -7.9234  -7.9204  -7.9204  -7.8985  -7.8457  -7.8457
    -6.8526  -5.6480  -5.6480  -4.9379  -4.9379  -4.7888  -4.7888  -4.5679
    -4.4727  -3.7104  -3.7104  -2.9288  -2.7371  -2.7371  -2.6917  -2.5589
    -2.5589  -2.5137  -2.4322  -2.4322  -2.3519  -2.2388  -2.2087  -2.2087

          k =-0.1498-0.0865 0.3111 ( 27267 PWs)   bands (ev):

   -20.8442 -20.4104 -20.3479 -20.2846 -20.2405 -20.1597 -20.0152 -19.9649
   -19.8875 -19.7148 -19.6646 -19.4017  -8.4271  -8.4142  -8.3896  -8.3227
    -8.2303  -8.1997  -8.0049  -7.9820  -7.9471  -7.8449  -7.7753  -7.7627
    -6.6562  -5.8315  -5.6702  -5.3135  -5.0373  -4.7809  -4.6227  -4.4423
    -4.2913  -3.6998  -3.6350  -3.0927  -2.8312  -2.7592  -2.7117  -2.6465
    -2.6161  -2.5487  -2.4298  -2.4020  -2.3360  -2.2994  -2.2346  -2.2098

          k = 0.2996 0.1730-0.6221 ( 27278 PWs)   bands (ev):

   -20.6187 -20.6078 -20.3901 -20.3683 -20.2361 -20.2308 -19.9581 -19.9524
   -19.7255 -19.7155 -19.5779 -19.5669  -8.4177  -8.3951  -8.3357  -8.3140
    -8.2286  -8.1843  -8.0200  -8.0197  -7.9675  -7.8333  -7.7144  -7.6988
    -6.2675  -6.1359  -5.6794  -5.6285  -5.0404  -4.9621  -4.4816  -4.3759
    -3.8562  -3.8333  -3.6026  -3.3409  -2.9043  -2.8002  -2.7110  -2.7013
    -2.6389  -2.5635  -2.5001  -2.4033  -2.3759  -2.2973  -2.2196  -2.2089

          k =-0.1498 0.0865 0.6221 ( 27260 PWs)   bands (ev):

   -20.6661 -20.4971 -20.4727 -20.3257 -20.2945 -20.2185 -19.9650 -19.8682
   -19.8070 -19.6617 -19.6437 -19.5278  -8.4143  -8.3909  -8.3537  -8.3181
    -8.2209  -8.1561  -8.0297  -8.0186  -8.0014  -7.7810  -7.7411  -7.7048
    -6.3051  -5.9908  -5.9201  -5.4005  -5.1684  -4.9789  -4.4661  -4.2281
    -4.0859  -3.6926  -3.6003  -3.3786  -2.8952  -2.8248  -2.6962  -2.6797
    -2.6089  -2.5977  -2.5031  -2.4088  -2.3619  -2.2966  -2.2484  -2.1895

          k = 0.2996 0.3460-0.3111 ( 27273 PWs)   bands (ev):

   -20.7262 -20.5273 -20.4100 -20.3610 -20.2691 -20.1950 -19.9538 -19.8300
   -19.8128 -19.7060 -19.6363 -19.5073  -8.4198  -8.3993  -8.3656  -8.3054
    -8.2322  -8.2041  -8.1035  -8.0380  -8.0043  -7.8092  -7.7643  -7.7145
    -6.3295  -5.9531  -5.7304  -5.4488  -5.3753  -4.7842  -4.3715  -4.2799
    -4.0531  -3.7768  -3.5943  -3.3049  -2.8190  -2.7858  -2.7151  -2.6675
    -2.6139  -2.5246  -2.4817  -2.4326  -2.3379  -2.3315  -2.2341  -2.1377

          k = 0.1498 0.2595 0.0000 ( 27300 PWs)   bands (ev):

   -20.8678 -20.4538 -20.3817 -20.2512 -20.2198 -20.1260 -20.0118 -19.9297
   -19.8848 -19.7215 -19.6847 -19.3901  -8.4479  -8.4084  -8.4005  -8.3201
    -8.2471  -8.2379  -8.0541  -7.9936  -7.9633  -7.8691  -7.8264  -7.7656
    -6.6370  -5.7034  -5.5782  -5.3508  -5.3153  -4.6651  -4.4607  -4.3524
    -4.3174  -3.7499  -3.7084  -3.0197  -2.7427  -2.7322  -2.7142  -2.6313
    -2.5749  -2.5302  -2.4569  -2.4359  -2.3256  -2.2893  -2.1901  -2.1635

          k = 0.2996-0.1730-1.2442 ( 27246 PWs)   bands (ev):

   -20.7188 -20.6531 -20.3994 -20.3114 -20.2155 -20.1540 -19.9346 -19.9159
   -19.7736 -19.7611 -19.5440 -19.5402  -8.4281  -8.3923  -8.3726  -8.3038
    -8.2672  -8.2436  -8.1516  -8.0443  -7.9943  -7.8304  -7.8257  -7.7464
    -6.1397  -6.1029  -5.6786  -5.5399  -5.2435  -4.8128  -4.2579  -4.2354
    -4.0488  -3.9104  -3.5134  -3.3020  -2.7623  -2.7300  -2.6839  -2.6729
    -2.5987  -2.5318  -2.4815  -2.4049  -2.3794  -2.2976  -2.1520  -2.1468

          k = 0.0000 0.0000 0.9332 ( 27252 PWs)   bands (ev):

   -20.5960 -20.5960 -20.4836 -20.4483 -20.2208 -20.2208 -19.8576 -19.8576
   -19.7137 -19.6702 -19.6352 -19.6352  -8.4017  -8.4017  -8.3761  -8.2635
    -8.2635  -8.2417  -8.1312  -8.0455  -8.0455  -7.7322  -7.7322  -7.7050
    -6.0512  -6.0512  -5.9914  -5.5199  -5.1397  -5.1397  -4.0983  -4.0983
    -4.0851  -3.6680  -3.6680  -3.5613  -2.7780  -2.7780  -2.6812  -2.6387
    -2.5754  -2.5754  -2.5060  -2.4104  -2.4104  -2.2919  -2.2919  -2.1098

          k = 0.4494 0.2595 0.0000 ( 27268 PWs)   bands (ev):

   -20.7484 -20.5466 -20.5191 -20.3131 -20.1504 -20.1321 -19.9757 -19.9552
   -19.7612 -19.6781 -19.6451 -19.4968  -8.4166  -8.3949  -8.3864  -8.2993
    -8.2770  -8.2253  -8.1431  -8.0564  -8.0155  -7.8251  -7.8076  -7.7509
    -6.2809  -5.8105  -5.7584  -5.6421  -5.2029  -4.8200  -4.3414  -4.2523
    -3.9722  -3.7755  -3.6676  -3.2610  -2.7475  -2.7322  -2.7026  -2.6657
    -2.6008  -2.5468  -2.4657  -2.4337  -2.3539  -2.2692  -2.1995  -2.1262

          k = 0.2996 0.1730 0.3111 ( 27287 PWs)   bands (ev):

   -20.7830 -20.4621 -20.3657 -20.3547 -20.2652 -20.1738 -19.9790 -19.9156
   -19.8552 -19.6915 -19.6390 -19.4500  -8.4250  -8.4003  -8.3692  -8.2979
    -8.2419  -8.1788  -8.0597  -7.9935  -7.9550  -7.8933  -7.8322  -7.7350
    -6.4573  -5.7916  -5.7246  -5.4145  -5.2842  -4.7669  -4.4923  -4.2904
    -4.2282  -3.7021  -3.6301  -3.1468  -2.8499  -2.7794  -2.7454  -2.6875
    -2.6511  -2.5179  -2.4882  -2.3948  -2.3016  -2.2983  -2.2183  -2.1828

          k = 0.4494-0.2595-0.9332 ( 27253 PWs)   bands (ev):

   -20.6324 -20.6048 -20.4504 -20.3829 -20.2476 -20.1385 -20.0250 -19.8970
   -19.7471 -19.6646 -19.6145 -19.5286  -8.4114  -8.3803  -8.3598  -8.2742
    -8.2226  -8.1914  -8.0965  -8.0349  -7.9952  -7.9081  -7.8219  -7.7585
    -6.0923  -5.9677  -5.7782  -5.5508  -5.3050  -4.8266  -4.5210  -4.2046
    -3.9405  -3.7073  -3.6619  -3.2637  -2.8510  -2.8042  -2.7672  -2.7102
    -2.6859  -2.5562  -2.4314  -2.4106  -2.3230  -2.2775  -2.1918  -2.1664

          k = 0.2996-0.3460-0.6221 ( 27248 PWs)   bands (ev):

   -20.5733 -20.5584 -20.4349 -20.4182 -20.2678 -20.2651 -19.9302 -19.9235
   -19.7236 -19.7141 -19.5699 -19.5676  -8.4173  -8.3549  -8.3236  -8.2870
    -8.2640  -8.1112  -8.0727  -8.0399  -7.9638  -7.8709  -7.7643  -7.7493
    -6.1004  -6.0446  -5.7389  -5.6505  -5.1329  -5.0839  -4.3631  -4.2733
    -3.9027  -3.8709  -3.5715  -3.3132  -2.9212  -2.8153  -2.7728  -2.7651
    -2.6791  -2.5621  -2.4420  -2.4143  -2.3564  -2.2598  -2.2407  -2.1684

          k = 0.0000 0.0000-1.8663 ( 27264 PWs)   bands (ev):

   -20.5169 -20.4819 -20.4077 -20.4077 -20.3991 -20.3991 -19.8238 -19.8238
   -19.7892 -19.7892 -19.5569 -19.5503  -8.4167  -8.2877  -8.2877  -8.2858
    -8.2858  -8.1386  -8.0642  -8.0328  -7.9347  -7.9347  -7.8160  -7.8160
    -6.0955  -5.8458  -5.5313  -5.5313  -5.4164  -5.4164  -4.0657  -4.0657
    -4.0510  -4.0510  -3.5328  -3.2904  -2.8906  -2.8221  -2.8221  -2.8169
    -2.8169  -2.5061  -2.4430  -2.3440  -2.3440  -2.2694  -2.2694  -2.1277

          k = 0.2996-0.3460 0.3111 ( 27273 PWs)   bands (ev):

   -20.7265 -20.5234 -20.4216 -20.3535 -20.2687 -20.1937 -19.9534 -19.8428
   -19.8019 -19.7093 -19.6306 -19.5095  -8.4170  -8.3967  -8.3701  -8.2868
    -8.2461  -8.2127  -8.1175  -8.0281  -7.9987  -7.7999  -7.7601  -7.7269
    -6.3297  -5.9258  -5.7958  -5.4215  -5.3103  -4.8627  -4.4843  -4.1141
    -3.9774  -3.8133  -3.7055  -3.2591  -2.8329  -2.7667  -2.6993  -2.6553
    -2.6326  -2.5415  -2.4882  -2.4441  -2.3452  -2.2990  -2.2347  -2.1438

     highest occupied level (ev):    -2.1098

!    total energy              =    -418.05038612 Ry
     estimated scf accuracy    <          2.4E-10 Ry

     The total energy is the sum of the following terms:
     one-electron contribution =    -279.13864479 Ry
     hartree contribution      =     176.20275614 Ry
     xc contribution           =    -106.15207463 Ry
     ewald contribution        =    -208.96242284 Ry

     convergence has been achieved in   5 iterations

     Forces acting on atoms (cartesian axes, Ry/au):

     atom    1 type  2   force =    -0.00018970   -0.00030122    0.00044198
     atom    2 type  2   force =     0.00018970    0.00030122   -0.00044198
     atom    3 type  2   force =     0.00035571   -0.00001368    0.00044198
     atom    4 type  2   force =    -0.00035571    0.00001368   -0.00044198
     atom    5 type  2   force =    -0.00016601    0.00031489    0.00044198
     atom    6 type  2   force =     0.00016601   -0.00031489   -0.00044198
     atom    7 type  2   force =     0.00012737   -0.00029986   -0.00019866
     atom    8 type  2   force =    -0.00012737    0.00029986    0.00019866
     atom    9 type  2   force =     0.00019600    0.00026024   -0.00019866
     atom   10 type  2   force =    -0.00019600   -0.00026024    0.00019866
     atom   11 type  2   force =    -0.00032337    0.00003962   -0.00019866
     atom   12 type  2   force =     0.00032337   -0.00003962    0.00019866
     atom   13 type  1   force =     0.00073909   -0.00008282   -0.00024390
     atom   14 type  1   force =    -0.00073909    0.00008282    0.00024390
     atom   15 type  1   force =    -0.00029782    0.00068148   -0.00024390
     atom   16 type  1   force =     0.00029782   -0.00068148    0.00024390
     atom   17 type  1   force =    -0.00044127   -0.00059866   -0.00024390
     atom   18 type  1   force =     0.00044127    0.00059866    0.00024390
     atom   19 type  1   force =     0.00013865    0.00043165   -0.00036824
     atom   20 type  1   force =    -0.00013865   -0.00043165    0.00036824
     atom   21 type  1   force =    -0.00044314   -0.00009575   -0.00036824
     atom   22 type  1   force =     0.00044314    0.00009575    0.00036824
     atom   23 type  1   force =     0.00030449   -0.00033590   -0.00036824
     atom   24 type  1   force =    -0.00030449    0.00033590    0.00036824
     atom   25 type  1   force =     0.00026382   -0.00041984    0.00021195
     atom   26 type  1   force =    -0.00026382    0.00041984   -0.00021195
     atom   27 type  1   force =     0.00023168    0.00043839    0.00021195
     atom   28 type  1   force =    -0.00023168   -0.00043839   -0.00021195
     atom   29 type  1   force =    -0.00049550   -0.00001856    0.00021195
     atom   30 type  1   force =     0.00049550    0.00001856   -0.00021195
     atom   31 type  1   force =    -0.00008302   -0.00024853    0.00063748
     atom   32 type  1   force =     0.00008302    0.00024853   -0.00063748
     atom   33 type  1   force =     0.00025674    0.00005237    0.00063748
     atom   34 type  1   force =    -0.00025674   -0.00005237   -0.00063748
     atom   35 type  1   force =    -0.00017373    0.00019616    0.00063748
     atom   36 type  1   force =     0.00017373   -0.00019616   -0.00063748

     Total force =     0.003623     Total SCF correction =     0.000064


     Computing stress (Cartesian axis) and pressure

          total   stress  (Ry/bohr**3)                   (kbar)     P=       20.23
   0.00014366   0.00000000  -0.00000000           21.13        0.00       -0.00
  -0.00000000   0.00014366   0.00000000           -0.00       21.13        0.00
  -0.00000000   0.00000000   0.00012517           -0.00        0.00       18.41

     Energy error            =      3.8E-05 Ry
     Gradient error          =      7.4E-04 Ry/Bohr

     bfgs converged in  16 scf cycles and  15 bfgs steps
     (criteria: energy <  1.0E-04 Ry, force <  1.0E-03 Ry/Bohr)

     End of BFGS Geometry Optimization

     Final energy             =    -418.0503861202 Ry

     File ./iceII/iceII.bfgs deleted, as requested
Begin final coordinates

ATOMIC_POSITIONS (crystal)
O                0.2723234933        0.0288172676        0.8566874461
O                0.7276765067        0.9711827434        0.1433125239
O                0.8566874461        0.2723234933        0.0288172676
O                0.1433125239        0.7276765067        0.9711827434
O                0.0288172676        0.8566874461        0.2723234933
O                0.9711827434        0.1433125239        0.7276765067
O                0.4712612171        0.7462588351        0.3255641485
O                0.5287387829        0.2537411649        0.6744358215
O                0.3255641485        0.4712612171        0.7462588351
O                0.6744358215        0.5287387829        0.2537411649
O                0.7462588351        0.3255641485        0.4712612171
O                0.2537411649        0.6744358215        0.5287387829
H                0.1392640183        0.0420616139        0.7915636375
H                0.8607359677        0.9579383781        0.2084363625
H                0.7915636375        0.1392640183        0.0420616139
H                0.2084363625        0.8607359677        0.9579383781
H                0.0420616139        0.7915636375        0.1392640183
H                0.9579383781        0.2084363625        0.8607359677
H                0.4312445501        0.2068778648        0.9913790550
H                0.5687554499        0.7931221502        0.0086209240
H                0.9913790550        0.4312445501        0.2068778648
H                0.0086209240        0.5687554499        0.7931221502
H                0.2068778648        0.9913790550        0.4312445501
H                0.7931221502        0.0086209240        0.5687554499
H                0.7280140657        0.4106199154        0.4013873572
H                0.2719859343        0.5893800546        0.5986126728
H                0.4013873572        0.7280140657        0.4106199154
H                0.5986126728        0.2719859343        0.5893800546
H                0.4106199154        0.4013873572        0.7280140657
H                0.5893800546        0.5986126728        0.2719859343
H                0.7373830382        0.1911268350        0.3585144941
H                0.2626169618        0.8088731500        0.6414855059
H                0.3585144941        0.7373830382        0.1911268350
H                0.6414855059        0.2626169618        0.8088731500
H                0.1911268350        0.3585144941        0.7373830382
H                0.8088731500        0.6414855059        0.2626169618
End final coordinates



     Writing all to output data dir ./iceII/iceII.save/ :
     XML data file, charge density, pseudopotentials, collected wavefunctions

     init_run     :      2.47s CPU      2.58s WALL (       1 calls)
     electrons    :    102.09s CPU    105.22s WALL (      16 calls)
     update_pot   :      1.75s CPU      1.98s WALL (      15 calls)
     forces       :      1.86s CPU      1.87s WALL (      16 calls)
     stress       :     15.03s CPU     15.26s WALL (      16 calls)

     Called by init_run:
     wfcinit      :      0.33s CPU      0.35s WALL (       1 calls)
     potinit      :      1.63s CPU      1.68s WALL (       1 calls)
     hinit0       :      0.38s CPU      0.39s WALL (       1 calls)

     Called by electrons:
     c_bands      :     78.64s CPU     79.53s WALL (     107 calls)
     sum_band     :     10.93s CPU     11.01s WALL (     107 calls)
     v_of_rho     :     14.82s CPU     16.42s WALL (     119 calls)
     newd         :      0.39s CPU      0.40s WALL (     119 calls)
     mix_rho      :      0.23s CPU      0.23s WALL (     107 calls)
     vdW_kernel   :      1.52s CPU      1.52s WALL (       1 calls)

     Called by c_bands:
     init_us_2    :      1.28s CPU      1.34s WALL (     988 calls)
     cegterg      :     76.07s CPU     76.70s WALL (     428 calls)

     Called by *egterg:
     cdiaghg      :      5.96s CPU      5.99s WALL (    1535 calls)
     h_psi        :     58.22s CPU     58.71s WALL (    1615 calls)
     s_psi        :      2.29s CPU      2.33s WALL (    1615 calls)
     g_psi        :      0.15s CPU      0.16s WALL (    1183 calls)

     Called by h_psi:
     h_psi:calbec :      4.00s CPU      4.02s WALL (    1615 calls)
     vloc_psi     :     51.46s CPU     51.91s WALL (    1615 calls)
     add_vuspsi   :      2.38s CPU      2.39s WALL (    1615 calls)

     General routines
     calbec       :      5.73s CPU      5.76s WALL (    2363 calls)
     fft          :      7.43s CPU      7.56s WALL (    8110 calls)
     ffts         :      0.09s CPU      0.09s WALL (     107 calls)
     fftw         :     53.85s CPU     54.30s WALL (  149462 calls)

     Parallel routines

     PWSCF        :   2m 4.27s CPU   2m 8.73s WALL


   This run was terminated on:  14:20:17   1Apr2026            

=------------------------------------------------------------------------------=
   JOB DONE.
=------------------------------------------------------------------------------=
