
     Program PWSCF v.7.3.1 starts on 26Mar2026 at 14:49: 1 

     This program is part of the open-source Quantum ESPRESSO suite
     for quantum simulation of materials; please cite
         "P. Giannozzi et al., J. Phys.:Condens. Matter 21 395502 (2009);
         "P. Giannozzi et al., J. Phys.:Condens. Matter 29 465901 (2017);
         "P. Giannozzi et al., J. Chem. Phys. 152 154105 (2020);
          URL http://www.quantum-espresso.org", 
     in publications or presentations arising from this work. More details at
     http://www.quantum-espresso.org/quote

     Parallel version (MPI), running on   128 processors

     MPI processes distributed on     1 nodes
     242886 MiB available memory on the printing compute node when the environment starts

     Waiting for input...
     Reading input from standard input

     Current dimensions of program PWSCF are:
     Max number of different atomic species (ntypx) = 10
     Max number of k-points (npk) =  40000
     Max angular momentum in pseudopotentials (lmaxx) =  4

     IMPORTANT: XC functional enforced from input :
     Exchange-correlation= VDW-DF2
                           (   1   4  13   0   2   0   0)
     Any further DFT definition will be discarded
     Please, verify this is what you really want


     K-points division:     npool     =       4
     R & G space division:  proc/nbgrp/npool/nimage =      32
     Subspace diagonalization in iterative solution of the eigenvalue problem:
     a serial algorithm will be used


     Parallelization info
     --------------------
     sticks:   dense  smooth     PW     G-vecs:    dense   smooth      PW
     Min         168     168     49                 6836     6836    1094
     Max         169     169     50                 6840     6840    1097
     Sum        5407    5407   1595               218837   218837   35071

     Using Slab Decomposition



     bravais-lattice index     =            5
     lattice parameter (alat)  =      14.3198  a.u.
     unit-cell volume          =    1897.1627 (a.u.)^3
     number of atoms/cell      =           36
     number of atomic types    =            2
     number of electrons       =        96.00
     number of Kohn-Sham states=           48
     kinetic-energy cutoff     =      90.0000  Ry
     charge density cutoff     =     360.0000  Ry
     scf convergence threshold =      1.0E-07
     mixing beta               =       0.7000
     number of iterations used =            8  plain     mixing
     Exchange-correlation= VDW-DF2
                           (   1   4  13   0   2   0   0)

     celldm(1)=  14.319814  celldm(2)=   0.000000  celldm(3)=   0.000000
     celldm(4)=  -0.392337  celldm(5)=   0.000000  celldm(6)=   0.000000

     crystal axes: (cart. coord. in units of alat)
               a(1) = (   0.834367  -0.481722   0.267909 )  
               a(2) = (   0.000000   0.963444   0.267909 )  
               a(3) = (  -0.834367  -0.481722   0.267909 )  

     reciprocal axes: (cart. coord. in units 2 pi/alat)
               b(1) = (  0.599257 -0.345981  1.244203 )  
               b(2) = ( -0.000000  0.691962  1.244203 )  
               b(3) = ( -0.599257 -0.345981  1.244203 )  


     PseudoPot. # 1 for H  read from file:
     ./H.pbe-van_ak.UPF
     MD5 check sum: 077eb6d537518a38cb46c6de387227b7
     Pseudo is Ultrasoft, Zval =  1.0
     Generated by new atomic code, or converted to UPF format
     Using radial grid of  615 points,  1 beta functions with: 
                l(1) =   0
     Q(r) pseudized with  8 coefficients,  rinner =    0.800

     PseudoPot. # 2 for O  read from file:
     ./O.pbe-van_ak.UPF
     MD5 check sum: 78c19812648e8988a0fe644b0f25305e
     Pseudo is Ultrasoft, Zval =  6.0
     Generated by new atomic code, or converted to UPF format
     Using radial grid of  737 points,  4 beta functions with: 
                l(1) =   0
                l(2) =   0
                l(3) =   1
                l(4) =   1
     Q(r) pseudized with  8 coefficients,  rinner =    0.800   0.800   0.800


     atomic species   valence    mass     pseudopotential
     H                 1.00     1.00800     H ( 1.00)
     O                 6.00    16.00000     O ( 1.00)

      6 Sym. Ops., with inversion, found



   Cartesian axes

     site n.     atom                  positions (alat units)
         1        O      tau(   1) = (  -0.4881587  -0.5153728   0.3102004  )
         2        O      tau(   2) = (   0.4881587   0.5153729   0.4935268  )
         3        O      tau(   3) = (   0.6904053  -0.1650714   0.3102004  )
         4        O      tau(   4) = (  -0.6904053   0.1650714   0.4935268  )
         5        O      tau(   5) = (  -0.2022466   0.6804442   0.3102004  )
         6        O      tau(   6) = (   0.2022466  -0.6804442   0.4935268  )
         7        O      tau(   7) = (   0.1208629   0.3351200   0.4137471  )
         8        O      tau(   8) = (  -0.1208629  -0.3351200   0.3899800  )
         9        O      tau(   9) = (  -0.3506539  -0.0628897   0.4137471  )
        10        O      tau(  10) = (   0.3506539   0.0628897   0.3899800  )
        11        O      tau(  11) = (   0.2297910  -0.2722304   0.4137471  )
        12        O      tau(  12) = (  -0.2297910   0.2722304   0.3899800  )
        13        H      tau(  13) = (  -0.5430428  -0.4102686   0.2622098  )
        14        H      tau(  14) = (   0.5430428   0.4102686   0.5415173  )
        15        H      tau(  15) = (   0.6268245  -0.2651546   0.2622098  )
        16        H      tau(  16) = (  -0.6268245   0.2651546   0.5415173  )
        17        H      tau(  17) = (  -0.0837816   0.6754232   0.2622098  )
        18        H      tau(  18) = (   0.0837817  -0.6754232   0.5415173  )
        19        H      tau(  19) = (  -0.4681736  -0.4859583   0.4327384  )
        20        H      tau(  20) = (   0.4681736   0.4859583   0.3709887  )
        21        H      tau(  21) = (   0.6549390  -0.1624711   0.4327384  )
        22        H      tau(  22) = (  -0.6549390   0.1624711   0.3709887  )
        23        H      tau(  23) = (  -0.1867654   0.6484294   0.4327384  )
        24        H      tau(  24) = (   0.1867654  -0.6484294   0.3709887  )
        25        H      tau(  25) = (   0.2718867  -0.1516220   0.4118766  )
        26        H      tau(  26) = (  -0.2718867   0.1516219   0.3918506  )
        27        H      tau(  27) = (  -0.0046349   0.3112717   0.4118766  )
        28        H      tau(  28) = (   0.0046349  -0.3112717   0.3918506  )
        29        H      tau(  29) = (  -0.2672518  -0.1596498   0.4118766  )
        30        H      tau(  30) = (   0.2672518   0.1596498   0.3918506  )
        31        H      tau(  31) = (   0.3136186  -0.3416266   0.3473301  )
        32        H      tau(  32) = (  -0.3136186   0.3416266   0.4563970  )
        33        H      tau(  33) = (   0.1390481   0.4424150   0.3473301  )
        34        H      tau(  34) = (  -0.1390480  -0.4424150   0.4563970  )
        35        H      tau(  35) = (  -0.4526667  -0.1007884   0.3473301  )
        36        H      tau(  36) = (   0.4526666   0.1007884   0.4563970  )

     number of k points=    14
                       cart. coord. in units 2pi/alat
        k(    1) = (   0.0000000   0.0000000   0.0000000), wk =   0.0312500
        k(    2) = (  -0.1498141  -0.0864952   0.3110508), wk =   0.1875000
        k(    3) = (   0.2996283   0.1729905  -0.6221017), wk =   0.0937500
        k(    4) = (  -0.1498141   0.0864952   0.6221017), wk =   0.1875000
        k(    5) = (   0.2996283   0.3459809  -0.3110508), wk =   0.1875000
        k(    6) = (   0.1498141   0.2594857   0.0000000), wk =   0.1875000
        k(    7) = (   0.2996283  -0.1729905  -1.2442034), wk =   0.0937500
        k(    8) = (   0.0000000   0.0000000   0.9331525), wk =   0.0625000
        k(    9) = (   0.4494424   0.2594857   0.0000000), wk =   0.1875000
        k(   10) = (   0.2996283   0.1729905   0.3110508), wk =   0.1875000
        k(   11) = (   0.4494424  -0.2594857  -0.9331525), wk =   0.1875000
        k(   12) = (   0.2996283  -0.3459809  -0.6221017), wk =   0.1875000
        k(   13) = (   0.0000000   0.0000000  -1.8663050), wk =   0.0312500
        k(   14) = (   0.2996283  -0.3459809   0.3110508), wk =   0.1875000

     Dense  grid:   218837 G-vectors     FFT dimensions: (  90,  90,  90)

     Estimated max dynamical RAM per process >      14.55 MB

     Estimated total dynamical RAM >       1.66 GB

     Initial potential from superposition of free atoms

     starting charge      95.9998, renormalised to      96.0000


     %%%%%%%%%%%%%%%%%%%%%%%%%%%%%%%%%%%%%%%%%%%%%%%%%%%%%%%%%%%%%%%%%%%%%%%%
     %                                                                      %
     % You are using vdW-DF, which was implemented by the Thonhauser group. %
     % Please cite the following two papers that made this development      %
     % possible and the two reviews that describe the various versions:     %
     %                                                                      %
     %   T. Thonhauser et al., PRL 115, 136402 (2015).                      %
     %   T. Thonhauser et al., PRB 76, 125112 (2007).                       %
     %   K. Berland et al., Rep. Prog. Phys. 78, 066501 (2015).             %
     %   D.C. Langreth et al., J. Phys.: Condens. Matter 21, 084203 (2009). %
     %                                                                      %
     % If you are calculating stress with vdW-DF, please also cite:         %
     %                                                                      %
     %   R. Sabatini et al., J. Phys.: Condens. Matter 24, 424209 (2012).   %
     %                                                                      %
     %%%%%%%%%%%%%%%%%%%%%%%%%%%%%%%%%%%%%%%%%%%%%%%%%%%%%%%%%%%%%%%%%%%%%%%%

     %%%%%%%%%%%%%%%%%%%%%%%%%%%%%%%%%%%%%%%%%%%%%%%%%%%%%%%%%%%%%%%%%%%%%%%%
     %                                                                      %
     %  vdW-DF NEWS:                                                        %
     %                                                                      %
     %  * vdW-DF3 is now available. DOI: 10.1021/acs.jctc.0c00471           %
     %    use with input_dft = 'vdW-DF3-opt1' or 'vdW-DF3-opt2'             %
     %                                                                      %
     %  * Unscreened and range-separated hybrid vdW-DF-cx functionals       %
     %    DOI: 10.1063/1.4986522 and 10.1088/1361-648X/ac2ad2               %
     %    use with input_dft = 'vdW-DF-cx0'    and 'vdW-DF-ahcx'            %
     %  * Unscreened and range-separated hybrid vdW-DF2-b86r functionals    %
     %    DOI: 10.1063/1.4986522 and DOI: 10.1103/PhysRevX.12.041003        %
     %    use with input_dft = 'vdW-DF2-br0' and 'vdW-DF2-ahbr'             %
     %                                                                      %
     %%%%%%%%%%%%%%%%%%%%%%%%%%%%%%%%%%%%%%%%%%%%%%%%%%%%%%%%%%%%%%%%%%%%%%%%


     Starting wfcs are   72 randomized atomic wfcs

     total cpu time spent up to now is        2.8 secs

     per-process dynamical memory:    18.8 Mb

     Self-consistent Calculation

     iteration #  1     ecut=    90.00 Ry     beta= 0.70
     Davidson diagonalization with overlap
     ethr =  1.00E-02,  avg # of iterations =  2.0

     total cpu time spent up to now is        3.7 secs

     total energy              =    -415.86809445 Ry
     estimated scf accuracy    <       4.94474990 Ry

     iteration #  2     ecut=    90.00 Ry     beta= 0.70
     Davidson diagonalization with overlap
     ethr =  5.15E-03,  avg # of iterations =  3.0

     total cpu time spent up to now is        4.9 secs

     total energy              =    -417.51391880 Ry
     estimated scf accuracy    <       3.08385194 Ry

     iteration #  3     ecut=    90.00 Ry     beta= 0.70
     Davidson diagonalization with overlap
     ethr =  3.21E-03,  avg # of iterations =  2.0

     total cpu time spent up to now is        5.7 secs

     total energy              =    -417.92066102 Ry
     estimated scf accuracy    <       0.12528848 Ry

     iteration #  4     ecut=    90.00 Ry     beta= 0.70
     Davidson diagonalization with overlap
     ethr =  1.31E-04,  avg # of iterations =  4.0

     total cpu time spent up to now is        7.0 secs

     total energy              =    -418.01590808 Ry
     estimated scf accuracy    <       0.15975648 Ry

     iteration #  5     ecut=    90.00 Ry     beta= 0.70
     Davidson diagonalization with overlap
     ethr =  1.31E-04,  avg # of iterations =  2.0

     total cpu time spent up to now is        7.8 secs

     total energy              =    -418.02188961 Ry
     estimated scf accuracy    <       0.02252002 Ry

     iteration #  6     ecut=    90.00 Ry     beta= 0.70
     Davidson diagonalization with overlap
     ethr =  2.35E-05,  avg # of iterations =  2.0

     negative rho (up, down):  3.690E-08 0.000E+00

     total cpu time spent up to now is        8.6 secs

     total energy              =    -418.02227526 Ry
     estimated scf accuracy    <       0.00484824 Ry

     iteration #  7     ecut=    90.00 Ry     beta= 0.70
     Davidson diagonalization with overlap
     ethr =  5.05E-06,  avg # of iterations =  3.0

     negative rho (up, down):  3.896E-08 0.000E+00

     total cpu time spent up to now is        9.6 secs

     total energy              =    -418.02500416 Ry
     estimated scf accuracy    <       0.00068014 Ry

     iteration #  8     ecut=    90.00 Ry     beta= 0.70
     Davidson diagonalization with overlap
     ethr =  7.08E-07,  avg # of iterations =  2.1

     negative rho (up, down):  2.949E-08 0.000E+00

     total cpu time spent up to now is       10.4 secs

     total energy              =    -418.02446459 Ry
     estimated scf accuracy    <       0.00165054 Ry

     iteration #  9     ecut=    90.00 Ry     beta= 0.70
     Davidson diagonalization with overlap
     ethr =  7.08E-07,  avg # of iterations =  2.0

     negative rho (up, down):  2.537E-08 0.000E+00

     total cpu time spent up to now is       11.4 secs

     total energy              =    -418.02451356 Ry
     estimated scf accuracy    <       0.00026172 Ry

     iteration # 10     ecut=    90.00 Ry     beta= 0.70
     Davidson diagonalization with overlap
     ethr =  2.73E-07,  avg # of iterations =  2.0

     negative rho (up, down):  2.485E-08 0.000E+00

     total cpu time spent up to now is       12.2 secs

     total energy              =    -418.02455128 Ry
     estimated scf accuracy    <       0.00004274 Ry

     iteration # 11     ecut=    90.00 Ry     beta= 0.70
     Davidson diagonalization with overlap
     ethr =  4.45E-08,  avg # of iterations =  1.9

     negative rho (up, down):  2.189E-08 0.000E+00

     total cpu time spent up to now is       13.0 secs

     total energy              =    -418.02454278 Ry
     estimated scf accuracy    <       0.00002656 Ry

     iteration # 12     ecut=    90.00 Ry     beta= 0.70
     Davidson diagonalization with overlap
     ethr =  2.77E-08,  avg # of iterations =  2.0

     negative rho (up, down):  2.231E-08 0.000E+00

     total cpu time spent up to now is       13.9 secs

     total energy              =    -418.02454965 Ry
     estimated scf accuracy    <       0.00000036 Ry

     iteration # 13     ecut=    90.00 Ry     beta= 0.70
     Davidson diagonalization with overlap
     ethr =  3.75E-10,  avg # of iterations =  3.8

     negative rho (up, down):  2.284E-08 0.000E+00

     total cpu time spent up to now is       14.9 secs

     total energy              =    -418.02454969 Ry
     estimated scf accuracy    <       0.00000031 Ry

     iteration # 14     ecut=    90.00 Ry     beta= 0.70
     Davidson diagonalization with overlap
     ethr =  3.18E-10,  avg # of iterations =  2.0

     negative rho (up, down):  2.289E-08 0.000E+00

     total cpu time spent up to now is       15.8 secs

     End of self-consistent calculation

          k = 0.0000 0.0000 0.0000 ( 27347 PWs)   bands (ev):

   -21.2211 -20.6775 -20.6775 -20.4538 -20.4538 -20.4074 -20.4072 -20.4072
   -20.3985 -20.0677 -20.0677 -19.7165  -8.7175  -8.6480  -8.6480  -8.6094
    -8.5088  -8.5088  -8.2066  -8.2066  -8.2052  -8.1587  -8.1377  -8.1377
    -6.8435  -5.6978  -5.6978  -5.0346  -5.0346  -4.8619  -4.8619  -4.6710
    -4.5695  -3.8468  -3.8468  -3.1041  -2.8459  -2.8459  -2.8031  -2.6533
    -2.6533  -2.6141  -2.5076  -2.5076  -2.4540  -2.3532  -2.3097  -2.3097

          k =-0.1498-0.0865 0.3111 ( 27348 PWs)   bands (ev):

   -21.1371 -20.7256 -20.6664 -20.6089 -20.5694 -20.4905 -20.3519 -20.3032
   -20.2318 -20.0735 -20.0265 -19.7817  -8.6781  -8.6567  -8.6347  -8.5919
    -8.5002  -8.4707  -8.2762  -8.2468  -8.2300  -8.1344  -8.0677  -8.0630
    -6.6607  -5.8743  -5.7273  -5.3806  -5.1201  -4.8682  -4.6977  -4.5439
    -4.3854  -3.8388  -3.7768  -3.2496  -2.9391  -2.8649  -2.8212  -2.7328
    -2.7107  -2.6454  -2.5402  -2.4890  -2.4181  -2.3983  -2.3328  -2.3052

          k = 0.2996 0.1730-0.6221 ( 27366 PWs)   bands (ev):

   -20.9224 -20.9133 -20.7067 -20.6855 -20.5643 -20.5610 -20.2935 -20.2913
   -20.0864 -20.0717 -19.9427 -19.9384  -8.6625  -8.6439  -8.5969  -8.5826
    -8.4996  -8.4476  -8.2958  -8.2856  -8.2430  -8.1207  -8.0184  -8.0047
    -6.2969  -6.1645  -5.7150  -5.7079  -5.1124  -5.0370  -4.5629  -4.4644
    -3.9835  -3.9395  -3.7462  -3.4870  -3.0191  -2.8965  -2.8096  -2.7978
    -2.7347  -2.6750  -2.6007  -2.4914  -2.4745  -2.3785  -2.3143  -2.2986

          k =-0.1498 0.0865 0.6221 ( 27343 PWs)   bands (ev):

   -20.9681 -20.8070 -20.7852 -20.6458 -20.6201 -20.5469 -20.3028 -20.2108
   -20.1590 -20.0254 -20.0072 -19.8989  -8.6588  -8.6402  -8.6123  -8.5853
    -8.4929  -8.4299  -8.2963  -8.2891  -8.2696  -8.0781  -8.0406  -8.0089
    -6.3367  -6.0213  -5.9623  -5.4704  -5.2404  -5.0532  -4.5536  -4.3144
    -4.1844  -3.8284  -3.7433  -3.5192  -3.0036  -2.9255  -2.7994  -2.7779
    -2.7073  -2.7000  -2.6098  -2.4949  -2.4584  -2.3816  -2.3391  -2.2811

          k = 0.2996 0.3460-0.3111 ( 27371 PWs)   bands (ev):

   -21.0249 -20.8369 -20.7261 -20.6822 -20.5915 -20.5211 -20.2968 -20.1794
   -20.1610 -20.0679 -19.9983 -19.8793  -8.6648  -8.6531  -8.6173  -8.5690
    -8.4988  -8.4713  -8.3570  -8.3069  -8.2742  -8.1038  -8.0612  -8.0196
    -6.3497  -6.0004  -5.7779  -5.5207  -5.4397  -4.8748  -4.4639  -4.3718
    -4.1776  -3.8985  -3.7368  -3.4507  -2.9327  -2.8844  -2.8193  -2.7626
    -2.7083  -2.6295  -2.5713  -2.5305  -2.4286  -2.4253  -2.3264  -2.2326

          k = 0.1498 0.2595 0.0000 ( 27392 PWs)   bands (ev):

   -21.1596 -20.7686 -20.7007 -20.5755 -20.5430 -20.4565 -20.3522 -20.2769
   -20.2301 -20.0784 -20.0428 -19.7708  -8.6967  -8.6500  -8.6430  -8.5906
    -8.5121  -8.5020  -8.3111  -8.2705  -8.2308  -8.1561  -8.1187  -8.0654
    -6.6443  -5.7596  -5.6378  -5.4193  -5.3769  -4.7653  -4.5695  -4.4517
    -4.4206  -3.8854  -3.8405  -3.1919  -2.8496  -2.8335  -2.8240  -2.7192
    -2.6643  -2.6312  -2.5420  -2.5243  -2.4245  -2.3966  -2.2866  -2.2630

          k = 0.2996-0.1730-1.2442 ( 27356 PWs)   bands (ev):

   -21.0169 -20.9576 -20.7183 -20.6317 -20.5393 -20.4822 -20.2805 -20.2630
   -20.1253 -20.1172 -19.9148 -19.9071  -8.6744  -8.6463  -8.6219  -8.5712
    -8.5140  -8.5111  -8.3947  -8.3196  -8.2576  -8.1199  -8.1173  -8.0497
    -6.1722  -6.1465  -5.7394  -5.5901  -5.3205  -4.9071  -4.3732  -4.3536
    -4.1699  -4.0286  -3.6465  -3.4491  -2.8632  -2.8351  -2.8004  -2.7628
    -2.6801  -2.6322  -2.5748  -2.4983  -2.4848  -2.3941  -2.2460  -2.2452

          k = 0.0000 0.0000 0.9332 ( 27342 PWs)   bands (ev):

   -20.9009 -20.9009 -20.7975 -20.7646 -20.5450 -20.5450 -20.2080 -20.2080
   -20.0618 -20.0346 -19.9996 -19.9996  -8.6537  -8.6537  -8.6265  -8.5220
    -8.5220  -8.5071  -8.3946  -8.3102  -8.3102  -8.0365  -8.0365  -8.0105
    -6.0779  -6.0779  -6.0411  -5.5827  -5.2193  -5.2193  -4.2157  -4.2157
    -4.1563  -3.8083  -3.8083  -3.6973  -2.8856  -2.8856  -2.7811  -2.7540
    -2.6701  -2.6701  -2.6152  -2.4949  -2.4949  -2.3829  -2.3829  -2.2045

          k = 0.4494 0.2595 0.0000 ( 27356 PWs)   bands (ev):

   -21.0459 -20.8545 -20.8318 -20.6335 -20.4774 -20.4623 -20.3179 -20.3008
   -20.1171 -20.0384 -20.0054 -19.8690  -8.6675  -8.6430  -8.6360  -8.5644
    -8.5369  -8.4802  -8.4001  -8.3185  -8.2778  -8.1161  -8.1018  -8.0543
    -6.3090  -5.8671  -5.8069  -5.6995  -5.2764  -4.9086  -4.4620  -4.3731
    -4.0835  -3.9029  -3.7963  -3.4109  -2.8484  -2.8365  -2.8148  -2.7566
    -2.6923  -2.6412  -2.5590  -2.5275  -2.4592  -2.3644  -2.2953  -2.2227

          k = 0.2996 0.1730 0.3111 ( 27351 PWs)   bands (ev):

   -21.0790 -20.7759 -20.6836 -20.6737 -20.5890 -20.5049 -20.3168 -20.2595
   -20.2028 -20.0527 -20.0016 -19.8260  -8.6686  -8.6533  -8.6197  -8.5660
    -8.5095  -8.4485  -8.3226  -8.2644  -8.2251  -8.1774  -8.1170  -8.0384
    -6.4782  -5.8329  -5.7975  -5.4783  -5.3465  -4.8600  -4.5847  -4.3887
    -4.3349  -3.8347  -3.7656  -3.3047  -2.9601  -2.8759  -2.8477  -2.7800
    -2.7414  -2.6100  -2.5836  -2.4968  -2.3982  -2.3954  -2.3092  -2.2791

          k = 0.4494-0.2595-0.9332 ( 27356 PWs)   bands (ev):

   -20.9352 -20.9118 -20.7644 -20.6997 -20.5718 -20.4721 -20.3595 -20.2428
   -20.1029 -20.0275 -19.9801 -19.8970  -8.6568  -8.6330  -8.6194  -8.5393
    -8.4964  -8.4497  -8.3514  -8.3036  -8.2618  -8.1857  -8.1104  -8.0587
    -6.1341  -6.0094  -5.8472  -5.6066  -5.3794  -4.9099  -4.6217  -4.3147
    -4.0553  -3.8356  -3.7843  -3.4164  -2.9634  -2.9014  -2.8676  -2.8005
    -2.7726  -2.6467  -2.5313  -2.5093  -2.4207  -2.3765  -2.2877  -2.2582

          k = 0.2996-0.3460-0.6221 ( 27334 PWs)   bands (ev):

   -20.8799 -20.8666 -20.7496 -20.7326 -20.5927 -20.5909 -20.2698 -20.2655
   -20.0819 -20.0731 -19.9406 -19.9329  -8.6595  -8.6104  -8.5874  -8.5575
    -8.5316  -8.3858  -8.3356  -8.2977  -8.2386  -8.1564  -8.0605  -8.0463
    -6.1360  -6.0939  -5.7856  -5.7229  -5.2001  -5.1542  -4.4564  -4.3732
    -4.0165  -3.9824  -3.7000  -3.4655  -3.0369  -2.9121  -2.8669  -2.8593
    -2.7806  -2.6532  -2.5320  -2.5139  -2.4557  -2.3531  -2.3355  -2.2594

          k = 0.0000 0.0000-1.8663 ( 27324 PWs)   bands (ev):

   -20.8281 -20.7942 -20.7202 -20.7202 -20.7181 -20.7181 -20.1700 -20.1700
   -20.1455 -20.1455 -19.9315 -19.9138  -8.6563  -8.5588  -8.5588  -8.5525
    -8.5525  -8.3885  -8.3156  -8.3133  -8.2141  -8.2141  -8.1023  -8.1023
    -6.1204  -5.9470  -5.5863  -5.5863  -5.4810  -5.4810  -4.1669  -4.1669
    -4.1626  -4.1626  -3.6530  -3.4453  -3.0196  -2.9171  -2.9171  -2.9017
    -2.9017  -2.5951  -2.5400  -2.4358  -2.4358  -2.3715  -2.3715  -2.2209

          k = 0.2996-0.3460 0.3111 ( 27371 PWs)   bands (ev):

   -21.0252 -20.8337 -20.7356 -20.6767 -20.5903 -20.5202 -20.2957 -20.1890
   -20.1573 -20.0648 -19.9961 -19.8810  -8.6670  -8.6437  -8.6251  -8.5501
    -8.5151  -8.4752  -8.3694  -8.2995  -8.2694  -8.0965  -8.0548  -8.0313
    -6.3528  -5.9611  -5.8548  -5.4944  -5.3731  -4.9489  -4.5739  -4.2135
    -4.1016  -3.9421  -3.8337  -3.4116  -2.9457  -2.8667  -2.8058  -2.7561
    -2.7215  -2.6375  -2.5772  -2.5452  -2.4419  -2.3885  -2.3281  -2.2384

     highest occupied level (ev):    -2.2045

!    total energy              =    -418.02454975 Ry
     estimated scf accuracy    <       0.00000001 Ry

     The total energy is the sum of the following terms:
     one-electron contribution =    -284.48281084 Ry
     hartree contribution      =     178.50686263 Ry
     xc contribution           =    -106.65591969 Ry
     ewald contribution        =    -205.39268186 Ry

     convergence has been achieved in  14 iterations

     Forces acting on atoms (cartesian axes, Ry/au):

     atom    1 type  2   force =     0.01208922   -0.04261566   -0.02389971
     atom    2 type  2   force =    -0.01208922    0.04261566    0.02389971
     atom    3 type  2   force =     0.03086163    0.03177740   -0.02389971
     atom    4 type  2   force =    -0.03086163   -0.03177740    0.02389971
     atom    5 type  2   force =    -0.04295085    0.01083826   -0.02389971
     atom    6 type  2   force =     0.04295085   -0.01083826    0.02389971
     atom    7 type  2   force =     0.03446344   -0.02638798    0.02087625
     atom    8 type  2   force =    -0.03446344    0.02638798   -0.02087625
     atom    9 type  2   force =     0.00562094    0.04304020    0.02087625
     atom   10 type  2   force =    -0.00562094   -0.04304020   -0.02087625
     atom   11 type  2   force =    -0.04008438   -0.01665222    0.02087625
     atom   12 type  2   force =     0.04008438    0.01665222   -0.02087625
     atom   13 type  1   force =    -0.01833479    0.03442379   -0.01960988
     atom   14 type  1   force =     0.01833479   -0.03442379    0.01960988
     atom   15 type  1   force =    -0.02064448   -0.03309029   -0.01960988
     atom   16 type  1   force =     0.02064448    0.03309029    0.01960988
     atom   17 type  1   force =     0.03897927   -0.00133350   -0.01960988
     atom   18 type  1   force =    -0.03897927    0.00133350    0.01960988
     atom   19 type  1   force =     0.00825072    0.00760520    0.04295536
     atom   20 type  1   force =    -0.00825072   -0.00760520   -0.04295536
     atom   21 type  1   force =    -0.01071166    0.00334273    0.04295536
     atom   22 type  1   force =     0.01071166   -0.00334273   -0.04295536
     atom   23 type  1   force =     0.00246094   -0.01094793    0.04295536
     atom   24 type  1   force =    -0.00246094    0.01094793   -0.04295536
     atom   25 type  1   force =     0.01292650    0.04136518    0.00062568
     atom   26 type  1   force =    -0.01292650   -0.04136518   -0.00062568
     atom   27 type  1   force =    -0.04228655   -0.00948791    0.00062568
     atom   28 type  1   force =     0.04228655    0.00948791   -0.00062568
     atom   29 type  1   force =     0.02936005   -0.03187727    0.00062568
     atom   30 type  1   force =    -0.02936005    0.03187727   -0.00062568
     atom   31 type  1   force =     0.02806768   -0.02581535   -0.02222858
     atom   32 type  1   force =    -0.02806768    0.02581535    0.02222858
     atom   33 type  1   force =     0.00832291    0.03721500   -0.02222858
     atom   34 type  1   force =    -0.00832291   -0.03721500    0.02222858
     atom   35 type  1   force =    -0.03639059   -0.01139965   -0.02222858
     atom   36 type  1   force =     0.03639059    0.01139965    0.02222858

     Total force =     0.274485     Total SCF correction =     0.000049


     Computing stress (Cartesian axis) and pressure

          total   stress  (Ry/bohr**3)                   (kbar)     P=       73.53
   0.00050241   0.00000000  -0.00000000           73.91        0.00       -0.00
   0.00000000   0.00050241   0.00000000            0.00       73.91        0.00
   0.00000000   0.00000000   0.00049472            0.00        0.00       72.78


     Writing all to output data dir ./iceII/iceII.save/ :
     XML data file, charge density, pseudopotentials, collected wavefunctions

     init_run     :      2.51s CPU      2.57s WALL (       1 calls)
     electrons    :     12.75s CPU     13.10s WALL (       1 calls)
     forces       :      0.12s CPU      0.13s WALL (       1 calls)
     stress       :      0.95s CPU      0.98s WALL (       1 calls)

     Called by init_run:
     wfcinit      :      0.34s CPU      0.34s WALL (       1 calls)
     potinit      :      1.64s CPU      1.68s WALL (       1 calls)
     hinit0       :      0.39s CPU      0.40s WALL (       1 calls)

     Called by electrons:
     c_bands      :      9.63s CPU      9.70s WALL (      14 calls)
     sum_band     :      1.41s CPU      1.43s WALL (      14 calls)
     v_of_rho     :      3.21s CPU      3.43s WALL (      15 calls)
     newd         :      0.05s CPU      0.05s WALL (      15 calls)
     mix_rho      :      0.05s CPU      0.05s WALL (      14 calls)
     vdW_kernel   :      1.51s CPU      1.52s WALL (       1 calls)

     Called by c_bands:
     init_us_2    :      0.15s CPU      0.16s WALL (     124 calls)
     cegterg      :      9.33s CPU      9.38s WALL (      56 calls)

     Called by *egterg:
     cdiaghg      :      0.71s CPU      0.71s WALL (     192 calls)
     h_psi        :      7.43s CPU      7.47s WALL (     196 calls)
     s_psi        :      0.30s CPU      0.30s WALL (     196 calls)
     g_psi        :      0.02s CPU      0.02s WALL (     136 calls)

     Called by h_psi:
     h_psi:calbec :      0.50s CPU      0.51s WALL (     196 calls)
     vloc_psi     :      6.57s CPU      6.60s WALL (     196 calls)
     add_vuspsi   :      0.30s CPU      0.30s WALL (     196 calls)

     General routines
     calbec       :      0.69s CPU      0.69s WALL (     272 calls)
     fft          :      1.20s CPU      1.24s WALL (     967 calls)
     ffts         :      0.01s CPU      0.01s WALL (      14 calls)
     fftw         :      6.90s CPU      6.94s WALL (   18992 calls)

     Parallel routines

     PWSCF        :     16.63s CPU     17.43s WALL


   This run was terminated on:  14:49:18  26Mar2026            

=------------------------------------------------------------------------------=
   JOB DONE.
=------------------------------------------------------------------------------=
