
     Program PWSCF v.7.3.1 starts on 26Mar2026 at 14:49:20 

     This program is part of the open-source Quantum ESPRESSO suite
     for quantum simulation of materials; please cite
         "P. Giannozzi et al., J. Phys.:Condens. Matter 21 395502 (2009);
         "P. Giannozzi et al., J. Phys.:Condens. Matter 29 465901 (2017);
         "P. Giannozzi et al., J. Chem. Phys. 152 154105 (2020);
          URL http://www.quantum-espresso.org", 
     in publications or presentations arising from this work. More details at
     http://www.quantum-espresso.org/quote

     Parallel version (MPI), running on   128 processors

     MPI processes distributed on     1 nodes
     242836 MiB available memory on the printing compute node when the environment starts

     Waiting for input...
     Reading input from standard input

     Current dimensions of program PWSCF are:
     Max number of different atomic species (ntypx) = 10
     Max number of k-points (npk) =  40000
     Max angular momentum in pseudopotentials (lmaxx) =  4

     IMPORTANT: XC functional enforced from input :
     Exchange-correlation= VDW-DF2
                           (   1   4  13   0   2   0   0)
     Any further DFT definition will be discarded
     Please, verify this is what you really want


     K-points division:     npool     =       4
     R & G space division:  proc/nbgrp/npool/nimage =      32
     Subspace diagonalization in iterative solution of the eigenvalue problem:
     a serial algorithm will be used


     Parallelization info
     --------------------
     sticks:   dense  smooth     PW     G-vecs:    dense   smooth      PW
     Min         169     169     50                 6882     6882    1101
     Max         170     170     51                 6885     6885    1103
     Sum        5435    5435   1603               220271   220271   35275

     Using Slab Decomposition



     bravais-lattice index     =            5
     lattice parameter (alat)  =      14.3492  a.u.
     unit-cell volume          =    1908.8735 (a.u.)^3
     number of atoms/cell      =           36
     number of atomic types    =            2
     number of electrons       =        96.00
     number of Kohn-Sham states=           48
     kinetic-energy cutoff     =      90.0000  Ry
     charge density cutoff     =     360.0000  Ry
     scf convergence threshold =      1.0E-07
     mixing beta               =       0.7000
     number of iterations used =            8  plain     mixing
     Exchange-correlation= VDW-DF2
                           (   1   4  13   0   2   0   0)

     celldm(1)=  14.349219  celldm(2)=   0.000000  celldm(3)=   0.000000
     celldm(4)=  -0.392337  celldm(5)=   0.000000  celldm(6)=   0.000000

     crystal axes: (cart. coord. in units of alat)
               a(1) = (   0.834367  -0.481722   0.267909 )  
               a(2) = (   0.000000   0.963444   0.267909 )  
               a(3) = (  -0.834367  -0.481722   0.267909 )  

     reciprocal axes: (cart. coord. in units 2 pi/alat)
               b(1) = (  0.599257 -0.345981  1.244203 )  
               b(2) = ( -0.000000  0.691962  1.244203 )  
               b(3) = ( -0.599257 -0.345981  1.244203 )  


     PseudoPot. # 1 for H  read from file:
     ./H.pbe-van_ak.UPF
     MD5 check sum: 077eb6d537518a38cb46c6de387227b7
     Pseudo is Ultrasoft, Zval =  1.0
     Generated by new atomic code, or converted to UPF format
     Using radial grid of  615 points,  1 beta functions with: 
                l(1) =   0
     Q(r) pseudized with  8 coefficients,  rinner =    0.800

     PseudoPot. # 2 for O  read from file:
     ./O.pbe-van_ak.UPF
     MD5 check sum: 78c19812648e8988a0fe644b0f25305e
     Pseudo is Ultrasoft, Zval =  6.0
     Generated by new atomic code, or converted to UPF format
     Using radial grid of  737 points,  4 beta functions with: 
                l(1) =   0
                l(2) =   0
                l(3) =   1
                l(4) =   1
     Q(r) pseudized with  8 coefficients,  rinner =    0.800   0.800   0.800


     atomic species   valence    mass     pseudopotential
     H                 1.00     1.00800     H ( 1.00)
     O                 6.00    16.00000     O ( 1.00)

      6 Sym. Ops., with inversion, found



   Cartesian axes

     site n.     atom                  positions (alat units)
         1        O      tau(   1) = (  -0.4881587  -0.5153728   0.3102004  )
         2        O      tau(   2) = (   0.4881587   0.5153729   0.4935268  )
         3        O      tau(   3) = (   0.6904053  -0.1650714   0.3102004  )
         4        O      tau(   4) = (  -0.6904053   0.1650714   0.4935268  )
         5        O      tau(   5) = (  -0.2022466   0.6804442   0.3102004  )
         6        O      tau(   6) = (   0.2022466  -0.6804442   0.4935268  )
         7        O      tau(   7) = (   0.1208629   0.3351200   0.4137471  )
         8        O      tau(   8) = (  -0.1208629  -0.3351200   0.3899800  )
         9        O      tau(   9) = (  -0.3506539  -0.0628897   0.4137471  )
        10        O      tau(  10) = (   0.3506539   0.0628897   0.3899800  )
        11        O      tau(  11) = (   0.2297910  -0.2722304   0.4137471  )
        12        O      tau(  12) = (  -0.2297910   0.2722304   0.3899800  )
        13        H      tau(  13) = (  -0.5430428  -0.4102686   0.2622098  )
        14        H      tau(  14) = (   0.5430428   0.4102686   0.5415173  )
        15        H      tau(  15) = (   0.6268245  -0.2651546   0.2622098  )
        16        H      tau(  16) = (  -0.6268245   0.2651546   0.5415173  )
        17        H      tau(  17) = (  -0.0837816   0.6754232   0.2622098  )
        18        H      tau(  18) = (   0.0837817  -0.6754232   0.5415173  )
        19        H      tau(  19) = (  -0.4681736  -0.4859583   0.4327384  )
        20        H      tau(  20) = (   0.4681736   0.4859583   0.3709887  )
        21        H      tau(  21) = (   0.6549390  -0.1624711   0.4327384  )
        22        H      tau(  22) = (  -0.6549390   0.1624711   0.3709887  )
        23        H      tau(  23) = (  -0.1867654   0.6484294   0.4327384  )
        24        H      tau(  24) = (   0.1867654  -0.6484294   0.3709887  )
        25        H      tau(  25) = (   0.2718867  -0.1516220   0.4118766  )
        26        H      tau(  26) = (  -0.2718867   0.1516219   0.3918506  )
        27        H      tau(  27) = (  -0.0046349   0.3112717   0.4118766  )
        28        H      tau(  28) = (   0.0046349  -0.3112717   0.3918506  )
        29        H      tau(  29) = (  -0.2672518  -0.1596498   0.4118766  )
        30        H      tau(  30) = (   0.2672518   0.1596498   0.3918506  )
        31        H      tau(  31) = (   0.3136186  -0.3416266   0.3473301  )
        32        H      tau(  32) = (  -0.3136186   0.3416266   0.4563970  )
        33        H      tau(  33) = (   0.1390481   0.4424150   0.3473301  )
        34        H      tau(  34) = (  -0.1390480  -0.4424150   0.4563970  )
        35        H      tau(  35) = (  -0.4526667  -0.1007884   0.3473301  )
        36        H      tau(  36) = (   0.4526666   0.1007884   0.4563970  )

     number of k points=    14
                       cart. coord. in units 2pi/alat
        k(    1) = (   0.0000000   0.0000000   0.0000000), wk =   0.0312500
        k(    2) = (  -0.1498141  -0.0864952   0.3110508), wk =   0.1875000
        k(    3) = (   0.2996283   0.1729905  -0.6221017), wk =   0.0937500
        k(    4) = (  -0.1498141   0.0864952   0.6221017), wk =   0.1875000
        k(    5) = (   0.2996283   0.3459809  -0.3110508), wk =   0.1875000
        k(    6) = (   0.1498141   0.2594857   0.0000000), wk =   0.1875000
        k(    7) = (   0.2996283  -0.1729905  -1.2442034), wk =   0.0937500
        k(    8) = (   0.0000000   0.0000000   0.9331525), wk =   0.0625000
        k(    9) = (   0.4494424   0.2594857   0.0000000), wk =   0.1875000
        k(   10) = (   0.2996283   0.1729905   0.3110508), wk =   0.1875000
        k(   11) = (   0.4494424  -0.2594857  -0.9331525), wk =   0.1875000
        k(   12) = (   0.2996283  -0.3459809  -0.6221017), wk =   0.1875000
        k(   13) = (   0.0000000   0.0000000  -1.8663050), wk =   0.0312500
        k(   14) = (   0.2996283  -0.3459809   0.3110508), wk =   0.1875000

     Dense  grid:   220271 G-vectors     FFT dimensions: (  90,  90,  90)

     Estimated max dynamical RAM per process >      14.62 MB

     Estimated total dynamical RAM >       1.67 GB

     Initial potential from superposition of free atoms

     starting charge      95.9998, renormalised to      96.0000


     %%%%%%%%%%%%%%%%%%%%%%%%%%%%%%%%%%%%%%%%%%%%%%%%%%%%%%%%%%%%%%%%%%%%%%%%
     %                                                                      %
     % You are using vdW-DF, which was implemented by the Thonhauser group. %
     % Please cite the following two papers that made this development      %
     % possible and the two reviews that describe the various versions:     %
     %                                                                      %
     %   T. Thonhauser et al., PRL 115, 136402 (2015).                      %
     %   T. Thonhauser et al., PRB 76, 125112 (2007).                       %
     %   K. Berland et al., Rep. Prog. Phys. 78, 066501 (2015).             %
     %   D.C. Langreth et al., J. Phys.: Condens. Matter 21, 084203 (2009). %
     %                                                                      %
     % If you are calculating stress with vdW-DF, please also cite:         %
     %                                                                      %
     %   R. Sabatini et al., J. Phys.: Condens. Matter 24, 424209 (2012).   %
     %                                                                      %
     %%%%%%%%%%%%%%%%%%%%%%%%%%%%%%%%%%%%%%%%%%%%%%%%%%%%%%%%%%%%%%%%%%%%%%%%

     %%%%%%%%%%%%%%%%%%%%%%%%%%%%%%%%%%%%%%%%%%%%%%%%%%%%%%%%%%%%%%%%%%%%%%%%
     %                                                                      %
     %  vdW-DF NEWS:                                                        %
     %                                                                      %
     %  * vdW-DF3 is now available. DOI: 10.1021/acs.jctc.0c00471           %
     %    use with input_dft = 'vdW-DF3-opt1' or 'vdW-DF3-opt2'             %
     %                                                                      %
     %  * Unscreened and range-separated hybrid vdW-DF-cx functionals       %
     %    DOI: 10.1063/1.4986522 and 10.1088/1361-648X/ac2ad2               %
     %    use with input_dft = 'vdW-DF-cx0'    and 'vdW-DF-ahcx'            %
     %  * Unscreened and range-separated hybrid vdW-DF2-b86r functionals    %
     %    DOI: 10.1063/1.4986522 and DOI: 10.1103/PhysRevX.12.041003        %
     %    use with input_dft = 'vdW-DF2-br0' and 'vdW-DF2-ahbr'             %
     %                                                                      %
     %%%%%%%%%%%%%%%%%%%%%%%%%%%%%%%%%%%%%%%%%%%%%%%%%%%%%%%%%%%%%%%%%%%%%%%%


     Starting wfcs are   72 randomized atomic wfcs

     total cpu time spent up to now is        2.8 secs

     per-process dynamical memory:    18.8 Mb

     Self-consistent Calculation

     iteration #  1     ecut=    90.00 Ry     beta= 0.70
     Davidson diagonalization with overlap
     ethr =  1.00E-02,  avg # of iterations =  2.0

     total cpu time spent up to now is        3.7 secs

     total energy              =    -415.87651464 Ry
     estimated scf accuracy    <       4.92973503 Ry

     iteration #  2     ecut=    90.00 Ry     beta= 0.70
     Davidson diagonalization with overlap
     ethr =  5.14E-03,  avg # of iterations =  3.0

     total cpu time spent up to now is        4.8 secs

     total energy              =    -417.51510968 Ry
     estimated scf accuracy    <       3.10740396 Ry

     iteration #  3     ecut=    90.00 Ry     beta= 0.70
     Davidson diagonalization with overlap
     ethr =  3.24E-03,  avg # of iterations =  2.0

     total cpu time spent up to now is        5.7 secs

     total energy              =    -417.92542456 Ry
     estimated scf accuracy    <       0.12652506 Ry

     iteration #  4     ecut=    90.00 Ry     beta= 0.70
     Davidson diagonalization with overlap
     ethr =  1.32E-04,  avg # of iterations =  4.0

     total cpu time spent up to now is        6.9 secs

     total energy              =    -418.02170501 Ry
     estimated scf accuracy    <       0.16160152 Ry

     iteration #  5     ecut=    90.00 Ry     beta= 0.70
     Davidson diagonalization with overlap
     ethr =  1.32E-04,  avg # of iterations =  2.0

     total cpu time spent up to now is        7.7 secs

     total energy              =    -418.02754274 Ry
     estimated scf accuracy    <       0.02276687 Ry

     iteration #  6     ecut=    90.00 Ry     beta= 0.70
     Davidson diagonalization with overlap
     ethr =  2.37E-05,  avg # of iterations =  2.0

     total cpu time spent up to now is        8.6 secs

     total energy              =    -418.02825916 Ry
     estimated scf accuracy    <       0.00450473 Ry

     iteration #  7     ecut=    90.00 Ry     beta= 0.70
     Davidson diagonalization with overlap
     ethr =  4.69E-06,  avg # of iterations =  3.0

     total cpu time spent up to now is        9.6 secs

     total energy              =    -418.03093133 Ry
     estimated scf accuracy    <       0.00078271 Ry

     iteration #  8     ecut=    90.00 Ry     beta= 0.70
     Davidson diagonalization with overlap
     ethr =  8.15E-07,  avg # of iterations =  2.0

     total cpu time spent up to now is       10.4 secs

     total energy              =    -418.03037938 Ry
     estimated scf accuracy    <       0.00168185 Ry

     iteration #  9     ecut=    90.00 Ry     beta= 0.70
     Davidson diagonalization with overlap
     ethr =  8.15E-07,  avg # of iterations =  2.0

     total cpu time spent up to now is       11.4 secs

     total energy              =    -418.03042461 Ry
     estimated scf accuracy    <       0.00027996 Ry

     iteration # 10     ecut=    90.00 Ry     beta= 0.70
     Davidson diagonalization with overlap
     ethr =  2.92E-07,  avg # of iterations =  2.0

     total cpu time spent up to now is       12.2 secs

     total energy              =    -418.03045520 Ry
     estimated scf accuracy    <       0.00005141 Ry

     iteration # 11     ecut=    90.00 Ry     beta= 0.70
     Davidson diagonalization with overlap
     ethr =  5.36E-08,  avg # of iterations =  2.0

     total cpu time spent up to now is       13.0 secs

     total energy              =    -418.03045483 Ry
     estimated scf accuracy    <       0.00001891 Ry

     iteration # 12     ecut=    90.00 Ry     beta= 0.70
     Davidson diagonalization with overlap
     ethr =  1.97E-08,  avg # of iterations =  2.0

     total cpu time spent up to now is       13.9 secs

     total energy              =    -418.03045809 Ry
     estimated scf accuracy    <       0.00000152 Ry

     iteration # 13     ecut=    90.00 Ry     beta= 0.70
     Davidson diagonalization with overlap
     ethr =  1.58E-09,  avg # of iterations =  3.1

     total cpu time spent up to now is       15.0 secs

     End of self-consistent calculation

          k = 0.0000 0.0000 0.0000 ( 27563 PWs)   bands (ev):

   -21.2230 -20.6861 -20.6861 -20.4646 -20.4646 -20.4185 -20.4183 -20.4183
   -20.4102 -20.0829 -20.0829 -19.7356  -8.7269  -8.6572  -8.6572  -8.6196
    -8.5200  -8.5200  -8.2197  -8.2197  -8.2180  -8.1715  -8.1515  -8.1515
    -6.8591  -5.7205  -5.7205  -5.0622  -5.0622  -4.8900  -4.8900  -4.7010
    -4.5987  -3.8802  -3.8802  -3.1393  -2.8747  -2.8747  -2.8326  -2.6839
    -2.6839  -2.6449  -2.5389  -2.5389  -2.4863  -2.3873  -2.3434  -2.3434

          k =-0.1498-0.0865 0.3111 ( 27517 PWs)   bands (ev):

   -21.1400 -20.7336 -20.6750 -20.6180 -20.5788 -20.5008 -20.3638 -20.3156
   -20.2451 -20.0886 -20.0421 -19.8001  -8.6878  -8.6661  -8.6443  -8.6021
    -8.5116  -8.4822  -8.2884  -8.2593  -8.2428  -8.1480  -8.0817  -8.0775
    -6.6776  -5.8961  -5.7501  -5.4058  -5.1473  -4.8965  -4.7264  -4.5741
    -4.4156  -3.8722  -3.8105  -3.2848  -2.9669  -2.8933  -2.8504  -2.7625
    -2.7407  -2.6763  -2.5719  -2.5208  -2.4504  -2.4312  -2.3661  -2.3387

          k = 0.2996 0.1730-0.6221 ( 27568 PWs)   bands (ev):

   -20.9277 -20.9189 -20.7147 -20.6941 -20.5738 -20.5707 -20.3058 -20.3039
   -20.1014 -20.0867 -19.9591 -19.9551  -8.6720  -8.6536  -8.6070  -8.5933
    -8.5111  -8.4592  -8.3079  -8.2975  -8.2558  -8.1344  -8.0332  -8.0197
    -6.3158  -6.1852  -5.7383  -5.7311  -5.1391  -5.0646  -4.5924  -4.4947
    -4.0164  -3.9712  -3.7798  -3.5218  -3.0466  -2.9244  -2.8388  -2.8270
    -2.7644  -2.7062  -2.6316  -2.5233  -2.5063  -2.4112  -2.3478  -2.3319

          k =-0.1498 0.0865 0.6221 ( 27522 PWs)   bands (ev):

   -20.9729 -20.8137 -20.7924 -20.6547 -20.6291 -20.5567 -20.3151 -20.2242
   -20.1730 -20.0410 -20.0229 -19.9160  -8.6684  -8.6499  -8.6220  -8.5960
    -8.5045  -8.4420  -8.3083  -8.3010  -8.2818  -8.0924  -8.0551  -8.0238
    -6.3558  -6.0423  -5.9839  -5.4950  -5.2669  -5.0804  -4.5834  -4.3449
    -4.2157  -3.8615  -3.7773  -3.5533  -3.0310  -2.9533  -2.8289  -2.8072
    -2.7379  -2.7304  -2.6408  -2.5266  -2.4904  -2.4142  -2.3724  -2.3147

          k = 0.2996 0.3460-0.3111 ( 27534 PWs)   bands (ev):

   -21.0291 -20.8433 -20.7340 -20.6903 -20.6011 -20.5311 -20.3095 -20.1933
   -20.1749 -20.0831 -20.0142 -19.8965  -8.6743  -8.6629  -8.6272  -8.5795
    -8.5100  -8.4826  -8.3682  -8.3188  -8.2863  -8.1178  -8.0755  -8.0345
    -6.3687  -6.0216  -5.8009  -5.5450  -5.4648  -4.9034  -4.4941  -4.4020
    -4.2094  -3.9307  -3.7711  -3.4857  -2.9610  -2.9126  -2.8484  -2.7922
    -2.7383  -2.6604  -2.6022  -2.5622  -2.4610  -2.4577  -2.3597  -2.2668

          k = 0.1498 0.2595 0.0000 ( 27524 PWs)   bands (ev):

   -21.1622 -20.7758 -20.7088 -20.5851 -20.5529 -20.4673 -20.3642 -20.2896
   -20.2433 -20.0933 -20.0583 -19.7893  -8.7063  -8.6594  -8.6524  -8.6008
    -8.5230  -8.5131  -8.3228  -8.2829  -8.2432  -8.1694  -8.1326  -8.0797
    -6.6614  -5.7820  -5.6615  -5.4442  -5.4022  -4.7942  -4.5998  -4.4818
    -4.4512  -3.9185  -3.8737  -3.2279  -2.8784  -2.8624  -2.8531  -2.7489
    -2.6946  -2.6620  -2.5732  -2.5555  -2.4572  -2.4298  -2.3204  -2.2970

          k = 0.2996-0.1730-1.2442 ( 27530 PWs)   bands (ev):

   -21.0210 -20.9627 -20.7261 -20.6409 -20.5491 -20.4930 -20.2932 -20.2761
   -20.1397 -20.1317 -19.9317 -19.9240  -8.6840  -8.6563  -8.6318  -8.5817
    -8.5243  -8.5216  -8.4055  -8.3315  -8.2697  -8.1337  -8.1310  -8.0642
    -6.1929  -6.1668  -5.7626  -5.6141  -5.3456  -4.9352  -4.4043  -4.3849
    -4.2016  -4.0605  -3.6803  -3.4849  -2.8919  -2.8640  -2.8301  -2.7920
    -2.7100  -2.6630  -2.6059  -2.5301  -2.5172  -2.4268  -2.2800  -2.2794

          k = 0.0000 0.0000 0.9332 ( 27531 PWs)   bands (ev):

   -20.9064 -20.9064 -20.8042 -20.7721 -20.5551 -20.5551 -20.2216 -20.2216
   -20.0768 -20.0502 -20.0154 -20.0154  -8.6635  -8.6635  -8.6362  -8.5330
    -8.5330  -8.5180  -8.4057  -8.3218  -8.3218  -8.0512  -8.0512  -8.0254
    -6.0987  -6.0987  -6.0616  -5.6079  -5.2455  -5.2455  -4.2469  -4.2469
    -4.1867  -3.8422  -3.8422  -3.7312  -2.9141  -2.9141  -2.8105  -2.7839
    -2.7004  -2.7004  -2.6465  -2.5267  -2.5267  -2.4155  -2.4155  -2.2390

          k = 0.4494 0.2595 0.0000 ( 27550 PWs)   bands (ev):

   -21.0498 -20.8605 -20.8383 -20.6427 -20.4880 -20.4731 -20.3303 -20.3132
   -20.1316 -20.0539 -20.0212 -19.8863  -8.6774  -8.6529  -8.6459  -8.5748
    -8.5474  -8.4908  -8.4111  -8.3301  -8.2896  -8.1300  -8.1157  -8.0688
    -6.3285  -5.8891  -5.8298  -5.7234  -5.3018  -4.9363  -4.4928  -4.4043
    -4.1153  -3.9360  -3.8296  -3.4466  -2.8772  -2.8655  -2.8441  -2.7858
    -2.7225  -2.6718  -2.5901  -2.5590  -2.4919  -2.3974  -2.3289  -2.2571

          k = 0.2996 0.1730 0.3111 ( 27516 PWs)   bands (ev):

   -21.0826 -20.7832 -20.6919 -20.6821 -20.5982 -20.5151 -20.3292 -20.2723
   -20.2165 -20.0680 -20.0175 -19.8438  -8.6782  -8.6631  -8.6296  -8.5764
    -8.5207  -8.4599  -8.3344  -8.2766  -8.2378  -8.1907  -8.1304  -8.0531
    -6.4965  -5.8554  -5.8201  -5.5026  -5.3721  -4.8888  -4.6142  -4.4198
    -4.3657  -3.8676  -3.7994  -3.3406  -2.9880  -2.9043  -2.8763  -2.8093
    -2.7710  -2.6410  -2.6146  -2.5287  -2.4308  -2.4282  -2.3426  -2.3129

          k = 0.4494-0.2595-0.9332 ( 27508 PWs)   bands (ev):

   -20.9402 -20.9174 -20.7715 -20.7082 -20.5812 -20.4825 -20.3713 -20.2559
   -20.1176 -20.0431 -19.9963 -19.9141  -8.6667  -8.6430  -8.6296  -8.5501
    -8.5076  -8.4605  -8.3630  -8.3156  -8.2739  -8.1988  -8.1240  -8.0731
    -6.1546  -6.0310  -5.8697  -5.6307  -5.4044  -4.9377  -4.6518  -4.3459
    -4.0877  -3.8684  -3.8177  -3.4521  -2.9916  -2.9295  -2.8961  -2.8296
    -2.8017  -2.6769  -2.5628  -2.5410  -2.4532  -2.4093  -2.3214  -2.2922

          k = 0.2996-0.3460-0.6221 ( 27510 PWs)   bands (ev):

   -20.8857 -20.8728 -20.7571 -20.7405 -20.6018 -20.6001 -20.2825 -20.2784
   -20.0969 -20.0882 -19.9572 -19.9495  -8.6693  -8.6203  -8.5977  -8.5684
    -8.5428  -8.3980  -8.3474  -8.3092  -8.2513  -8.1698  -8.0748  -8.0607
    -6.1565  -6.1149  -5.8082  -5.7461  -5.2264  -5.1810  -4.4868  -4.4046
    -4.0488  -4.0146  -3.7335  -3.5004  -3.0646  -2.9399  -2.8952  -2.8879
    -2.8106  -2.6834  -2.5632  -2.5456  -2.4878  -2.3860  -2.3686  -2.2935

          k = 0.0000 0.0000-1.8663 ( 27414 PWs)   bands (ev):

   -20.8348 -20.8019 -20.7276 -20.7276 -20.7258 -20.7258 -20.1838 -20.1838
   -20.1600 -20.1600 -19.9483 -19.9306  -8.6662  -8.5693  -8.5693  -8.5635
    -8.5635  -8.3997  -8.3266  -8.3259  -8.2272  -8.2272  -8.1158  -8.1158
    -6.1411  -5.9690  -5.6102  -5.6102  -5.5060  -5.5060  -4.1993  -4.1993
    -4.1943  -4.1943  -3.6859  -3.4800  -3.0487  -2.9447  -2.9447  -2.9296
    -2.9296  -2.6255  -2.5711  -2.4680  -2.4680  -2.4044  -2.4044  -2.2555

          k = 0.2996-0.3460 0.3111 ( 27534 PWs)   bands (ev):

   -21.0293 -20.8402 -20.7433 -20.6850 -20.5999 -20.5302 -20.3083 -20.2025
   -20.1716 -20.0799 -20.0120 -19.8982  -8.6767  -8.6534  -8.6350  -8.5609
    -8.5261  -8.4863  -8.3805  -8.3115  -8.2815  -8.1107  -8.0691  -8.0460
    -6.3718  -5.9829  -5.8769  -5.5189  -5.3989  -4.9767  -4.6032  -4.2452
    -4.1335  -3.9750  -3.8660  -3.4473  -2.9738  -2.8953  -2.8351  -2.7856
    -2.7513  -2.6681  -2.6083  -2.5768  -2.4740  -2.4212  -2.3614  -2.2725

     highest occupied level (ev):    -2.2390

!    total energy              =    -418.03045887 Ry
     estimated scf accuracy    <       0.00000003 Ry

     The total energy is the sum of the following terms:
     one-electron contribution =    -285.23448191 Ry
     hartree contribution      =     178.77413895 Ry
     xc contribution           =    -106.59832069 Ry
     ewald contribution        =    -204.97179522 Ry

     convergence has been achieved in  13 iterations

     Forces acting on atoms (cartesian axes, Ry/au):

     atom    1 type  2   force =     0.01118797   -0.03890119   -0.02179573
     atom    2 type  2   force =    -0.01118797    0.03890119    0.02179573
     atom    3 type  2   force =     0.02809543    0.02913966   -0.02179573
     atom    4 type  2   force =    -0.02809543   -0.02913966    0.02179573
     atom    5 type  2   force =    -0.03928340    0.00976153   -0.02179573
     atom    6 type  2   force =     0.03928340   -0.00976153    0.02179573
     atom    7 type  2   force =     0.03162194   -0.02429199    0.01897942
     atom    8 type  2   force =    -0.03162194    0.02429199   -0.01897942
     atom    9 type  2   force =     0.00522651    0.03953140    0.01897942
     atom   10 type  2   force =    -0.00522651   -0.03953140   -0.01897942
     atom   11 type  2   force =    -0.03684845   -0.01523940    0.01897942
     atom   12 type  2   force =     0.03684845    0.01523940   -0.01897942
     atom   13 type  1   force =    -0.01676800    0.03153012   -0.01802928
     atom   14 type  1   force =     0.01676800   -0.03153012    0.01802928
     atom   15 type  1   force =    -0.01892188   -0.03028657   -0.01802928
     atom   16 type  1   force =     0.01892188    0.03028657    0.01802928
     atom   17 type  1   force =     0.03568988   -0.00124354   -0.01802928
     atom   18 type  1   force =    -0.03568988    0.00124354    0.01802928
     atom   19 type  1   force =     0.00758789    0.00693883    0.03939528
     atom   20 type  1   force =    -0.00758789   -0.00693883   -0.03939528
     atom   21 type  1   force =    -0.00980315    0.00310189    0.03939528
     atom   22 type  1   force =     0.00980315   -0.00310189   -0.03939528
     atom   23 type  1   force =     0.00221526   -0.01004072    0.03939528
     atom   24 type  1   force =    -0.00221526    0.01004072   -0.03939528
     atom   25 type  1   force =     0.01187769    0.03788525    0.00057155
     atom   26 type  1   force =    -0.01187769   -0.03788525   -0.00057155
     atom   27 type  1   force =    -0.03874843   -0.00865625    0.00057155
     atom   28 type  1   force =     0.03874843    0.00865625   -0.00057155
     atom   29 type  1   force =     0.02687075   -0.02922900    0.00057155
     atom   30 type  1   force =    -0.02687075    0.02922900   -0.00057155
     atom   31 type  1   force =     0.02574814   -0.02365214   -0.02033660
     atom   32 type  1   force =    -0.02574814    0.02365214    0.02033660
     atom   33 type  1   force =     0.00760928    0.03412461   -0.02033660
     atom   34 type  1   force =    -0.00760928   -0.03412461    0.02033660
     atom   35 type  1   force =    -0.03335742   -0.01047248   -0.02033660
     atom   36 type  1   force =     0.03335742    0.01047248    0.02033660

     Total force =     0.251410     Total SCF correction =     0.000106


     Computing stress (Cartesian axis) and pressure

          total   stress  (Ry/bohr**3)                   (kbar)     P=       67.25
   0.00045943  -0.00000000  -0.00000000           67.58       -0.00       -0.00
   0.00000000   0.00045943   0.00000000            0.00       67.58        0.00
  -0.00000000   0.00000000   0.00045269           -0.00        0.00       66.59


     Writing all to output data dir ./iceII/iceII.save/ :
     XML data file, charge density, pseudopotentials, collected wavefunctions

     init_run     :      2.50s CPU      2.58s WALL (       1 calls)
     electrons    :     11.87s CPU     12.21s WALL (       1 calls)
     forces       :      0.13s CPU      0.13s WALL (       1 calls)
     stress       :      0.95s CPU      0.97s WALL (       1 calls)

     Called by init_run:
     wfcinit      :      0.34s CPU      0.35s WALL (       1 calls)
     potinit      :      1.64s CPU      1.68s WALL (       1 calls)
     hinit0       :      0.39s CPU      0.40s WALL (       1 calls)

     Called by electrons:
     c_bands      :      8.93s CPU      9.03s WALL (      13 calls)
     sum_band     :      1.33s CPU      1.35s WALL (      13 calls)
     v_of_rho     :      3.09s CPU      3.30s WALL (      14 calls)
     newd         :      0.05s CPU      0.05s WALL (      14 calls)
     mix_rho      :      0.04s CPU      0.04s WALL (      13 calls)
     vdW_kernel   :      1.51s CPU      1.52s WALL (       1 calls)

     Called by c_bands:
     init_us_2    :      0.15s CPU      0.16s WALL (     116 calls)
     cegterg      :      8.72s CPU      8.79s WALL (      52 calls)

     Called by *egterg:
     cdiaghg      :      0.66s CPU      0.66s WALL (     176 calls)
     h_psi        :      6.98s CPU      7.04s WALL (     180 calls)
     s_psi        :      0.28s CPU      0.28s WALL (     180 calls)
     g_psi        :      0.02s CPU      0.02s WALL (     124 calls)

     Called by h_psi:
     h_psi:calbec :      0.47s CPU      0.48s WALL (     180 calls)
     vloc_psi     :      6.17s CPU      6.22s WALL (     180 calls)
     add_vuspsi   :      0.29s CPU      0.29s WALL (     180 calls)

     General routines
     calbec       :      0.64s CPU      0.65s WALL (     252 calls)
     fft          :      1.17s CPU      1.19s WALL (     906 calls)
     ffts         :      0.01s CPU      0.01s WALL (      13 calls)
     fftw         :      6.46s CPU      6.51s WALL (   17792 calls)

     Parallel routines

     PWSCF        :     15.76s CPU     16.58s WALL


   This run was terminated on:  14:49:37  26Mar2026            

=------------------------------------------------------------------------------=
   JOB DONE.
=------------------------------------------------------------------------------=
