
     Program PWSCF v.7.3.1 starts on 26Mar2026 at 14:49:43 

     This program is part of the open-source Quantum ESPRESSO suite
     for quantum simulation of materials; please cite
         "P. Giannozzi et al., J. Phys.:Condens. Matter 21 395502 (2009);
         "P. Giannozzi et al., J. Phys.:Condens. Matter 29 465901 (2017);
         "P. Giannozzi et al., J. Chem. Phys. 152 154105 (2020);
          URL http://www.quantum-espresso.org", 
     in publications or presentations arising from this work. More details at
     http://www.quantum-espresso.org/quote

     Parallel version (MPI), running on   128 processors

     MPI processes distributed on     1 nodes
     242826 MiB available memory on the printing compute node when the environment starts

     Waiting for input...
     Reading input from standard input

     Current dimensions of program PWSCF are:
     Max number of different atomic species (ntypx) = 10
     Max number of k-points (npk) =  40000
     Max angular momentum in pseudopotentials (lmaxx) =  4

     IMPORTANT: XC functional enforced from input :
     Exchange-correlation= VDW-DF2
                           (   1   4  13   0   2   0   0)
     Any further DFT definition will be discarded
     Please, verify this is what you really want


     K-points division:     npool     =       4
     R & G space division:  proc/nbgrp/npool/nimage =      32
     Subspace diagonalization in iterative solution of the eigenvalue problem:
     a serial algorithm will be used


     Parallelization info
     --------------------
     sticks:   dense  smooth     PW     G-vecs:    dense   smooth      PW
     Min         170     170     50                 6925     6925    1105
     Max         171     171     51                 6929     6929    1107
     Sum        5455    5455   1603               221651   221651   35413

     Using Slab Decomposition



     bravais-lattice index     =            5
     lattice parameter (alat)  =      14.3786  a.u.
     unit-cell volume          =    1920.6325 (a.u.)^3
     number of atoms/cell      =           36
     number of atomic types    =            2
     number of electrons       =        96.00
     number of Kohn-Sham states=           48
     kinetic-energy cutoff     =      90.0000  Ry
     charge density cutoff     =     360.0000  Ry
     scf convergence threshold =      1.0E-07
     mixing beta               =       0.7000
     number of iterations used =            8  plain     mixing
     Exchange-correlation= VDW-DF2
                           (   1   4  13   0   2   0   0)

     celldm(1)=  14.378623  celldm(2)=   0.000000  celldm(3)=   0.000000
     celldm(4)=  -0.392337  celldm(5)=   0.000000  celldm(6)=   0.000000

     crystal axes: (cart. coord. in units of alat)
               a(1) = (   0.834367  -0.481722   0.267909 )  
               a(2) = (   0.000000   0.963444   0.267909 )  
               a(3) = (  -0.834367  -0.481722   0.267909 )  

     reciprocal axes: (cart. coord. in units 2 pi/alat)
               b(1) = (  0.599257 -0.345981  1.244203 )  
               b(2) = (  0.000000  0.691962  1.244203 )  
               b(3) = ( -0.599257 -0.345981  1.244203 )  


     PseudoPot. # 1 for H  read from file:
     ./H.pbe-van_ak.UPF
     MD5 check sum: 077eb6d537518a38cb46c6de387227b7
     Pseudo is Ultrasoft, Zval =  1.0
     Generated by new atomic code, or converted to UPF format
     Using radial grid of  615 points,  1 beta functions with: 
                l(1) =   0
     Q(r) pseudized with  8 coefficients,  rinner =    0.800

     PseudoPot. # 2 for O  read from file:
     ./O.pbe-van_ak.UPF
     MD5 check sum: 78c19812648e8988a0fe644b0f25305e
     Pseudo is Ultrasoft, Zval =  6.0
     Generated by new atomic code, or converted to UPF format
     Using radial grid of  737 points,  4 beta functions with: 
                l(1) =   0
                l(2) =   0
                l(3) =   1
                l(4) =   1
     Q(r) pseudized with  8 coefficients,  rinner =    0.800   0.800   0.800


     atomic species   valence    mass     pseudopotential
     H                 1.00     1.00800     H ( 1.00)
     O                 6.00    16.00000     O ( 1.00)

      6 Sym. Ops., with inversion, found



   Cartesian axes

     site n.     atom                  positions (alat units)
         1        O      tau(   1) = (  -0.4881587  -0.5153728   0.3102004  )
         2        O      tau(   2) = (   0.4881587   0.5153729   0.4935268  )
         3        O      tau(   3) = (   0.6904053  -0.1650714   0.3102004  )
         4        O      tau(   4) = (  -0.6904053   0.1650714   0.4935268  )
         5        O      tau(   5) = (  -0.2022466   0.6804442   0.3102004  )
         6        O      tau(   6) = (   0.2022466  -0.6804442   0.4935268  )
         7        O      tau(   7) = (   0.1208629   0.3351200   0.4137471  )
         8        O      tau(   8) = (  -0.1208629  -0.3351200   0.3899800  )
         9        O      tau(   9) = (  -0.3506539  -0.0628897   0.4137471  )
        10        O      tau(  10) = (   0.3506539   0.0628897   0.3899800  )
        11        O      tau(  11) = (   0.2297910  -0.2722304   0.4137471  )
        12        O      tau(  12) = (  -0.2297910   0.2722304   0.3899800  )
        13        H      tau(  13) = (  -0.5430428  -0.4102686   0.2622098  )
        14        H      tau(  14) = (   0.5430428   0.4102686   0.5415173  )
        15        H      tau(  15) = (   0.6268245  -0.2651546   0.2622098  )
        16        H      tau(  16) = (  -0.6268245   0.2651546   0.5415173  )
        17        H      tau(  17) = (  -0.0837816   0.6754232   0.2622098  )
        18        H      tau(  18) = (   0.0837817  -0.6754232   0.5415173  )
        19        H      tau(  19) = (  -0.4681736  -0.4859583   0.4327384  )
        20        H      tau(  20) = (   0.4681736   0.4859583   0.3709887  )
        21        H      tau(  21) = (   0.6549390  -0.1624711   0.4327384  )
        22        H      tau(  22) = (  -0.6549390   0.1624711   0.3709887  )
        23        H      tau(  23) = (  -0.1867654   0.6484294   0.4327384  )
        24        H      tau(  24) = (   0.1867654  -0.6484294   0.3709887  )
        25        H      tau(  25) = (   0.2718867  -0.1516220   0.4118766  )
        26        H      tau(  26) = (  -0.2718867   0.1516219   0.3918506  )
        27        H      tau(  27) = (  -0.0046349   0.3112717   0.4118766  )
        28        H      tau(  28) = (   0.0046349  -0.3112717   0.3918506  )
        29        H      tau(  29) = (  -0.2672518  -0.1596498   0.4118766  )
        30        H      tau(  30) = (   0.2672518   0.1596498   0.3918506  )
        31        H      tau(  31) = (   0.3136186  -0.3416266   0.3473301  )
        32        H      tau(  32) = (  -0.3136186   0.3416266   0.4563970  )
        33        H      tau(  33) = (   0.1390481   0.4424150   0.3473301  )
        34        H      tau(  34) = (  -0.1390480  -0.4424150   0.4563970  )
        35        H      tau(  35) = (  -0.4526667  -0.1007884   0.3473301  )
        36        H      tau(  36) = (   0.4526666   0.1007884   0.4563970  )

     number of k points=    14
                       cart. coord. in units 2pi/alat
        k(    1) = (   0.0000000   0.0000000   0.0000000), wk =   0.0312500
        k(    2) = (  -0.1498141  -0.0864952   0.3110508), wk =   0.1875000
        k(    3) = (   0.2996283   0.1729905  -0.6221017), wk =   0.0937500
        k(    4) = (  -0.1498141   0.0864952   0.6221017), wk =   0.1875000
        k(    5) = (   0.2996283   0.3459809  -0.3110508), wk =   0.1875000
        k(    6) = (   0.1498141   0.2594857   0.0000000), wk =   0.1875000
        k(    7) = (   0.2996283  -0.1729905  -1.2442034), wk =   0.0937500
        k(    8) = (   0.0000000   0.0000000   0.9331525), wk =   0.0625000
        k(    9) = (   0.4494424   0.2594857   0.0000000), wk =   0.1875000
        k(   10) = (   0.2996283   0.1729905   0.3110508), wk =   0.1875000
        k(   11) = (   0.4494424  -0.2594857  -0.9331525), wk =   0.1875000
        k(   12) = (   0.2996283  -0.3459809  -0.6221017), wk =   0.1875000
        k(   13) = (   0.0000000   0.0000000  -1.8663050), wk =   0.0312500
        k(   14) = (   0.2996283  -0.3459809   0.3110508), wk =   0.1875000

     Dense  grid:   221651 G-vectors     FFT dimensions: (  90,  90,  90)

     Estimated max dynamical RAM per process >      14.69 MB

     Estimated total dynamical RAM >       1.68 GB

     Initial potential from superposition of free atoms

     starting charge      95.9998, renormalised to      96.0000


     %%%%%%%%%%%%%%%%%%%%%%%%%%%%%%%%%%%%%%%%%%%%%%%%%%%%%%%%%%%%%%%%%%%%%%%%
     %                                                                      %
     % You are using vdW-DF, which was implemented by the Thonhauser group. %
     % Please cite the following two papers that made this development      %
     % possible and the two reviews that describe the various versions:     %
     %                                                                      %
     %   T. Thonhauser et al., PRL 115, 136402 (2015).                      %
     %   T. Thonhauser et al., PRB 76, 125112 (2007).                       %
     %   K. Berland et al., Rep. Prog. Phys. 78, 066501 (2015).             %
     %   D.C. Langreth et al., J. Phys.: Condens. Matter 21, 084203 (2009). %
     %                                                                      %
     % If you are calculating stress with vdW-DF, please also cite:         %
     %                                                                      %
     %   R. Sabatini et al., J. Phys.: Condens. Matter 24, 424209 (2012).   %
     %                                                                      %
     %%%%%%%%%%%%%%%%%%%%%%%%%%%%%%%%%%%%%%%%%%%%%%%%%%%%%%%%%%%%%%%%%%%%%%%%

     %%%%%%%%%%%%%%%%%%%%%%%%%%%%%%%%%%%%%%%%%%%%%%%%%%%%%%%%%%%%%%%%%%%%%%%%
     %                                                                      %
     %  vdW-DF NEWS:                                                        %
     %                                                                      %
     %  * vdW-DF3 is now available. DOI: 10.1021/acs.jctc.0c00471           %
     %    use with input_dft = 'vdW-DF3-opt1' or 'vdW-DF3-opt2'             %
     %                                                                      %
     %  * Unscreened and range-separated hybrid vdW-DF-cx functionals       %
     %    DOI: 10.1063/1.4986522 and 10.1088/1361-648X/ac2ad2               %
     %    use with input_dft = 'vdW-DF-cx0'    and 'vdW-DF-ahcx'            %
     %  * Unscreened and range-separated hybrid vdW-DF2-b86r functionals    %
     %    DOI: 10.1063/1.4986522 and DOI: 10.1103/PhysRevX.12.041003        %
     %    use with input_dft = 'vdW-DF2-br0' and 'vdW-DF2-ahbr'             %
     %                                                                      %
     %%%%%%%%%%%%%%%%%%%%%%%%%%%%%%%%%%%%%%%%%%%%%%%%%%%%%%%%%%%%%%%%%%%%%%%%


     Starting wfcs are   72 randomized atomic wfcs

     total cpu time spent up to now is        2.8 secs

     per-process dynamical memory:    19.2 Mb

     Self-consistent Calculation

     iteration #  1     ecut=    90.00 Ry     beta= 0.70
     Davidson diagonalization with overlap
     ethr =  1.00E-02,  avg # of iterations =  2.0

     total cpu time spent up to now is        3.8 secs

     total energy              =    -415.88457835 Ry
     estimated scf accuracy    <       4.91477596 Ry

     iteration #  2     ecut=    90.00 Ry     beta= 0.70
     Davidson diagonalization with overlap
     ethr =  5.12E-03,  avg # of iterations =  3.0

     total cpu time spent up to now is        4.9 secs

     total energy              =    -417.51809322 Ry
     estimated scf accuracy    <       3.12378449 Ry

     iteration #  3     ecut=    90.00 Ry     beta= 0.70
     Davidson diagonalization with overlap
     ethr =  3.25E-03,  avg # of iterations =  2.0

     total cpu time spent up to now is        5.9 secs

     total energy              =    -417.92958878 Ry
     estimated scf accuracy    <       0.12792115 Ry

     iteration #  4     ecut=    90.00 Ry     beta= 0.70
     Davidson diagonalization with overlap
     ethr =  1.33E-04,  avg # of iterations =  4.0

     total cpu time spent up to now is        7.1 secs

     total energy              =    -418.02701444 Ry
     estimated scf accuracy    <       0.16302873 Ry

     iteration #  5     ecut=    90.00 Ry     beta= 0.70
     Davidson diagonalization with overlap
     ethr =  1.33E-04,  avg # of iterations =  2.0

     total cpu time spent up to now is        8.0 secs

     total energy              =    -418.03290826 Ry
     estimated scf accuracy    <       0.02305549 Ry

     iteration #  6     ecut=    90.00 Ry     beta= 0.70
     Davidson diagonalization with overlap
     ethr =  2.40E-05,  avg # of iterations =  2.0

     total cpu time spent up to now is        8.9 secs

     total energy              =    -418.03354768 Ry
     estimated scf accuracy    <       0.00466561 Ry

     iteration #  7     ecut=    90.00 Ry     beta= 0.70
     Davidson diagonalization with overlap
     ethr =  4.86E-06,  avg # of iterations =  3.0

     total cpu time spent up to now is        9.9 secs

     total energy              =    -418.03629934 Ry
     estimated scf accuracy    <       0.00074928 Ry

     iteration #  8     ecut=    90.00 Ry     beta= 0.70
     Davidson diagonalization with overlap
     ethr =  7.81E-07,  avg # of iterations =  2.0

     total cpu time spent up to now is       10.9 secs

     total energy              =    -418.03571140 Ry
     estimated scf accuracy    <       0.00182517 Ry

     iteration #  9     ecut=    90.00 Ry     beta= 0.70
     Davidson diagonalization with overlap
     ethr =  7.81E-07,  avg # of iterations =  2.0

     total cpu time spent up to now is       11.8 secs

     total energy              =    -418.03575997 Ry
     estimated scf accuracy    <       0.00030478 Ry

     iteration # 10     ecut=    90.00 Ry     beta= 0.70
     Davidson diagonalization with overlap
     ethr =  3.17E-07,  avg # of iterations =  2.0

     total cpu time spent up to now is       12.7 secs

     total energy              =    -418.03579625 Ry
     estimated scf accuracy    <       0.00005599 Ry

     iteration # 11     ecut=    90.00 Ry     beta= 0.70
     Davidson diagonalization with overlap
     ethr =  5.83E-08,  avg # of iterations =  2.0

     total cpu time spent up to now is       13.6 secs

     total energy              =    -418.03579019 Ry
     estimated scf accuracy    <       0.00002813 Ry

     iteration # 12     ecut=    90.00 Ry     beta= 0.70
     Davidson diagonalization with overlap
     ethr =  2.93E-08,  avg # of iterations =  2.0

     total cpu time spent up to now is       14.6 secs

     total energy              =    -418.03579650 Ry
     estimated scf accuracy    <       0.00000090 Ry

     iteration # 13     ecut=    90.00 Ry     beta= 0.70
     Davidson diagonalization with overlap
     ethr =  9.40E-10,  avg # of iterations =  5.0

     total cpu time spent up to now is       15.7 secs

     total energy              =    -418.03579705 Ry
     estimated scf accuracy    <       0.00000016 Ry

     iteration # 14     ecut=    90.00 Ry     beta= 0.70
     Davidson diagonalization with overlap
     ethr =  1.69E-10,  avg # of iterations =  2.0

     total cpu time spent up to now is       16.6 secs

     End of self-consistent calculation

          k = 0.0000 0.0000 0.0000 ( 27737 PWs)   bands (ev):

   -21.2242 -20.6938 -20.6938 -20.4744 -20.4744 -20.4287 -20.4284 -20.4284
   -20.4209 -20.0970 -20.0970 -19.7536  -8.7354  -8.6657  -8.6657  -8.6290
    -8.5305  -8.5305  -8.2321  -8.2321  -8.2300  -8.1836  -8.1645  -8.1645
    -6.8738  -5.7423  -5.7423  -5.0887  -5.0887  -4.9171  -4.9171  -4.7298
    -4.6268  -3.9124  -3.9124  -3.1731  -2.9022  -2.9022  -2.8608  -2.7133
    -2.7133  -2.6747  -2.5690  -2.5690  -2.5170  -2.4199  -2.3756  -2.3756

          k =-0.1498-0.0865 0.3111 ( 27691 PWs)   bands (ev):

   -21.1421 -20.7408 -20.6829 -20.6261 -20.5872 -20.5102 -20.3747 -20.3269
   -20.2573 -20.1027 -20.0567 -19.8173  -8.6966  -8.6748  -8.6532  -8.6114
    -8.5222  -8.4930  -8.2999  -8.2710  -8.2550  -8.1609  -8.0951  -8.0912
    -6.6936  -5.9171  -5.7720  -5.4300  -5.1733  -4.9237  -4.7542  -4.6032
    -4.4447  -3.9044  -3.8430  -3.3186  -2.9935  -2.9204  -2.8785  -2.7910
    -2.7695  -2.7059  -2.6021  -2.5513  -2.4815  -2.4626  -2.3980  -2.3708

          k = 0.2996 0.1730-0.6221 ( 27708 PWs)   bands (ev):

   -20.9322 -20.9235 -20.7219 -20.7017 -20.5824 -20.5793 -20.3173 -20.3153
   -20.1152 -20.1007 -19.9746 -19.9706  -8.6807  -8.6626  -8.6162  -8.6032
    -8.5218  -8.4700  -8.3194  -8.3087  -8.2679  -8.1473  -8.0473  -8.0340
    -6.3339  -6.2049  -5.7604  -5.7532  -5.1646  -5.0909  -4.6209  -4.5239
    -4.0482  -4.0017  -3.8121  -3.5552  -3.0728  -2.9510  -2.8668  -2.8550
    -2.7928  -2.7362  -2.6611  -2.5539  -2.5367  -2.4425  -2.3798  -2.3638

          k =-0.1498 0.0865 0.6221 ( 27673 PWs)   bands (ev):

   -20.9769 -20.8196 -20.7987 -20.6627 -20.6372 -20.5656 -20.3264 -20.2366
   -20.1860 -20.0555 -20.0376 -19.9320  -8.6773  -8.6588  -8.6310  -8.6058
    -8.5152  -8.4532  -8.3197  -8.3124  -8.2934  -8.1060  -8.0690  -8.0380
    -6.3741  -6.0623  -6.0046  -5.5185  -5.2923  -5.1064  -4.6121  -4.3744
    -4.2459  -3.8933  -3.8101  -3.5860  -3.0571  -2.9798  -2.8571  -2.8352
    -2.7672  -2.7594  -2.6703  -2.5570  -2.5210  -2.4453  -2.4043  -2.3468

          k = 0.2996 0.3460-0.3111 ( 27714 PWs)   bands (ev):

   -21.0324 -20.8489 -20.7410 -20.6976 -20.6097 -20.5402 -20.3211 -20.2061
   -20.1880 -20.0972 -20.0290 -19.9127  -8.6831  -8.6720  -8.6363  -8.5893
    -8.5204  -8.4931  -8.3788  -8.3300  -8.2977  -8.1310  -8.0891  -8.0486
    -6.3868  -6.0418  -5.8230  -5.5682  -5.4890  -4.9307  -4.5233  -4.4311
    -4.2399  -3.9618  -3.8042  -3.5195  -2.9880  -2.9397  -2.8762  -2.8204
    -2.7670  -2.6901  -2.6319  -2.5926  -2.4919  -2.4886  -2.3918  -2.2995

          k = 0.1498 0.2595 0.0000 ( 27694 PWs)   bands (ev):

   -21.1640 -20.7821 -20.7161 -20.5938 -20.5618 -20.4771 -20.3752 -20.3014
   -20.2556 -20.1073 -20.0727 -19.8067  -8.7150  -8.6682  -8.6611  -8.6102
    -8.5332  -8.5235  -8.3338  -8.2945  -8.2549  -8.1820  -8.1458  -8.0933
    -6.6777  -5.8035  -5.6843  -5.4681  -5.4265  -4.8219  -4.6289  -4.5108
    -4.4807  -3.9505  -3.9058  -3.2626  -2.9059  -2.8901  -2.8809  -2.7773
    -2.7237  -2.6917  -2.6032  -2.5855  -2.4884  -2.4615  -2.3527  -2.3296

          k = 0.2996-0.1730-1.2442 ( 27726 PWs)   bands (ev):

   -21.0243 -20.9668 -20.7329 -20.6491 -20.5579 -20.5028 -20.3049 -20.2882
   -20.1532 -20.1452 -19.9475 -19.9398  -8.6929  -8.6656  -8.6411  -8.5915
    -8.5340  -8.5315  -8.4155  -8.3427  -8.2811  -8.1468  -8.1440  -8.0780
    -6.2126  -6.1863  -5.7848  -5.6371  -5.3698  -4.9623  -4.4342  -4.4151
    -4.2320  -4.0913  -3.7128  -3.5193  -2.9193  -2.8916  -2.8585  -2.8199
    -2.7388  -2.6926  -2.6357  -2.5605  -2.5483  -2.4580  -2.3126  -2.3123

          k = 0.0000 0.0000 0.9332 ( 27705 PWs)   bands (ev):

   -20.9111 -20.9111 -20.8102 -20.7786 -20.5643 -20.5643 -20.2342 -20.2342
   -20.0909 -20.0647 -20.0302 -20.0302  -8.6726  -8.6726  -8.6452  -8.5432
    -8.5432  -8.5280  -8.4161  -8.3328  -8.3328  -8.0652  -8.0652  -8.0397
    -6.1186  -6.1186  -6.0813  -5.6320  -5.2706  -5.2706  -4.2770  -4.2770
    -4.2162  -3.8747  -3.8747  -3.7637  -2.9415  -2.9415  -2.8386  -2.8125
    -2.7295  -2.7295  -2.6764  -2.5571  -2.5571  -2.4469  -2.4469  -2.2720

          k = 0.4494 0.2595 0.0000 ( 27698 PWs)   bands (ev):

   -21.0528 -20.8656 -20.8439 -20.6509 -20.4978 -20.4830 -20.3418 -20.3246
   -20.1452 -20.0683 -20.0360 -19.9026  -8.6864  -8.6620  -8.6550  -8.5844
    -8.5572  -8.5007  -8.4214  -8.3410  -8.3008  -8.1431  -8.1290  -8.0825
    -6.3471  -5.9101  -5.8517  -5.7461  -5.3262  -4.9630  -4.5224  -4.4343
    -4.1459  -3.9679  -3.8617  -3.4808  -2.9047  -2.8932  -2.8721  -2.8137
    -2.7515  -2.7012  -2.6198  -2.5891  -2.5231  -2.4289  -2.3610  -2.2901

          k = 0.2996 0.1730 0.3111 ( 27666 PWs)   bands (ev):

   -21.0853 -20.7897 -20.6995 -20.6894 -20.6064 -20.5243 -20.3405 -20.2842
   -20.2290 -20.0822 -20.0325 -19.8606  -8.6871  -8.6721  -8.6387  -8.5860
    -8.5312  -8.4705  -8.3455  -8.2881  -8.2498  -8.2032  -8.1432  -8.0670
    -6.5139  -5.8769  -5.8418  -5.5258  -5.3966  -4.9164  -4.6426  -4.4497
    -4.3952  -3.8993  -3.8321  -3.3751  -3.0146  -2.9315  -2.9036  -2.8374
    -2.7994  -2.6707  -2.6444  -2.5591  -2.4619  -2.4595  -2.3748  -2.3453

          k = 0.4494-0.2595-0.9332 ( 27682 PWs)   bands (ev):

   -20.9444 -20.9223 -20.7778 -20.7157 -20.5898 -20.4921 -20.3822 -20.2681
   -20.1314 -20.0576 -20.0114 -19.9301  -8.6758  -8.6522  -8.6390  -8.5601
    -8.5181  -8.4705  -8.3739  -8.3268  -8.2853  -8.2112  -8.1369  -8.0867
    -6.1742  -6.0516  -5.8912  -5.6537  -5.4285  -4.9645  -4.6807  -4.3760
    -4.1190  -3.9001  -3.8500  -3.4865  -3.0184  -2.9565  -2.9235  -2.8575
    -2.8298  -2.7058  -2.5929  -2.5713  -2.4842  -2.4407  -2.3537  -2.3249

          k = 0.2996-0.3460-0.6221 ( 27662 PWs)   bands (ev):

   -20.8907 -20.8781 -20.7638 -20.7475 -20.6100 -20.6083 -20.2943 -20.2902
   -20.1108 -20.1023 -19.9728 -19.9651  -8.6783  -8.6294  -8.6072  -8.5785
    -8.5532  -8.4095  -8.3584  -8.3200  -8.2634  -8.1825  -8.0884  -8.0745
    -6.1760  -6.1350  -5.8299  -5.7684  -5.2515  -5.2067  -4.5160  -4.4349
    -4.0798  -4.0456  -3.7659  -3.5339  -3.0910  -2.9665  -2.9223  -2.9153
    -2.8394  -2.7121  -2.5933  -2.5759  -2.5184  -2.4175  -2.4003  -2.3263

          k = 0.0000 0.0000-1.8663 ( 27612 PWs)   bands (ev):

   -20.8408 -20.8084 -20.7342 -20.7342 -20.7324 -20.7324 -20.1968 -20.1968
   -20.1733 -20.1733 -19.9639 -19.9465  -8.6753  -8.5790  -8.5790  -8.5738
    -8.5738  -8.4104  -8.3377  -8.3371  -8.2396  -8.2396  -8.1288  -8.1288
    -6.1607  -5.9901  -5.6330  -5.6330  -5.5300  -5.5300  -4.2307  -4.2307
    -4.2248  -4.2248  -3.7178  -3.5135  -3.0766  -2.9713  -2.9713  -2.9565
    -2.9565  -2.6545  -2.6011  -2.4988  -2.4988  -2.4358  -2.4358  -2.2888

          k = 0.2996-0.3460 0.3111 ( 27714 PWs)   bands (ev):

   -21.0326 -20.8458 -20.7501 -20.6923 -20.6085 -20.5394 -20.3200 -20.2152
   -20.1847 -20.0940 -20.0269 -19.9144  -8.6857  -8.6624  -8.6441  -8.5710
    -8.5363  -8.4967  -8.3909  -8.3228  -8.2929  -8.1241  -8.0828  -8.0601
    -6.3899  -6.0037  -5.8980  -5.5425  -5.4236  -5.0033  -4.6315  -4.2760
    -4.1643  -4.0068  -3.8972  -3.4816  -3.0007  -2.9227  -2.8631  -2.8139
    -2.7799  -2.6975  -2.6381  -2.6070  -2.5047  -2.4526  -2.3934  -2.3052

     highest occupied level (ev):    -2.2720

!    total energy              =    -418.03579706 Ry
     estimated scf accuracy    <       0.00000004 Ry

     The total energy is the sum of the following terms:
     one-electron contribution =    -285.98253783 Ry
     hartree contribution      =     179.03989685 Ry
     xc contribution           =    -106.54052609 Ry
     ewald contribution        =    -204.55262999 Ry

     convergence has been achieved in  14 iterations

     Forces acting on atoms (cartesian axes, Ry/au):

     atom    1 type  2   force =     0.01012322   -0.03538325   -0.01991937
     atom    2 type  2   force =    -0.01012322    0.03538325    0.01991937
     atom    3 type  2   force =     0.02558119    0.02645860   -0.01991937
     atom    4 type  2   force =    -0.02558119   -0.02645860    0.01991937
     atom    5 type  2   force =    -0.03570441    0.00892466   -0.01991937
     atom    6 type  2   force =     0.03570441   -0.00892466    0.01991937
     atom    7 type  2   force =     0.02885883   -0.02224278    0.01730131
     atom    8 type  2   force =    -0.02885883    0.02224278   -0.01730131
     atom    9 type  2   force =     0.00483340    0.03611388    0.01730131
     atom   10 type  2   force =    -0.00483340   -0.03611388   -0.01730131
     atom   11 type  2   force =    -0.03369223   -0.01387109    0.01730131
     atom   12 type  2   force =     0.03369223    0.01387109   -0.01730131
     atom   13 type  1   force =    -0.01521083    0.02863486   -0.01646879
     atom   14 type  1   force =     0.01521083   -0.02863486    0.01646879
     atom   15 type  1   force =    -0.01719310   -0.02749040   -0.01646879
     atom   16 type  1   force =     0.01719310    0.02749040    0.01646879
     atom   17 type  1   force =     0.03240393   -0.00114446   -0.01646879
     atom   18 type  1   force =    -0.03240393    0.00114446    0.01646879
     atom   19 type  1   force =     0.00688738    0.00629264    0.03584768
     atom   20 type  1   force =    -0.00688738   -0.00629264   -0.03584768
     atom   21 type  1   force =    -0.00889327    0.00281833    0.03584768
     atom   22 type  1   force =     0.00889327   -0.00281833   -0.03584768
     atom   23 type  1   force =     0.00200589   -0.00911097    0.03584768
     atom   24 type  1   force =    -0.00200589    0.00911097   -0.03584768
     atom   25 type  1   force =     0.01084188    0.03440752    0.00052111
     atom   26 type  1   force =    -0.01084188   -0.03440752   -0.00052111
     atom   27 type  1   force =    -0.03521872   -0.00781442    0.00052111
     atom   28 type  1   force =     0.03521872    0.00781442   -0.00052111
     atom   29 type  1   force =     0.02437685   -0.02659310    0.00052111
     atom   30 type  1   force =    -0.02437685    0.02659310   -0.00052111
     atom   31 type  1   force =     0.02340575   -0.02147743   -0.01843487
     atom   32 type  1   force =    -0.02340575    0.02147743    0.01843487
     atom   33 type  1   force =     0.00689713    0.03100869   -0.01843487
     atom   34 type  1   force =    -0.00689713   -0.03100869    0.01843487
     atom   35 type  1   force =    -0.03030288   -0.00953125   -0.01843487
     atom   36 type  1   force =     0.03030288    0.00953125    0.01843487

     Total force =     0.228781     Total SCF correction =     0.000101


     Computing stress (Cartesian axis) and pressure

          total   stress  (Ry/bohr**3)                   (kbar)     P=       60.75
   0.00041491  -0.00000000   0.00000000           61.04       -0.00        0.00
   0.00000000   0.00041491   0.00000000            0.00       61.04        0.00
   0.00000000   0.00000000   0.00040913            0.00        0.00       60.19


     Writing all to output data dir ./iceII/iceII.save/ :
     XML data file, charge density, pseudopotentials, collected wavefunctions

     init_run     :      2.50s CPU      2.62s WALL (       1 calls)
     electrons    :     13.17s CPU     13.85s WALL (       1 calls)
     forces       :      0.12s CPU      0.13s WALL (       1 calls)
     stress       :      0.96s CPU      1.01s WALL (       1 calls)

     Called by init_run:
     wfcinit      :      0.34s CPU      0.35s WALL (       1 calls)
     potinit      :      1.63s CPU      1.72s WALL (       1 calls)
     hinit0       :      0.38s CPU      0.39s WALL (       1 calls)

     Called by electrons:
     c_bands      :      9.70s CPU      9.82s WALL (      14 calls)
     sum_band     :      1.45s CPU      1.47s WALL (      14 calls)
     v_of_rho     :      3.49s CPU      4.06s WALL (      15 calls)
     newd         :      0.07s CPU      0.07s WALL (      15 calls)
     mix_rho      :      0.05s CPU      0.05s WALL (      14 calls)
     vdW_kernel   :      1.51s CPU      1.52s WALL (       1 calls)

     Called by c_bands:
     init_us_2    :      0.16s CPU      0.17s WALL (     124 calls)
     cegterg      :      9.36s CPU      9.45s WALL (      56 calls)

     Called by *egterg:
     cdiaghg      :      0.72s CPU      0.73s WALL (     196 calls)
     h_psi        :      7.43s CPU      7.50s WALL (     200 calls)
     s_psi        :      0.30s CPU      0.30s WALL (     200 calls)
     g_psi        :      0.02s CPU      0.02s WALL (     140 calls)

     Called by h_psi:
     h_psi:calbec :      0.51s CPU      0.51s WALL (     200 calls)
     vloc_psi     :      6.56s CPU      6.63s WALL (     200 calls)
     add_vuspsi   :      0.31s CPU      0.31s WALL (     200 calls)

     General routines
     calbec       :      0.69s CPU      0.70s WALL (     276 calls)
     fft          :      1.50s CPU      1.86s WALL (     967 calls)
     ffts         :      0.01s CPU      0.02s WALL (      14 calls)
     fftw         :      6.90s CPU      6.97s WALL (   18960 calls)

     Parallel routines

     PWSCF        :     17.06s CPU     18.25s WALL


   This run was terminated on:  14:50: 1  26Mar2026            

=------------------------------------------------------------------------------=
   JOB DONE.
=------------------------------------------------------------------------------=
