
     Program PWSCF v.7.3.1 starts on 26Mar2026 at 14:50:49 

     This program is part of the open-source Quantum ESPRESSO suite
     for quantum simulation of materials; please cite
         "P. Giannozzi et al., J. Phys.:Condens. Matter 21 395502 (2009);
         "P. Giannozzi et al., J. Phys.:Condens. Matter 29 465901 (2017);
         "P. Giannozzi et al., J. Chem. Phys. 152 154105 (2020);
          URL http://www.quantum-espresso.org", 
     in publications or presentations arising from this work. More details at
     http://www.quantum-espresso.org/quote

     Parallel version (MPI), running on   128 processors

     MPI processes distributed on     1 nodes
     242847 MiB available memory on the printing compute node when the environment starts

     Waiting for input...
     Reading input from standard input

     Current dimensions of program PWSCF are:
     Max number of different atomic species (ntypx) = 10
     Max number of k-points (npk) =  40000
     Max angular momentum in pseudopotentials (lmaxx) =  4

     IMPORTANT: XC functional enforced from input :
     Exchange-correlation= VDW-DF2
                           (   1   4  13   0   2   0   0)
     Any further DFT definition will be discarded
     Please, verify this is what you really want


     K-points division:     npool     =       4
     R & G space division:  proc/nbgrp/npool/nimage =      32
     Subspace diagonalization in iterative solution of the eigenvalue problem:
     a serial algorithm will be used


     Parallelization info
     --------------------
     sticks:   dense  smooth     PW     G-vecs:    dense   smooth      PW
     Min         171     171     50                 7042     7042    1125
     Max         172     172     51                 7046     7046    1127
     Sum        5501    5501   1625               225437   225437   36043

     Using Slab Decomposition



     bravais-lattice index     =            5
     lattice parameter (alat)  =      14.4668  a.u.
     unit-cell volume          =    1956.1988 (a.u.)^3
     number of atoms/cell      =           36
     number of atomic types    =            2
     number of electrons       =        96.00
     number of Kohn-Sham states=           48
     kinetic-energy cutoff     =      90.0000  Ry
     charge density cutoff     =     360.0000  Ry
     scf convergence threshold =      1.0E-07
     mixing beta               =       0.7000
     number of iterations used =            8  plain     mixing
     Exchange-correlation= VDW-DF2
                           (   1   4  13   0   2   0   0)

     celldm(1)=  14.466835  celldm(2)=   0.000000  celldm(3)=   0.000000
     celldm(4)=  -0.392337  celldm(5)=   0.000000  celldm(6)=   0.000000

     crystal axes: (cart. coord. in units of alat)
               a(1) = (   0.834367  -0.481722   0.267909 )  
               a(2) = (   0.000000   0.963444   0.267909 )  
               a(3) = (  -0.834367  -0.481722   0.267909 )  

     reciprocal axes: (cart. coord. in units 2 pi/alat)
               b(1) = (  0.599257 -0.345981  1.244203 )  
               b(2) = (  0.000000  0.691962  1.244203 )  
               b(3) = ( -0.599257 -0.345981  1.244203 )  


     PseudoPot. # 1 for H  read from file:
     ./H.pbe-van_ak.UPF
     MD5 check sum: 077eb6d537518a38cb46c6de387227b7
     Pseudo is Ultrasoft, Zval =  1.0
     Generated by new atomic code, or converted to UPF format
     Using radial grid of  615 points,  1 beta functions with: 
                l(1) =   0
     Q(r) pseudized with  8 coefficients,  rinner =    0.800

     PseudoPot. # 2 for O  read from file:
     ./O.pbe-van_ak.UPF
     MD5 check sum: 78c19812648e8988a0fe644b0f25305e
     Pseudo is Ultrasoft, Zval =  6.0
     Generated by new atomic code, or converted to UPF format
     Using radial grid of  737 points,  4 beta functions with: 
                l(1) =   0
                l(2) =   0
                l(3) =   1
                l(4) =   1
     Q(r) pseudized with  8 coefficients,  rinner =    0.800   0.800   0.800


     atomic species   valence    mass     pseudopotential
     H                 1.00     1.00800     H ( 1.00)
     O                 6.00    16.00000     O ( 1.00)

      6 Sym. Ops., with inversion, found



   Cartesian axes

     site n.     atom                  positions (alat units)
         1        O      tau(   1) = (  -0.4881587  -0.5153728   0.3102004  )
         2        O      tau(   2) = (   0.4881587   0.5153729   0.4935268  )
         3        O      tau(   3) = (   0.6904053  -0.1650714   0.3102004  )
         4        O      tau(   4) = (  -0.6904053   0.1650714   0.4935268  )
         5        O      tau(   5) = (  -0.2022466   0.6804442   0.3102004  )
         6        O      tau(   6) = (   0.2022466  -0.6804442   0.4935268  )
         7        O      tau(   7) = (   0.1208629   0.3351200   0.4137471  )
         8        O      tau(   8) = (  -0.1208629  -0.3351200   0.3899800  )
         9        O      tau(   9) = (  -0.3506539  -0.0628897   0.4137471  )
        10        O      tau(  10) = (   0.3506539   0.0628897   0.3899800  )
        11        O      tau(  11) = (   0.2297910  -0.2722304   0.4137471  )
        12        O      tau(  12) = (  -0.2297910   0.2722304   0.3899800  )
        13        H      tau(  13) = (  -0.5430428  -0.4102686   0.2622098  )
        14        H      tau(  14) = (   0.5430428   0.4102686   0.5415173  )
        15        H      tau(  15) = (   0.6268245  -0.2651546   0.2622098  )
        16        H      tau(  16) = (  -0.6268245   0.2651546   0.5415173  )
        17        H      tau(  17) = (  -0.0837816   0.6754232   0.2622098  )
        18        H      tau(  18) = (   0.0837817  -0.6754232   0.5415173  )
        19        H      tau(  19) = (  -0.4681736  -0.4859583   0.4327384  )
        20        H      tau(  20) = (   0.4681736   0.4859583   0.3709887  )
        21        H      tau(  21) = (   0.6549390  -0.1624711   0.4327384  )
        22        H      tau(  22) = (  -0.6549390   0.1624711   0.3709887  )
        23        H      tau(  23) = (  -0.1867654   0.6484294   0.4327384  )
        24        H      tau(  24) = (   0.1867654  -0.6484294   0.3709887  )
        25        H      tau(  25) = (   0.2718867  -0.1516220   0.4118766  )
        26        H      tau(  26) = (  -0.2718867   0.1516219   0.3918506  )
        27        H      tau(  27) = (  -0.0046349   0.3112717   0.4118766  )
        28        H      tau(  28) = (   0.0046349  -0.3112717   0.3918506  )
        29        H      tau(  29) = (  -0.2672518  -0.1596498   0.4118766  )
        30        H      tau(  30) = (   0.2672518   0.1596498   0.3918506  )
        31        H      tau(  31) = (   0.3136186  -0.3416266   0.3473301  )
        32        H      tau(  32) = (  -0.3136186   0.3416266   0.4563970  )
        33        H      tau(  33) = (   0.1390481   0.4424150   0.3473301  )
        34        H      tau(  34) = (  -0.1390480  -0.4424150   0.4563970  )
        35        H      tau(  35) = (  -0.4526667  -0.1007884   0.3473301  )
        36        H      tau(  36) = (   0.4526666   0.1007884   0.4563970  )

     number of k points=    14
                       cart. coord. in units 2pi/alat
        k(    1) = (   0.0000000   0.0000000   0.0000000), wk =   0.0312500
        k(    2) = (  -0.1498141  -0.0864952   0.3110508), wk =   0.1875000
        k(    3) = (   0.2996283   0.1729905  -0.6221017), wk =   0.0937500
        k(    4) = (  -0.1498141   0.0864952   0.6221017), wk =   0.1875000
        k(    5) = (   0.2996283   0.3459809  -0.3110508), wk =   0.1875000
        k(    6) = (   0.1498141   0.2594857   0.0000000), wk =   0.1875000
        k(    7) = (   0.2996283  -0.1729905  -1.2442034), wk =   0.0937500
        k(    8) = (   0.0000000   0.0000000   0.9331525), wk =   0.0625000
        k(    9) = (   0.4494424   0.2594857   0.0000000), wk =   0.1875000
        k(   10) = (   0.2996283   0.1729905   0.3110508), wk =   0.1875000
        k(   11) = (   0.4494424  -0.2594857  -0.9331525), wk =   0.1875000
        k(   12) = (   0.2996283  -0.3459809  -0.6221017), wk =   0.1875000
        k(   13) = (   0.0000000   0.0000000  -1.8663050), wk =   0.0312500
        k(   14) = (   0.2996283  -0.3459809   0.3110508), wk =   0.1875000

     Dense  grid:   225437 G-vectors     FFT dimensions: (  90,  90,  90)

     Estimated max dynamical RAM per process >      14.90 MB

     Estimated total dynamical RAM >       1.70 GB

     Initial potential from superposition of free atoms

     starting charge      95.9998, renormalised to      96.0000


     %%%%%%%%%%%%%%%%%%%%%%%%%%%%%%%%%%%%%%%%%%%%%%%%%%%%%%%%%%%%%%%%%%%%%%%%
     %                                                                      %
     % You are using vdW-DF, which was implemented by the Thonhauser group. %
     % Please cite the following two papers that made this development      %
     % possible and the two reviews that describe the various versions:     %
     %                                                                      %
     %   T. Thonhauser et al., PRL 115, 136402 (2015).                      %
     %   T. Thonhauser et al., PRB 76, 125112 (2007).                       %
     %   K. Berland et al., Rep. Prog. Phys. 78, 066501 (2015).             %
     %   D.C. Langreth et al., J. Phys.: Condens. Matter 21, 084203 (2009). %
     %                                                                      %
     % If you are calculating stress with vdW-DF, please also cite:         %
     %                                                                      %
     %   R. Sabatini et al., J. Phys.: Condens. Matter 24, 424209 (2012).   %
     %                                                                      %
     %%%%%%%%%%%%%%%%%%%%%%%%%%%%%%%%%%%%%%%%%%%%%%%%%%%%%%%%%%%%%%%%%%%%%%%%

     %%%%%%%%%%%%%%%%%%%%%%%%%%%%%%%%%%%%%%%%%%%%%%%%%%%%%%%%%%%%%%%%%%%%%%%%
     %                                                                      %
     %  vdW-DF NEWS:                                                        %
     %                                                                      %
     %  * vdW-DF3 is now available. DOI: 10.1021/acs.jctc.0c00471           %
     %    use with input_dft = 'vdW-DF3-opt1' or 'vdW-DF3-opt2'             %
     %                                                                      %
     %  * Unscreened and range-separated hybrid vdW-DF-cx functionals       %
     %    DOI: 10.1063/1.4986522 and 10.1088/1361-648X/ac2ad2               %
     %    use with input_dft = 'vdW-DF-cx0'    and 'vdW-DF-ahcx'            %
     %  * Unscreened and range-separated hybrid vdW-DF2-b86r functionals    %
     %    DOI: 10.1063/1.4986522 and DOI: 10.1103/PhysRevX.12.041003        %
     %    use with input_dft = 'vdW-DF2-br0' and 'vdW-DF2-ahbr'             %
     %                                                                      %
     %%%%%%%%%%%%%%%%%%%%%%%%%%%%%%%%%%%%%%%%%%%%%%%%%%%%%%%%%%%%%%%%%%%%%%%%


     Starting wfcs are   72 randomized atomic wfcs

     total cpu time spent up to now is        2.9 secs

     per-process dynamical memory:    19.1 Mb

     Self-consistent Calculation

     iteration #  1     ecut=    90.00 Ry     beta= 0.70
     Davidson diagonalization with overlap
     ethr =  1.00E-02,  avg # of iterations =  2.0

     total cpu time spent up to now is        3.8 secs

     total energy              =    -415.90429289 Ry
     estimated scf accuracy    <       4.87295615 Ry

     iteration #  2     ecut=    90.00 Ry     beta= 0.70
     Davidson diagonalization with overlap
     ethr =  5.08E-03,  avg # of iterations =  3.0

     total cpu time spent up to now is        5.0 secs

     total energy              =    -417.52242706 Ry
     estimated scf accuracy    <       3.18089457 Ry

     iteration #  3     ecut=    90.00 Ry     beta= 0.70
     Davidson diagonalization with overlap
     ethr =  3.31E-03,  avg # of iterations =  2.0

     total cpu time spent up to now is        5.9 secs

     total energy              =    -417.93919838 Ry
     estimated scf accuracy    <       0.13246848 Ry

     iteration #  4     ecut=    90.00 Ry     beta= 0.70
     Davidson diagonalization with overlap
     ethr =  1.38E-04,  avg # of iterations =  4.0

     total cpu time spent up to now is        7.2 secs

     total energy              =    -418.04031679 Ry
     estimated scf accuracy    <       0.16810470 Ry

     iteration #  5     ecut=    90.00 Ry     beta= 0.70
     Davidson diagonalization with overlap
     ethr =  1.38E-04,  avg # of iterations =  2.0

     total cpu time spent up to now is        8.0 secs

     total energy              =    -418.04624240 Ry
     estimated scf accuracy    <       0.02397887 Ry

     iteration #  6     ecut=    90.00 Ry     beta= 0.70
     Davidson diagonalization with overlap
     ethr =  2.50E-05,  avg # of iterations =  2.0

     total cpu time spent up to now is        8.9 secs

     total energy              =    -418.04691482 Ry
     estimated scf accuracy    <       0.00487162 Ry

     iteration #  7     ecut=    90.00 Ry     beta= 0.70
     Davidson diagonalization with overlap
     ethr =  5.07E-06,  avg # of iterations =  3.0

     total cpu time spent up to now is       10.0 secs

     total energy              =    -418.04984745 Ry
     estimated scf accuracy    <       0.00075648 Ry

     iteration #  8     ecut=    90.00 Ry     beta= 0.70
     Davidson diagonalization with overlap
     ethr =  7.88E-07,  avg # of iterations =  3.0

     total cpu time spent up to now is       10.9 secs

     total energy              =    -418.04914670 Ry
     estimated scf accuracy    <       0.00235426 Ry

     iteration #  9     ecut=    90.00 Ry     beta= 0.70
     Davidson diagonalization with overlap
     ethr =  7.88E-07,  avg # of iterations =  2.0

     total cpu time spent up to now is       11.9 secs

     total energy              =    -418.04916562 Ry
     estimated scf accuracy    <       0.00042906 Ry

     iteration # 10     ecut=    90.00 Ry     beta= 0.70
     Davidson diagonalization with overlap
     ethr =  4.47E-07,  avg # of iterations =  2.0

     total cpu time spent up to now is       12.9 secs

     total energy              =    -418.04924460 Ry
     estimated scf accuracy    <       0.00003911 Ry

     iteration # 11     ecut=    90.00 Ry     beta= 0.70
     Davidson diagonalization with overlap
     ethr =  4.07E-08,  avg # of iterations =  2.0

     total cpu time spent up to now is       13.8 secs

     total energy              =    -418.04924384 Ry
     estimated scf accuracy    <       0.00002040 Ry

     iteration # 12     ecut=    90.00 Ry     beta= 0.70
     Davidson diagonalization with overlap
     ethr =  2.12E-08,  avg # of iterations =  2.0

     total cpu time spent up to now is       14.7 secs

     total energy              =    -418.04924695 Ry
     estimated scf accuracy    <       0.00000177 Ry

     iteration # 13     ecut=    90.00 Ry     beta= 0.70
     Davidson diagonalization with overlap
     ethr =  1.84E-09,  avg # of iterations =  4.0

     total cpu time spent up to now is       15.9 secs

     total energy              =    -418.04924807 Ry
     estimated scf accuracy    <       0.00000043 Ry

     iteration # 14     ecut=    90.00 Ry     beta= 0.70
     Davidson diagonalization with overlap
     ethr =  4.49E-10,  avg # of iterations =  2.0

     total cpu time spent up to now is       16.9 secs

     End of self-consistent calculation

          k = 0.0000 0.0000 0.0000 ( 28157 PWs)   bands (ev):

   -21.2283 -20.7170 -20.7170 -20.5041 -20.5041 -20.4594 -20.4590 -20.4590
   -20.4532 -20.1394 -20.1394 -19.8073  -8.7609  -8.6911  -8.6911  -8.6571
    -8.5618  -8.5618  -8.2690  -8.2690  -8.2662  -8.2198  -8.2032  -8.2032
    -6.9176  -5.8071  -5.8071  -5.1675  -5.1675  -4.9978  -4.9978  -4.8157
    -4.7105  -4.0083  -4.0083  -3.2746  -2.9843  -2.9843  -2.9452  -2.8011
    -2.8011  -2.7635  -2.6588  -2.6588  -2.6087  -2.5172  -2.4718  -2.4718

          k =-0.1498-0.0865 0.3111 ( 28209 PWs)   bands (ev):

   -21.1490 -20.7625 -20.7066 -20.6507 -20.6128 -20.5386 -20.4075 -20.3610
   -20.2940 -20.1447 -20.1004 -19.8689  -8.7232  -8.7009  -8.6798  -8.6395
    -8.5540  -8.5251  -8.3343  -8.3063  -8.2912  -8.1994  -8.1351  -8.1321
    -6.7414  -5.9795  -5.8371  -5.5020  -5.2508  -5.0047  -4.8368  -4.6898
    -4.5314  -4.0005  -3.9399  -3.4199  -3.0729  -3.0015  -2.9623  -2.8762
    -2.8555  -2.7944  -2.6925  -2.6425  -2.5743  -2.5564  -2.4933  -2.4666

          k = 0.2996 0.1730-0.6221 ( 28156 PWs)   bands (ev):

   -20.9462 -20.9380 -20.7439 -20.7248 -20.6086 -20.6056 -20.3517 -20.3498
   -20.1568 -20.1428 -20.0208 -20.0171  -8.7068  -8.6893  -8.6440  -8.6328
    -8.5538  -8.5024  -8.3538  -8.3422  -8.3041  -8.1859  -8.0894  -8.0766
    -6.3878  -6.2636  -5.8265  -5.8192  -5.2409  -5.1694  -4.7058  -4.6110
    -4.1430  -4.0929  -3.9087  -3.6550  -3.1509  -3.0305  -2.9503  -2.9386
    -2.8777  -2.8255  -2.7492  -2.6454  -2.6275  -2.5361  -2.4755  -2.4593

          k =-0.1498 0.0865 0.6221 ( 28187 PWs)   bands (ev):

   -20.9895 -20.8375 -20.8179 -20.6869 -20.6617 -20.5924 -20.3606 -20.2739
   -20.2251 -20.0991 -20.0817 -19.9798  -8.7040  -8.6855  -8.6580  -8.6352
    -8.5474  -8.4867  -8.3537  -8.3463  -8.3279  -8.1465  -8.1103  -8.0802
    -6.4285  -6.1220  -6.0661  -5.5886  -5.3680  -5.1841  -4.6976  -4.4623
    -4.3360  -3.9882  -3.9081  -3.6838  -3.1351  -3.0590  -2.9415  -2.9191
    -2.8552  -2.8460  -2.7587  -2.6480  -2.6123  -2.5385  -2.4997  -2.4429

          k = 0.2996 0.3460-0.3111 ( 28223 PWs)   bands (ev):

   -21.0429 -20.8659 -20.7621 -20.7197 -20.6359 -20.5677 -20.3560 -20.2445
   -20.2272 -20.1394 -20.0735 -19.9610  -8.7094  -8.6992  -8.6637  -8.6185
    -8.5516  -8.5245  -8.4104  -8.3634  -8.3319  -8.1706  -8.1298  -8.0907
    -6.4408  -6.1021  -5.8887  -5.6374  -5.5608  -5.0122  -4.6102  -4.5181
    -4.3310  -4.0546  -3.9027  -3.6202  -3.0686  -3.0206  -2.9592  -2.9050
    -2.8529  -2.7789  -2.7207  -2.6834  -2.5843  -2.5812  -2.4874  -2.3973

          k = 0.1498 0.2595 0.0000 ( 28224 PWs)   bands (ev):

   -21.1701 -20.8015 -20.7381 -20.6200 -20.5887 -20.5067 -20.4084 -20.3368
   -20.2923 -20.1492 -20.1159 -19.8586  -8.7413  -8.6946  -8.6873  -8.6382
    -8.5638  -8.5545  -8.3667  -8.3292  -8.2899  -8.2196  -8.1850  -8.1339
    -6.7261  -5.8677  -5.7522  -5.5393  -5.4988  -4.9045  -4.7157  -4.5973
    -4.5684  -4.0458  -4.0013  -3.3663  -2.9881  -2.9728  -2.9640  -2.8625
    -2.8109  -2.7802  -2.6927  -2.6752  -2.5819  -2.5563  -2.4494  -2.4270

          k = 0.2996-0.1730-1.2442 ( 28194 PWs)   bands (ev):

   -21.0348 -20.9799 -20.7539 -20.6740 -20.5847 -20.5324 -20.3401 -20.3247
   -20.1934 -20.1857 -19.9947 -19.9872  -8.7194  -8.6935  -8.6689  -8.6206
    -8.5629  -8.5609  -8.4455  -8.3760  -8.3154  -8.1859  -8.1826  -8.1192
    -6.2712  -6.2444  -5.8510  -5.7056  -5.4419  -5.0428  -4.5233  -4.5049
    -4.3229  -4.1832  -3.8099  -3.6220  -3.0012  -2.9742  -2.9432  -2.9034
    -2.8248  -2.7809  -2.7248  -2.6511  -2.6413  -2.5513  -2.4103  -2.4101

          k = 0.0000 0.0000 0.9332 ( 28236 PWs)   bands (ev):

   -20.9256 -20.9256 -20.8286 -20.7985 -20.5919 -20.5919 -20.2720 -20.2720
   -20.1330 -20.1081 -20.0743 -20.0743  -8.6996  -8.6996  -8.6721  -8.5737
    -8.5737  -8.5580  -8.4472  -8.3657  -8.3657  -8.1070  -8.1070  -8.0822
    -6.1778  -6.1778  -6.1399  -5.7037  -5.3453  -5.3453  -4.3669  -4.3669
    -4.3041  -3.9718  -3.9718  -3.8606  -3.0230  -3.0230  -2.9229  -2.8978
    -2.8165  -2.8165  -2.7660  -2.6480  -2.6480  -2.5404  -2.5404  -2.3706

          k = 0.4494 0.2595 0.0000 ( 28210 PWs)   bands (ev):

   -21.0625 -20.8815 -20.8614 -20.6758 -20.5273 -20.5129 -20.3763 -20.3590
   -20.1857 -20.1114 -20.0803 -19.9513  -8.7136  -8.6894  -8.6824  -8.6134
    -8.5866  -8.5305  -8.4520  -8.3735  -8.3343  -8.1822  -8.1684  -8.1235
    -6.4025  -5.9727  -5.9169  -5.8140  -5.3990  -5.0425  -4.6106  -4.5236
    -4.2373  -4.0631  -3.9573  -3.5832  -2.9871  -2.9760  -2.9558  -2.8972
    -2.8383  -2.7891  -2.7089  -2.6792  -2.6166  -2.5232  -2.4572  -2.3887

          k = 0.2996 0.1730 0.3111 ( 28198 PWs)   bands (ev):

   -21.0940 -20.8095 -20.7224 -20.7118 -20.6315 -20.5524 -20.3747 -20.3200
   -20.2668 -20.1249 -20.0771 -19.9107  -8.7137  -8.6991  -8.6659  -8.6148
    -8.5626  -8.5024  -8.3787  -8.3227  -8.2859  -8.2405  -8.1813  -8.1085
    -6.5658  -5.9410  -5.9064  -5.5952  -5.4696  -4.9988  -4.7272  -4.5389
    -4.4834  -3.9939  -3.9294  -3.4782  -3.0941  -3.0128  -2.9853  -2.9214
    -2.8843  -2.7594  -2.7335  -2.6502  -2.5552  -2.5531  -2.4711  -2.4420

          k = 0.4494-0.2595-0.9332 ( 28217 PWs)   bands (ev):

   -20.9575 -20.9372 -20.7970 -20.7386 -20.6156 -20.5209 -20.4151 -20.3048
   -20.1725 -20.1012 -20.0565 -19.9779  -8.7030  -8.6799  -8.6672  -8.5901
    -8.5493  -8.5008  -8.4064  -8.3604  -8.3197  -8.2482  -8.1755  -8.1275
    -6.2326  -6.1131  -5.9555  -5.7223  -5.5002  -5.0444  -4.7668  -4.4656
    -4.2124  -3.9946  -3.9463  -3.5890  -3.0986  -3.0372  -3.0051  -2.9408
    -2.9135  -2.7924  -2.6831  -2.6620  -2.5771  -2.5345  -2.4502  -2.4227

          k = 0.2996-0.3460-0.6221 ( 28200 PWs)   bands (ev):

   -20.9064 -20.8943 -20.7840 -20.7688 -20.6349 -20.6334 -20.3297 -20.3258
   -20.1525 -20.1444 -20.0192 -20.0118  -8.7054  -8.6566  -8.6356  -8.6087
    -8.5844  -8.4437  -8.3915  -8.3524  -8.2995  -8.2205  -8.1289  -8.1154
    -6.2342  -6.1947  -5.8944  -5.8346  -5.3265  -5.2833  -4.6033  -4.5250
    -4.1724  -4.1381  -3.8626  -3.6339  -3.1697  -3.0460  -3.0035  -2.9972
    -2.9252  -2.7981  -2.6832  -2.6665  -2.6102  -2.5117  -2.4949  -2.4244

          k = 0.0000 0.0000-1.8663 ( 28230 PWs)   bands (ev):

   -20.8591 -20.8286 -20.7545 -20.7545 -20.7529 -20.7529 -20.2356 -20.2356
   -20.2131 -20.2131 -20.0106 -19.9940  -8.7028  -8.6081  -8.6081  -8.6045
    -8.6045  -8.4425  -8.3729  -8.3683  -8.2767  -8.2767  -8.1674  -8.1674
    -6.2194  -6.0530  -5.7009  -5.7009  -5.6016  -5.6016  -4.3243  -4.3243
    -4.3158  -4.3158  -3.8133  -3.6133  -3.1593  -3.0506  -3.0506  -3.0368
    -3.0368  -2.7414  -2.6909  -2.5910  -2.5910  -2.5297  -2.5297  -2.3883

          k = 0.2996-0.3460 0.3111 ( 28223 PWs)   bands (ev):

   -21.0431 -20.8630 -20.7708 -20.7147 -20.6347 -20.5670 -20.3549 -20.2532
   -20.2240 -20.1363 -20.0714 -19.9626  -8.7125  -8.6892  -8.6716  -8.6010
    -8.5668  -8.5276  -8.4222  -8.3567  -8.3270  -8.1641  -8.1234  -8.1019
    -6.4438  -6.0656  -5.9610  -5.6126  -5.4970  -5.0828  -4.7159  -4.3676
    -4.2558  -4.1015  -3.9903  -3.5840  -3.0808  -3.0044  -2.9469  -2.8984
    -2.8654  -2.7854  -2.7271  -2.6973  -2.5965  -2.5464  -2.4889  -2.4029

     highest occupied level (ev):    -2.3706

!    total energy              =    -418.04924817 Ry
     estimated scf accuracy    <       0.00000002 Ry

     The total energy is the sum of the following terms:
     one-electron contribution =    -288.21163622 Ry
     hartree contribution      =     179.83845474 Ry
     xc contribution           =    -106.37070884 Ry
     ewald contribution        =    -203.30535786 Ry

     convergence has been achieved in  14 iterations

     Forces acting on atoms (cartesian axes, Ry/au):

     atom    1 type  2   force =     0.00699316   -0.02522824   -0.01421509
     atom    2 type  2   force =    -0.00699316    0.02522824    0.01421509
     atom    3 type  2   force =     0.01835172    0.01867037   -0.01421509
     atom    4 type  2   force =    -0.01835172   -0.01867037    0.01421509
     atom    5 type  2   force =    -0.02534488    0.00655786   -0.01421509
     atom    6 type  2   force =     0.02534488   -0.00655786    0.01421509
     atom    7 type  2   force =     0.02079105   -0.01591059    0.01264838
     atom    8 type  2   force =    -0.02079105    0.01591059   -0.01264838
     atom    9 type  2   force =     0.00338345    0.02596087    0.01264838
     atom   10 type  2   force =    -0.00338345   -0.02596087   -0.01264838
     atom   11 type  2   force =    -0.02417450   -0.01005029    0.01264838
     atom   12 type  2   force =     0.02417450    0.01005029   -0.01264838
     atom   13 type  1   force =    -0.01063204    0.02030681   -0.01190094
     atom   14 type  1   force =     0.01063204   -0.02030681    0.01190094
     atom   15 type  1   force =    -0.01227020   -0.01936102   -0.01190094
     atom   16 type  1   force =     0.01227020    0.01936102    0.01190094
     atom   17 type  1   force =     0.02290223   -0.00094579   -0.01190094
     atom   18 type  1   force =    -0.02290223    0.00094579    0.01190094
     atom   19 type  1   force =     0.00488414    0.00439117    0.02553235
     atom   20 type  1   force =    -0.00488414   -0.00439117   -0.02553235
     atom   21 type  1   force =    -0.00624493    0.00203421    0.02553235
     atom   22 type  1   force =     0.00624493   -0.00203421   -0.02553235
     atom   23 type  1   force =     0.00136079   -0.00642537    0.02553235
     atom   24 type  1   force =    -0.00136079    0.00642537   -0.02553235
     atom   25 type  1   force =     0.00784099    0.02426394    0.00028186
     atom   26 type  1   force =    -0.00784099   -0.02426394   -0.00028186
     atom   27 type  1   force =    -0.02493368   -0.00534147    0.00028186
     atom   28 type  1   force =     0.02493368    0.00534147   -0.00028186
     atom   29 type  1   force =     0.01709269   -0.01892246    0.00028186
     atom   30 type  1   force =    -0.01709269    0.01892246   -0.00028186
     atom   31 type  1   force =     0.01664260   -0.01514679   -0.01288529
     atom   32 type  1   force =    -0.01664260    0.01514679    0.01288529
     atom   33 type  1   force =     0.00479620    0.02198631   -0.01288529
     atom   34 type  1   force =    -0.00479620   -0.02198631    0.01288529
     atom   35 type  1   force =    -0.02143881   -0.00683952   -0.01288529
     atom   36 type  1   force =     0.02143881    0.00683952    0.01288529

     Total force =     0.162806     Total SCF correction =     0.000093


     Computing stress (Cartesian axis) and pressure

          total   stress  (Ry/bohr**3)                   (kbar)     P=       42.91
   0.00029260   0.00000000  -0.00000000           43.04        0.00       -0.00
  -0.00000000   0.00029260   0.00000000           -0.00       43.04        0.00
   0.00000000   0.00000000   0.00028979            0.00        0.00       42.63


     Writing all to output data dir ./iceII/iceII.save/ :
     XML data file, charge density, pseudopotentials, collected wavefunctions

     init_run     :      2.55s CPU      2.64s WALL (       1 calls)
     electrons    :     13.43s CPU     14.06s WALL (       1 calls)
     forces       :      0.13s CPU      0.13s WALL (       1 calls)
     stress       :      0.99s CPU      1.03s WALL (       1 calls)

     Called by init_run:
     wfcinit      :      0.34s CPU      0.34s WALL (       1 calls)
     potinit      :      1.68s CPU      1.73s WALL (       1 calls)
     hinit0       :      0.38s CPU      0.39s WALL (       1 calls)

     Called by electrons:
     c_bands      :      9.92s CPU     10.00s WALL (      14 calls)
     sum_band     :      1.43s CPU      1.46s WALL (      14 calls)
     v_of_rho     :      3.58s CPU      4.10s WALL (      15 calls)
     newd         :      0.07s CPU      0.07s WALL (      15 calls)
     mix_rho      :      0.05s CPU      0.05s WALL (      14 calls)
     vdW_kernel   :      1.51s CPU      1.52s WALL (       1 calls)

     Called by c_bands:
     init_us_2    :      0.16s CPU      0.17s WALL (     124 calls)
     cegterg      :      9.68s CPU      9.73s WALL (      56 calls)

     Called by *egterg:
     cdiaghg      :      0.75s CPU      0.75s WALL (     196 calls)
     h_psi        :      7.65s CPU      7.70s WALL (     200 calls)
     s_psi        :      0.31s CPU      0.31s WALL (     200 calls)
     g_psi        :      0.02s CPU      0.02s WALL (     140 calls)

     Called by h_psi:
     h_psi:calbec :      0.52s CPU      0.52s WALL (     200 calls)
     vloc_psi     :      6.76s CPU      6.81s WALL (     200 calls)
     add_vuspsi   :      0.31s CPU      0.31s WALL (     200 calls)

     General routines
     calbec       :      0.71s CPU      0.71s WALL (     276 calls)
     fft          :      1.63s CPU      1.92s WALL (     967 calls)
     ffts         :      0.02s CPU      0.02s WALL (      14 calls)
     fftw         :      7.06s CPU      7.10s WALL (   19458 calls)

     Parallel routines

     PWSCF        :     17.45s CPU     18.57s WALL


   This run was terminated on:  14:51: 7  26Mar2026            

=------------------------------------------------------------------------------=
   JOB DONE.
=------------------------------------------------------------------------------=
