
     Program PWSCF v.7.3.1 starts on 26Mar2026 at 14:52:19 

     This program is part of the open-source Quantum ESPRESSO suite
     for quantum simulation of materials; please cite
         "P. Giannozzi et al., J. Phys.:Condens. Matter 21 395502 (2009);
         "P. Giannozzi et al., J. Phys.:Condens. Matter 29 465901 (2017);
         "P. Giannozzi et al., J. Chem. Phys. 152 154105 (2020);
          URL http://www.quantum-espresso.org", 
     in publications or presentations arising from this work. More details at
     http://www.quantum-espresso.org/quote

     Parallel version (MPI), running on   128 processors

     MPI processes distributed on     1 nodes
     242751 MiB available memory on the printing compute node when the environment starts

     Waiting for input...
     Reading input from standard input

     Current dimensions of program PWSCF are:
     Max number of different atomic species (ntypx) = 10
     Max number of k-points (npk) =  40000
     Max angular momentum in pseudopotentials (lmaxx) =  4

     IMPORTANT: XC functional enforced from input :
     Exchange-correlation= VDW-DF2
                           (   1   4  13   0   2   0   0)
     Any further DFT definition will be discarded
     Please, verify this is what you really want


     K-points division:     npool     =       4
     R & G space division:  proc/nbgrp/npool/nimage =      32
     Subspace diagonalization in iterative solution of the eigenvalue problem:
     a serial algorithm will be used


     Parallelization info
     --------------------
     sticks:   dense  smooth     PW     G-vecs:    dense   smooth      PW
     Min         175     175     51                 7225     7225    1151
     Max         176     176     52                 7228     7228    1154
     Sum        5601    5601   1641               231245   231245   36865

     Using Slab Decomposition



     bravais-lattice index     =            5
     lattice parameter (alat)  =      14.5845  a.u.
     unit-cell volume          =    2004.3000 (a.u.)^3
     number of atoms/cell      =           36
     number of atomic types    =            2
     number of electrons       =        96.00
     number of Kohn-Sham states=           48
     kinetic-energy cutoff     =      90.0000  Ry
     charge density cutoff     =     360.0000  Ry
     scf convergence threshold =      1.0E-07
     mixing beta               =       0.7000
     number of iterations used =            8  plain     mixing
     Exchange-correlation= VDW-DF2
                           (   1   4  13   0   2   0   0)

     celldm(1)=  14.584452  celldm(2)=   0.000000  celldm(3)=   0.000000
     celldm(4)=  -0.392337  celldm(5)=   0.000000  celldm(6)=   0.000000

     crystal axes: (cart. coord. in units of alat)
               a(1) = (   0.834367  -0.481722   0.267909 )  
               a(2) = (   0.000000   0.963444   0.267909 )  
               a(3) = (  -0.834367  -0.481722   0.267909 )  

     reciprocal axes: (cart. coord. in units 2 pi/alat)
               b(1) = (  0.599257 -0.345981  1.244203 )  
               b(2) = ( -0.000000  0.691962  1.244203 )  
               b(3) = ( -0.599257 -0.345981  1.244203 )  


     PseudoPot. # 1 for H  read from file:
     ./H.pbe-van_ak.UPF
     MD5 check sum: 077eb6d537518a38cb46c6de387227b7
     Pseudo is Ultrasoft, Zval =  1.0
     Generated by new atomic code, or converted to UPF format
     Using radial grid of  615 points,  1 beta functions with: 
                l(1) =   0
     Q(r) pseudized with  8 coefficients,  rinner =    0.800

     PseudoPot. # 2 for O  read from file:
     ./O.pbe-van_ak.UPF
     MD5 check sum: 78c19812648e8988a0fe644b0f25305e
     Pseudo is Ultrasoft, Zval =  6.0
     Generated by new atomic code, or converted to UPF format
     Using radial grid of  737 points,  4 beta functions with: 
                l(1) =   0
                l(2) =   0
                l(3) =   1
                l(4) =   1
     Q(r) pseudized with  8 coefficients,  rinner =    0.800   0.800   0.800


     atomic species   valence    mass     pseudopotential
     H                 1.00     1.00800     H ( 1.00)
     O                 6.00    16.00000     O ( 1.00)

      6 Sym. Ops., with inversion, found



   Cartesian axes

     site n.     atom                  positions (alat units)
         1        O      tau(   1) = (  -0.4881587  -0.5153728   0.3102004  )
         2        O      tau(   2) = (   0.4881587   0.5153729   0.4935268  )
         3        O      tau(   3) = (   0.6904053  -0.1650714   0.3102004  )
         4        O      tau(   4) = (  -0.6904053   0.1650714   0.4935268  )
         5        O      tau(   5) = (  -0.2022466   0.6804442   0.3102004  )
         6        O      tau(   6) = (   0.2022466  -0.6804442   0.4935268  )
         7        O      tau(   7) = (   0.1208629   0.3351200   0.4137471  )
         8        O      tau(   8) = (  -0.1208629  -0.3351200   0.3899800  )
         9        O      tau(   9) = (  -0.3506539  -0.0628897   0.4137471  )
        10        O      tau(  10) = (   0.3506539   0.0628897   0.3899800  )
        11        O      tau(  11) = (   0.2297910  -0.2722304   0.4137471  )
        12        O      tau(  12) = (  -0.2297910   0.2722304   0.3899800  )
        13        H      tau(  13) = (  -0.5430428  -0.4102686   0.2622098  )
        14        H      tau(  14) = (   0.5430428   0.4102686   0.5415173  )
        15        H      tau(  15) = (   0.6268245  -0.2651546   0.2622098  )
        16        H      tau(  16) = (  -0.6268245   0.2651546   0.5415173  )
        17        H      tau(  17) = (  -0.0837816   0.6754232   0.2622098  )
        18        H      tau(  18) = (   0.0837817  -0.6754232   0.5415173  )
        19        H      tau(  19) = (  -0.4681736  -0.4859583   0.4327384  )
        20        H      tau(  20) = (   0.4681736   0.4859583   0.3709887  )
        21        H      tau(  21) = (   0.6549390  -0.1624711   0.4327384  )
        22        H      tau(  22) = (  -0.6549390   0.1624711   0.3709887  )
        23        H      tau(  23) = (  -0.1867654   0.6484294   0.4327384  )
        24        H      tau(  24) = (   0.1867654  -0.6484294   0.3709887  )
        25        H      tau(  25) = (   0.2718867  -0.1516220   0.4118766  )
        26        H      tau(  26) = (  -0.2718867   0.1516219   0.3918506  )
        27        H      tau(  27) = (  -0.0046349   0.3112717   0.4118766  )
        28        H      tau(  28) = (   0.0046349  -0.3112717   0.3918506  )
        29        H      tau(  29) = (  -0.2672518  -0.1596498   0.4118766  )
        30        H      tau(  30) = (   0.2672518   0.1596498   0.3918506  )
        31        H      tau(  31) = (   0.3136186  -0.3416266   0.3473301  )
        32        H      tau(  32) = (  -0.3136186   0.3416266   0.4563970  )
        33        H      tau(  33) = (   0.1390481   0.4424150   0.3473301  )
        34        H      tau(  34) = (  -0.1390480  -0.4424150   0.4563970  )
        35        H      tau(  35) = (  -0.4526667  -0.1007884   0.3473301  )
        36        H      tau(  36) = (   0.4526666   0.1007884   0.4563970  )

     number of k points=    14
                       cart. coord. in units 2pi/alat
        k(    1) = (   0.0000000   0.0000000   0.0000000), wk =   0.0312500
        k(    2) = (  -0.1498141  -0.0864952   0.3110508), wk =   0.1875000
        k(    3) = (   0.2996283   0.1729905  -0.6221017), wk =   0.0937500
        k(    4) = (  -0.1498141   0.0864952   0.6221017), wk =   0.1875000
        k(    5) = (   0.2996283   0.3459809  -0.3110508), wk =   0.1875000
        k(    6) = (   0.1498141   0.2594857   0.0000000), wk =   0.1875000
        k(    7) = (   0.2996283  -0.1729905  -1.2442034), wk =   0.0937500
        k(    8) = (   0.0000000   0.0000000   0.9331525), wk =   0.0625000
        k(    9) = (   0.4494424   0.2594857   0.0000000), wk =   0.1875000
        k(   10) = (   0.2996283   0.1729905   0.3110508), wk =   0.1875000
        k(   11) = (   0.4494424  -0.2594857  -0.9331525), wk =   0.1875000
        k(   12) = (   0.2996283  -0.3459809  -0.6221017), wk =   0.1875000
        k(   13) = (   0.0000000   0.0000000  -1.8663050), wk =   0.0312500
        k(   14) = (   0.2996283  -0.3459809   0.3110508), wk =   0.1875000

     Dense  grid:   231245 G-vectors     FFT dimensions: (  90,  90,  90)

     Estimated max dynamical RAM per process >      15.20 MB

     Estimated total dynamical RAM >       1.73 GB

     Initial potential from superposition of free atoms

     starting charge      95.9998, renormalised to      96.0000


     %%%%%%%%%%%%%%%%%%%%%%%%%%%%%%%%%%%%%%%%%%%%%%%%%%%%%%%%%%%%%%%%%%%%%%%%
     %                                                                      %
     % You are using vdW-DF, which was implemented by the Thonhauser group. %
     % Please cite the following two papers that made this development      %
     % possible and the two reviews that describe the various versions:     %
     %                                                                      %
     %   T. Thonhauser et al., PRL 115, 136402 (2015).                      %
     %   T. Thonhauser et al., PRB 76, 125112 (2007).                       %
     %   K. Berland et al., Rep. Prog. Phys. 78, 066501 (2015).             %
     %   D.C. Langreth et al., J. Phys.: Condens. Matter 21, 084203 (2009). %
     %                                                                      %
     % If you are calculating stress with vdW-DF, please also cite:         %
     %                                                                      %
     %   R. Sabatini et al., J. Phys.: Condens. Matter 24, 424209 (2012).   %
     %                                                                      %
     %%%%%%%%%%%%%%%%%%%%%%%%%%%%%%%%%%%%%%%%%%%%%%%%%%%%%%%%%%%%%%%%%%%%%%%%

     %%%%%%%%%%%%%%%%%%%%%%%%%%%%%%%%%%%%%%%%%%%%%%%%%%%%%%%%%%%%%%%%%%%%%%%%
     %                                                                      %
     %  vdW-DF NEWS:                                                        %
     %                                                                      %
     %  * vdW-DF3 is now available. DOI: 10.1021/acs.jctc.0c00471           %
     %    use with input_dft = 'vdW-DF3-opt1' or 'vdW-DF3-opt2'             %
     %                                                                      %
     %  * Unscreened and range-separated hybrid vdW-DF-cx functionals       %
     %    DOI: 10.1063/1.4986522 and 10.1088/1361-648X/ac2ad2               %
     %    use with input_dft = 'vdW-DF-cx0'    and 'vdW-DF-ahcx'            %
     %  * Unscreened and range-separated hybrid vdW-DF2-b86r functionals    %
     %    DOI: 10.1063/1.4986522 and DOI: 10.1103/PhysRevX.12.041003        %
     %    use with input_dft = 'vdW-DF2-br0' and 'vdW-DF2-ahbr'             %
     %                                                                      %
     %%%%%%%%%%%%%%%%%%%%%%%%%%%%%%%%%%%%%%%%%%%%%%%%%%%%%%%%%%%%%%%%%%%%%%%%


     Starting wfcs are   72 randomized atomic wfcs

     total cpu time spent up to now is        2.9 secs

     per-process dynamical memory:    19.7 Mb

     Self-consistent Calculation

     iteration #  1     ecut=    90.00 Ry     beta= 0.70
     Davidson diagonalization with overlap
     ethr =  1.00E-02,  avg # of iterations =  2.0

     total cpu time spent up to now is        3.8 secs

     total energy              =    -415.92464644 Ry
     estimated scf accuracy    <       4.81922931 Ry

     iteration #  2     ecut=    90.00 Ry     beta= 0.70
     Davidson diagonalization with overlap
     ethr =  5.02E-03,  avg # of iterations =  3.0

     total cpu time spent up to now is        5.0 secs

     total energy              =    -417.51771414 Ry
     estimated scf accuracy    <       3.26941295 Ry

     iteration #  3     ecut=    90.00 Ry     beta= 0.70
     Davidson diagonalization with overlap
     ethr =  3.41E-03,  avg # of iterations =  2.0

     total cpu time spent up to now is        5.9 secs

     total energy              =    -417.94603608 Ry
     estimated scf accuracy    <       0.13809598 Ry

     iteration #  4     ecut=    90.00 Ry     beta= 0.70
     Davidson diagonalization with overlap
     ethr =  1.44E-04,  avg # of iterations =  4.0

     total cpu time spent up to now is        7.3 secs

     total energy              =    -418.05177952 Ry
     estimated scf accuracy    <       0.17468014 Ry

     iteration #  5     ecut=    90.00 Ry     beta= 0.70
     Davidson diagonalization with overlap
     ethr =  1.44E-04,  avg # of iterations =  2.0

     total cpu time spent up to now is        8.1 secs

     total energy              =    -418.05760398 Ry
     estimated scf accuracy    <       0.02523886 Ry

     iteration #  6     ecut=    90.00 Ry     beta= 0.70
     Davidson diagonalization with overlap
     ethr =  2.63E-05,  avg # of iterations =  2.0

     total cpu time spent up to now is        9.0 secs

     total energy              =    -418.05851145 Ry
     estimated scf accuracy    <       0.00488947 Ry

     iteration #  7     ecut=    90.00 Ry     beta= 0.70
     Davidson diagonalization with overlap
     ethr =  5.09E-06,  avg # of iterations =  3.0

     total cpu time spent up to now is       10.1 secs

     total energy              =    -418.06162987 Ry
     estimated scf accuracy    <       0.00083914 Ry

     iteration #  8     ecut=    90.00 Ry     beta= 0.70
     Davidson diagonalization with overlap
     ethr =  8.74E-07,  avg # of iterations =  3.0

     total cpu time spent up to now is       11.1 secs

     total energy              =    -418.06074368 Ry
     estimated scf accuracy    <       0.00299652 Ry

     iteration #  9     ecut=    90.00 Ry     beta= 0.70
     Davidson diagonalization with overlap
     ethr =  8.74E-07,  avg # of iterations =  2.2

     total cpu time spent up to now is       12.2 secs

     total energy              =    -418.06080002 Ry
     estimated scf accuracy    <       0.00052420 Ry

     iteration # 10     ecut=    90.00 Ry     beta= 0.70
     Davidson diagonalization with overlap
     ethr =  5.46E-07,  avg # of iterations =  2.0

     total cpu time spent up to now is       13.1 secs

     total energy              =    -418.06088248 Ry
     estimated scf accuracy    <       0.00006516 Ry

     iteration # 11     ecut=    90.00 Ry     beta= 0.70
     Davidson diagonalization with overlap
     ethr =  6.79E-08,  avg # of iterations =  2.0

     total cpu time spent up to now is       14.0 secs

     total energy              =    -418.06088072 Ry
     estimated scf accuracy    <       0.00002952 Ry

     iteration # 12     ecut=    90.00 Ry     beta= 0.70
     Davidson diagonalization with overlap
     ethr =  3.08E-08,  avg # of iterations =  2.1

     total cpu time spent up to now is       15.0 secs

     total energy              =    -418.06088717 Ry
     estimated scf accuracy    <       0.00000139 Ry

     iteration # 13     ecut=    90.00 Ry     beta= 0.70
     Davidson diagonalization with overlap
     ethr =  1.44E-09,  avg # of iterations =  4.7

     total cpu time spent up to now is       16.4 secs

     total energy              =    -418.06088829 Ry
     estimated scf accuracy    <       0.00000016 Ry

     iteration # 14     ecut=    90.00 Ry     beta= 0.70
     Davidson diagonalization with overlap
     ethr =  1.67E-10,  avg # of iterations =  3.0

     total cpu time spent up to now is       17.5 secs

     total energy              =    -418.06088838 Ry
     estimated scf accuracy    <       0.00000016 Ry

     iteration # 15     ecut=    90.00 Ry     beta= 0.70
     Davidson diagonalization with overlap
     ethr =  1.63E-10,  avg # of iterations =  1.0

     total cpu time spent up to now is       18.3 secs

     total energy              =    -418.06088831 Ry
     estimated scf accuracy    <       0.00000016 Ry

     iteration # 16     ecut=    90.00 Ry     beta= 0.70
     Davidson diagonalization with overlap
     ethr =  1.63E-10,  avg # of iterations =  2.0

     total cpu time spent up to now is       19.3 secs

     End of self-consistent calculation

          k = 0.0000 0.0000 0.0000 ( 28931 PWs)   bands (ev):

   -21.2336 -20.7467 -20.7467 -20.5422 -20.5422 -20.4988 -20.4983 -20.4983
   -20.4945 -20.1937 -20.1937 -19.8762  -8.7934  -8.7235  -8.7235  -8.6929
    -8.6017  -8.6017  -8.3160  -8.3160  -8.3122  -8.2658  -8.2526  -8.2526
    -6.9740  -5.8908  -5.8908  -5.2694  -5.2694  -5.1021  -5.1021  -4.9269
    -4.8191  -4.1327  -4.1327  -3.4071  -3.0908  -3.0908  -3.0541  -2.9147
    -2.9147  -2.8782  -2.7752  -2.7752  -2.7278  -2.6430  -2.5965  -2.5965

          k =-0.1498-0.0865 0.3111 ( 28859 PWs)   bands (ev):

   -21.1578 -20.7902 -20.7369 -20.6823 -20.6457 -20.5751 -20.4496 -20.4047
   -20.3411 -20.1987 -20.1563 -19.9351  -8.7569  -8.7340  -8.7136  -8.6752
    -8.5943  -8.5658  -8.3781  -8.3511  -8.3371  -8.2483  -8.1860  -8.1841
    -6.8028  -6.0599  -5.9212  -5.5950  -5.3510  -5.1095  -4.9436  -4.8019
    -4.6439  -4.1250  -4.0656  -3.5519  -3.1759  -3.1066  -3.0704  -2.9863
    -2.9667  -2.9088  -2.8095  -2.7606  -2.6944  -2.6780  -2.6167  -2.5907

          k = 0.2996 0.1730-0.6221 ( 28896 PWs)   bands (ev):

   -20.9641 -20.9567 -20.7718 -20.7544 -20.6420 -20.6394 -20.3957 -20.3942
   -20.2101 -20.1967 -20.0800 -20.0767  -8.7400  -8.7234  -8.6793  -8.6704
    -8.5944  -8.5435  -8.3975  -8.3848  -8.3501  -8.2351  -8.1430  -8.1308
    -6.4573  -6.3393  -5.9119  -5.9044  -5.3395  -5.2710  -4.8157  -4.7236
    -4.2657  -4.2116  -4.0339  -3.7852  -3.2521  -3.1337  -3.0584  -3.0468
    -2.9876  -2.9407  -2.8634  -2.7637  -2.7454  -2.6574  -2.5996  -2.5830

          k =-0.1498 0.0865 0.6221 ( 28876 PWs)   bands (ev):

   -21.0057 -20.8604 -20.8426 -20.7178 -20.6931 -20.6268 -20.4044 -20.3217
   -20.2753 -20.1549 -20.1382 -20.0411  -8.7378  -8.7195  -8.6923  -8.6726
    -8.5883  -8.5293  -8.3970  -8.3893  -8.3718  -8.1981  -8.1628  -8.1340
    -6.4986  -6.1989  -6.1455  -5.6792  -5.4658  -5.2846  -4.8082  -4.5762
    -4.4529  -4.1115  -4.0351  -3.8113  -3.2361  -3.1617  -3.0505  -3.0276
    -2.9688  -2.9575  -2.8731  -2.7658  -2.7308  -2.6592  -2.6231  -2.5674

          k = 0.2996 0.3460-0.3111 ( 28879 PWs)   bands (ev):

   -21.0563 -20.8878 -20.7893 -20.7481 -20.6694 -20.6029 -20.4008 -20.2938
   -20.2772 -20.1936 -20.1304 -20.0229  -8.7430  -8.7337  -8.6985  -8.6557
    -8.5912  -8.5645  -8.4505  -8.4059  -8.3753  -8.2210  -8.1815  -8.1444
    -6.5103  -6.1798  -5.9734  -5.7268  -5.6535  -5.1176  -4.7227  -4.6307
    -4.4490  -4.1751  -4.0306  -3.7513  -3.1730  -3.1253  -3.0667  -3.0144
    -2.9640  -2.8936  -2.8356  -2.8009  -2.7041  -2.7010  -2.6112  -2.5239

          k = 0.1498 0.2595 0.0000 ( 28881 PWs)   bands (ev):

   -21.1779 -20.8264 -20.7663 -20.6537 -20.6233 -20.5448 -20.4509 -20.3822
   -20.3395 -20.2028 -20.1712 -19.9251  -8.7747  -8.7281  -8.7206  -8.6739
    -8.6026  -8.5938  -8.4085  -8.3734  -8.3344  -8.2675  -8.2350  -8.1855
    -6.7883  -5.9504  -5.8397  -5.6312  -5.5922  -5.0114  -4.8280  -4.7095
    -4.6818  -4.1694  -4.1252  -3.5013  -3.0945  -3.0798  -3.0716  -2.9726
    -2.9235  -2.8946  -2.8085  -2.7912  -2.7030  -2.6787  -2.5746  -2.5531

          k = 0.2996-0.1730-1.2442 ( 28920 PWs)   bands (ev):

   -21.0482 -20.9966 -20.7808 -20.7060 -20.6191 -20.5703 -20.3853 -20.3714
   -20.2450 -20.2375 -20.0553 -20.0480  -8.7531  -8.7288  -8.7041  -8.6577
    -8.5997  -8.5985  -8.4837  -8.4185  -8.3589  -8.2357  -8.2319  -8.1716
    -6.3467  -6.3191  -5.9364  -5.7940  -5.5350  -5.1470  -4.6387  -4.6213
    -4.4407  -4.3024  -3.9362  -3.7554  -3.1072  -3.0811  -3.0529  -3.0115
    -2.9361  -2.8951  -2.8401  -2.7685  -2.7614  -2.6722  -2.5373  -2.5363

          k = 0.0000 0.0000 0.9332 ( 28905 PWs)   bands (ev):

   -20.9442 -20.9442 -20.8519 -20.8242 -20.6273 -20.6273 -20.3205 -20.3205
   -20.1868 -20.1639 -20.1309 -20.1309  -8.7340  -8.7340  -8.7065  -8.6125
    -8.6125  -8.5963  -8.4865  -8.4074  -8.4074  -8.1601  -8.1601  -8.1363
    -6.2541  -6.2541  -6.2154  -5.7961  -5.4418  -5.4418  -4.4833  -4.4833
    -4.4181  -4.0977  -4.0977  -3.9867  -3.1286  -3.1286  -3.0318  -3.0082
    -2.9290  -2.9290  -2.8816  -2.7656  -2.7656  -2.6616  -2.6616  -2.4983

          k = 0.4494 0.2595 0.0000 ( 28898 PWs)   bands (ev):

   -21.0750 -20.9019 -20.8837 -20.7077 -20.5651 -20.5511 -20.4205 -20.4032
   -20.2377 -20.1667 -20.1371 -20.0137  -8.7481  -8.7242  -8.7172  -8.6502
    -8.6240  -8.5683  -8.4909  -8.4149  -8.3768  -8.2321  -8.2187  -8.1758
    -6.4739  -6.0535  -6.0010  -5.9015  -5.4930  -5.1453  -4.7249  -4.6392
    -4.3558  -4.1866  -4.0814  -3.7163  -3.0938  -3.0833  -3.0643  -3.0052
    -2.9504  -2.9027  -2.8243  -2.7958  -2.7373  -2.6452  -2.5817  -2.5162

          k = 0.2996 0.1730 0.3111 ( 28909 PWs)   bands (ev):

   -21.1053 -20.8347 -20.7520 -20.7402 -20.6636 -20.5883 -20.4185 -20.3659
   -20.3153 -20.1796 -20.1342 -19.9750  -8.7476  -8.7334  -8.7006  -8.6515
    -8.6026  -8.5429  -8.4209  -8.3667  -8.3316  -8.2880  -8.2298  -8.1613
    -6.6326  -6.0236  -5.9896  -5.6848  -5.5640  -5.1052  -4.8368  -4.6543
    -4.5977  -4.1168  -4.0555  -3.6123  -3.1971  -3.1179  -3.0911  -3.0301
    -2.9941  -2.8742  -2.8485  -2.7680  -2.6760  -2.6742  -2.5955  -2.5672

          k = 0.4494-0.2595-0.9332 ( 28926 PWs)   bands (ev):

   -20.9744 -20.9564 -20.8217 -20.7679 -20.6488 -20.5578 -20.4572 -20.3518
   -20.2253 -20.1571 -20.1144 -20.0392  -8.7377  -8.7151  -8.7030  -8.6283
    -8.5890  -8.5392  -8.4477  -8.4030  -8.3634  -8.2953  -8.2246  -8.1793
    -6.3079  -6.1923  -6.0383  -5.8107  -5.5928  -5.1475  -4.8782  -4.5818
    -4.3334  -4.1173  -4.0713  -3.7222  -3.2024  -3.1416  -3.1108  -3.0487
    -3.0218  -2.9045  -2.7999  -2.7793  -2.6973  -2.6561  -2.5751  -2.5492

          k = 0.2996-0.3460-0.6221 ( 28918 PWs)   bands (ev):

   -20.9263 -20.9152 -20.8099 -20.7960 -20.6669 -20.6655 -20.3751 -20.3715
   -20.2061 -20.1985 -20.0788 -20.0716  -8.7398  -8.6913  -8.6717  -8.6470
    -8.6239  -8.4872  -8.4336  -8.3935  -8.3453  -8.2689  -8.1805  -8.1675
    -6.3092  -6.2717  -5.9777  -5.9201  -5.4234  -5.3823  -4.7162  -4.6415
    -4.2927  -4.2583  -3.9883  -3.7641  -3.2714  -3.1490  -3.1086  -3.1031
    -3.0360  -2.9096  -2.7994  -2.7837  -2.7291  -2.6338  -2.6176  -2.5512

          k = 0.0000 0.0000-1.8663 ( 28866 PWs)   bands (ev):

   -20.8823 -20.8544 -20.7803 -20.7803 -20.7793 -20.7793 -20.2851 -20.2851
   -20.2644 -20.2644 -20.0707 -20.0547  -8.7377  -8.6451  -8.6451  -8.6435
    -8.6435  -8.4833  -8.4175  -8.4079  -8.3237  -8.3237  -8.2165  -8.2165
    -6.2949  -6.1340  -5.7886  -5.7886  -5.6938  -5.6938  -4.4453  -4.4453
    -4.4337  -4.4337  -3.9379  -3.7429  -3.2655  -3.1534  -3.1534  -3.1406
    -3.1406  -2.8539  -2.8068  -2.7104  -2.7104  -2.6515  -2.6515  -2.5170

          k = 0.2996-0.3460 0.3111 ( 28879 PWs)   bands (ev):

   -21.0565 -20.8851 -20.7973 -20.7435 -20.6683 -20.6023 -20.3997 -20.3018
   -20.2746 -20.1905 -20.1286 -20.0244  -8.7466  -8.7232  -8.7064  -8.6392
    -8.6055  -8.5670  -8.4619  -8.3997  -8.3704  -8.2151  -8.1750  -8.1552
    -6.5131  -6.1454  -6.0423  -5.7031  -5.5918  -5.1855  -4.8251  -4.4863
    -4.3744  -4.2243  -4.1112  -3.7172  -3.1845  -3.1102  -3.0554  -3.0077
    -2.9759  -2.8991  -2.8424  -2.8142  -2.7155  -2.6678  -2.6124  -2.5294

     highest occupied level (ev):    -2.4983

!    total energy              =    -418.06088832 Ry
     estimated scf accuracy    <       0.00000005 Ry

     The total energy is the sum of the following terms:
     one-electron contribution =    -291.13980717 Ry
     hartree contribution      =     180.89300622 Ry
     xc contribution           =    -106.14828886 Ry
     ewald contribution        =    -201.66579852 Ry

     convergence has been achieved in  16 iterations

     Forces acting on atoms (cartesian axes, Ry/au):

     atom    1 type  2   force =     0.00359717   -0.01209643   -0.00681538
     atom    2 type  2   force =    -0.00359717    0.01209643    0.00681538
     atom    3 type  2   force =     0.00867723    0.00916345   -0.00681538
     atom    4 type  2   force =    -0.00867723   -0.00916345    0.00681538
     atom    5 type  2   force =    -0.01227440    0.00293298   -0.00681538
     atom    6 type  2   force =     0.01227440   -0.00293298    0.00681538
     atom    7 type  2   force =     0.01060620   -0.00801946    0.00626784
     atom    8 type  2   force =    -0.01060620    0.00801946   -0.00626784
     atom    9 type  2   force =     0.00164196    0.01319497    0.00626784
     atom   10 type  2   force =    -0.00164196   -0.01319497   -0.00626784
     atom   11 type  2   force =    -0.01224816   -0.00517551    0.00626784
     atom   12 type  2   force =     0.01224816    0.00517551   -0.00626784
     atom   13 type  1   force =    -0.00491139    0.00980434   -0.00608953
     atom   14 type  1   force =     0.00491139   -0.00980434    0.00608953
     atom   15 type  1   force =    -0.00603511   -0.00915556   -0.00608953
     atom   16 type  1   force =     0.00603511    0.00915556    0.00608953
     atom   17 type  1   force =     0.01094650   -0.00064878   -0.00608953
     atom   18 type  1   force =    -0.01094650    0.00064878    0.00608953
     atom   19 type  1   force =     0.00232378    0.00199383    0.01240437
     atom   20 type  1   force =    -0.00232378   -0.00199383   -0.01240437
     atom   21 type  1   force =    -0.00288860    0.00101553    0.01240437
     atom   22 type  1   force =     0.00288860   -0.00101553   -0.01240437
     atom   23 type  1   force =     0.00056482   -0.00300937    0.01240437
     atom   24 type  1   force =    -0.00056482    0.00300937   -0.01240437
     atom   25 type  1   force =     0.00408626    0.01141367    0.00003941
     atom   26 type  1   force =    -0.00408626   -0.01141367   -0.00003941
     atom   27 type  1   force =    -0.01192766   -0.00216803    0.00003941
     atom   28 type  1   force =     0.01192766    0.00216803   -0.00003941
     atom   29 type  1   force =     0.00784140   -0.00924564    0.00003941
     atom   30 type  1   force =    -0.00784140    0.00924564   -0.00003941
     atom   31 type  1   force =     0.00806598   -0.00705995   -0.00587178
     atom   32 type  1   force =    -0.00806598    0.00705995    0.00587178
     atom   33 type  1   force =     0.00208111    0.01051532   -0.00587178
     atom   34 type  1   force =    -0.00208111   -0.01051532    0.00587178
     atom   35 type  1   force =    -0.01014709   -0.00345537   -0.00587178
     atom   36 type  1   force =     0.01014709    0.00345537    0.00587178

     Total force =     0.078945     Total SCF correction =     0.000114


     Computing stress (Cartesian axis) and pressure

          total   stress  (Ry/bohr**3)                   (kbar)     P=       20.91
   0.00014216   0.00000000  -0.00000000           20.91        0.00       -0.00
   0.00000000   0.00014216   0.00000000            0.00       20.91        0.00
  -0.00000000   0.00000000   0.00014207           -0.00        0.00       20.90


     Writing all to output data dir ./iceII/iceII.save/ :
     XML data file, charge density, pseudopotentials, collected wavefunctions

     init_run     :      2.54s CPU      2.66s WALL (       1 calls)
     electrons    :     15.63s CPU     17.81s WALL (       1 calls)
     forces       :      0.13s CPU      0.13s WALL (       1 calls)
     stress       :      1.01s CPU      1.05s WALL (       1 calls)

     Called by init_run:
     wfcinit      :      0.34s CPU      0.35s WALL (       1 calls)
     potinit      :      1.65s CPU      1.73s WALL (       1 calls)
     hinit0       :      0.39s CPU      0.40s WALL (       1 calls)

     Called by electrons:
     c_bands      :     11.62s CPU     11.75s WALL (      16 calls)
     sum_band     :      1.67s CPU      1.69s WALL (      16 calls)
     v_of_rho     :      3.79s CPU      4.47s WALL (      17 calls)
     newd         :      0.08s CPU      0.08s WALL (      17 calls)
     mix_rho      :      0.07s CPU      0.07s WALL (      16 calls)
     vdW_kernel   :      1.51s CPU      1.52s WALL (       1 calls)

     Called by c_bands:
     init_us_2    :      0.19s CPU      0.20s WALL (     140 calls)
     cegterg      :     11.28s CPU     11.37s WALL (      64 calls)

     Called by *egterg:
     cdiaghg      :      0.85s CPU      0.86s WALL (     225 calls)
     h_psi        :      8.83s CPU      8.91s WALL (     229 calls)
     s_psi        :      0.36s CPU      0.37s WALL (     229 calls)
     g_psi        :      0.02s CPU      0.02s WALL (     161 calls)

     Called by h_psi:
     h_psi:calbec :      0.62s CPU      0.62s WALL (     229 calls)
     vloc_psi     :      7.78s CPU      7.85s WALL (     229 calls)
     add_vuspsi   :      0.37s CPU      0.37s WALL (     229 calls)

     General routines
     calbec       :      0.82s CPU      0.83s WALL (     313 calls)
     fft          :      1.73s CPU      2.14s WALL (    1089 calls)
     ffts         :      0.02s CPU      0.02s WALL (      16 calls)
     fftw         :      8.15s CPU      8.22s WALL (   22180 calls)

     Parallel routines

     PWSCF        :     19.59s CPU     35.65s WALL


   This run was terminated on:  14:52:55  26Mar2026            

=------------------------------------------------------------------------------=
   JOB DONE.
=------------------------------------------------------------------------------=
