
     Program PWSCF v.7.3.1 starts on 26Mar2026 at 14:52:57 

     This program is part of the open-source Quantum ESPRESSO suite
     for quantum simulation of materials; please cite
         "P. Giannozzi et al., J. Phys.:Condens. Matter 21 395502 (2009);
         "P. Giannozzi et al., J. Phys.:Condens. Matter 29 465901 (2017);
         "P. Giannozzi et al., J. Chem. Phys. 152 154105 (2020);
          URL http://www.quantum-espresso.org", 
     in publications or presentations arising from this work. More details at
     http://www.quantum-espresso.org/quote

     Parallel version (MPI), running on   128 processors

     MPI processes distributed on     1 nodes
     242800 MiB available memory on the printing compute node when the environment starts

     Waiting for input...
     Reading input from standard input

     Current dimensions of program PWSCF are:
     Max number of different atomic species (ntypx) = 10
     Max number of k-points (npk) =  40000
     Max angular momentum in pseudopotentials (lmaxx) =  4

     IMPORTANT: XC functional enforced from input :
     Exchange-correlation= VDW-DF2
                           (   1   4  13   0   2   0   0)
     Any further DFT definition will be discarded
     Please, verify this is what you really want


     K-points division:     npool     =       4
     R & G space division:  proc/nbgrp/npool/nimage =      32
     Subspace diagonalization in iterative solution of the eigenvalue problem:
     a serial algorithm will be used


     Parallelization info
     --------------------
     sticks:   dense  smooth     PW     G-vecs:    dense   smooth      PW
     Min         175     175     51                 7264     7264    1160
     Max         176     176     52                 7267     7267    1164
     Sum        5617    5617   1653               232481   232481   37171

     Using Slab Decomposition



     bravais-lattice index     =            5
     lattice parameter (alat)  =      14.6139  a.u.
     unit-cell volume          =    2016.4472 (a.u.)^3
     number of atoms/cell      =           36
     number of atomic types    =            2
     number of electrons       =        96.00
     number of Kohn-Sham states=           48
     kinetic-energy cutoff     =      90.0000  Ry
     charge density cutoff     =     360.0000  Ry
     scf convergence threshold =      1.0E-07
     mixing beta               =       0.7000
     number of iterations used =            8  plain     mixing
     Exchange-correlation= VDW-DF2
                           (   1   4  13   0   2   0   0)

     celldm(1)=  14.613856  celldm(2)=   0.000000  celldm(3)=   0.000000
     celldm(4)=  -0.392337  celldm(5)=   0.000000  celldm(6)=   0.000000

     crystal axes: (cart. coord. in units of alat)
               a(1) = (   0.834367  -0.481722   0.267909 )  
               a(2) = (   0.000000   0.963444   0.267909 )  
               a(3) = (  -0.834367  -0.481722   0.267909 )  

     reciprocal axes: (cart. coord. in units 2 pi/alat)
               b(1) = (  0.599257 -0.345981  1.244203 )  
               b(2) = (  0.000000  0.691962  1.244203 )  
               b(3) = ( -0.599257 -0.345981  1.244203 )  


     PseudoPot. # 1 for H  read from file:
     ./H.pbe-van_ak.UPF
     MD5 check sum: 077eb6d537518a38cb46c6de387227b7
     Pseudo is Ultrasoft, Zval =  1.0
     Generated by new atomic code, or converted to UPF format
     Using radial grid of  615 points,  1 beta functions with: 
                l(1) =   0
     Q(r) pseudized with  8 coefficients,  rinner =    0.800

     PseudoPot. # 2 for O  read from file:
     ./O.pbe-van_ak.UPF
     MD5 check sum: 78c19812648e8988a0fe644b0f25305e
     Pseudo is Ultrasoft, Zval =  6.0
     Generated by new atomic code, or converted to UPF format
     Using radial grid of  737 points,  4 beta functions with: 
                l(1) =   0
                l(2) =   0
                l(3) =   1
                l(4) =   1
     Q(r) pseudized with  8 coefficients,  rinner =    0.800   0.800   0.800


     atomic species   valence    mass     pseudopotential
     H                 1.00     1.00800     H ( 1.00)
     O                 6.00    16.00000     O ( 1.00)

      6 Sym. Ops., with inversion, found



   Cartesian axes

     site n.     atom                  positions (alat units)
         1        O      tau(   1) = (  -0.4881587  -0.5153728   0.3102004  )
         2        O      tau(   2) = (   0.4881587   0.5153729   0.4935268  )
         3        O      tau(   3) = (   0.6904053  -0.1650714   0.3102004  )
         4        O      tau(   4) = (  -0.6904053   0.1650714   0.4935268  )
         5        O      tau(   5) = (  -0.2022466   0.6804442   0.3102004  )
         6        O      tau(   6) = (   0.2022466  -0.6804442   0.4935268  )
         7        O      tau(   7) = (   0.1208629   0.3351200   0.4137471  )
         8        O      tau(   8) = (  -0.1208629  -0.3351200   0.3899800  )
         9        O      tau(   9) = (  -0.3506539  -0.0628897   0.4137471  )
        10        O      tau(  10) = (   0.3506539   0.0628897   0.3899800  )
        11        O      tau(  11) = (   0.2297910  -0.2722304   0.4137471  )
        12        O      tau(  12) = (  -0.2297910   0.2722304   0.3899800  )
        13        H      tau(  13) = (  -0.5430428  -0.4102686   0.2622098  )
        14        H      tau(  14) = (   0.5430428   0.4102686   0.5415173  )
        15        H      tau(  15) = (   0.6268245  -0.2651546   0.2622098  )
        16        H      tau(  16) = (  -0.6268245   0.2651546   0.5415173  )
        17        H      tau(  17) = (  -0.0837816   0.6754232   0.2622098  )
        18        H      tau(  18) = (   0.0837817  -0.6754232   0.5415173  )
        19        H      tau(  19) = (  -0.4681736  -0.4859583   0.4327384  )
        20        H      tau(  20) = (   0.4681736   0.4859583   0.3709887  )
        21        H      tau(  21) = (   0.6549390  -0.1624711   0.4327384  )
        22        H      tau(  22) = (  -0.6549390   0.1624711   0.3709887  )
        23        H      tau(  23) = (  -0.1867654   0.6484294   0.4327384  )
        24        H      tau(  24) = (   0.1867654  -0.6484294   0.3709887  )
        25        H      tau(  25) = (   0.2718867  -0.1516220   0.4118766  )
        26        H      tau(  26) = (  -0.2718867   0.1516219   0.3918506  )
        27        H      tau(  27) = (  -0.0046349   0.3112717   0.4118766  )
        28        H      tau(  28) = (   0.0046349  -0.3112717   0.3918506  )
        29        H      tau(  29) = (  -0.2672518  -0.1596498   0.4118766  )
        30        H      tau(  30) = (   0.2672518   0.1596498   0.3918506  )
        31        H      tau(  31) = (   0.3136186  -0.3416266   0.3473301  )
        32        H      tau(  32) = (  -0.3136186   0.3416266   0.4563970  )
        33        H      tau(  33) = (   0.1390481   0.4424150   0.3473301  )
        34        H      tau(  34) = (  -0.1390480  -0.4424150   0.4563970  )
        35        H      tau(  35) = (  -0.4526667  -0.1007884   0.3473301  )
        36        H      tau(  36) = (   0.4526666   0.1007884   0.4563970  )

     number of k points=    14
                       cart. coord. in units 2pi/alat
        k(    1) = (   0.0000000   0.0000000   0.0000000), wk =   0.0312500
        k(    2) = (  -0.1498141  -0.0864952   0.3110508), wk =   0.1875000
        k(    3) = (   0.2996283   0.1729905  -0.6221017), wk =   0.0937500
        k(    4) = (  -0.1498141   0.0864952   0.6221017), wk =   0.1875000
        k(    5) = (   0.2996283   0.3459809  -0.3110508), wk =   0.1875000
        k(    6) = (   0.1498141   0.2594857   0.0000000), wk =   0.1875000
        k(    7) = (   0.2996283  -0.1729905  -1.2442034), wk =   0.0937500
        k(    8) = (   0.0000000   0.0000000   0.9331525), wk =   0.0625000
        k(    9) = (   0.4494424   0.2594857   0.0000000), wk =   0.1875000
        k(   10) = (   0.2996283   0.1729905   0.3110508), wk =   0.1875000
        k(   11) = (   0.4494424  -0.2594857  -0.9331525), wk =   0.1875000
        k(   12) = (   0.2996283  -0.3459809  -0.6221017), wk =   0.1875000
        k(   13) = (   0.0000000   0.0000000  -1.8663050), wk =   0.0312500
        k(   14) = (   0.2996283  -0.3459809   0.3110508), wk =   0.1875000

     Dense  grid:   232481 G-vectors     FFT dimensions: (  90,  90,  90)

     Estimated max dynamical RAM per process >      15.27 MB

     Estimated total dynamical RAM >       1.74 GB

     Initial potential from superposition of free atoms

     starting charge      95.9998, renormalised to      96.0000


     %%%%%%%%%%%%%%%%%%%%%%%%%%%%%%%%%%%%%%%%%%%%%%%%%%%%%%%%%%%%%%%%%%%%%%%%
     %                                                                      %
     % You are using vdW-DF, which was implemented by the Thonhauser group. %
     % Please cite the following two papers that made this development      %
     % possible and the two reviews that describe the various versions:     %
     %                                                                      %
     %   T. Thonhauser et al., PRL 115, 136402 (2015).                      %
     %   T. Thonhauser et al., PRB 76, 125112 (2007).                       %
     %   K. Berland et al., Rep. Prog. Phys. 78, 066501 (2015).             %
     %   D.C. Langreth et al., J. Phys.: Condens. Matter 21, 084203 (2009). %
     %                                                                      %
     % If you are calculating stress with vdW-DF, please also cite:         %
     %                                                                      %
     %   R. Sabatini et al., J. Phys.: Condens. Matter 24, 424209 (2012).   %
     %                                                                      %
     %%%%%%%%%%%%%%%%%%%%%%%%%%%%%%%%%%%%%%%%%%%%%%%%%%%%%%%%%%%%%%%%%%%%%%%%

     %%%%%%%%%%%%%%%%%%%%%%%%%%%%%%%%%%%%%%%%%%%%%%%%%%%%%%%%%%%%%%%%%%%%%%%%
     %                                                                      %
     %  vdW-DF NEWS:                                                        %
     %                                                                      %
     %  * vdW-DF3 is now available. DOI: 10.1021/acs.jctc.0c00471           %
     %    use with input_dft = 'vdW-DF3-opt1' or 'vdW-DF3-opt2'             %
     %                                                                      %
     %  * Unscreened and range-separated hybrid vdW-DF-cx functionals       %
     %    DOI: 10.1063/1.4986522 and 10.1088/1361-648X/ac2ad2               %
     %    use with input_dft = 'vdW-DF-cx0'    and 'vdW-DF-ahcx'            %
     %  * Unscreened and range-separated hybrid vdW-DF2-b86r functionals    %
     %    DOI: 10.1063/1.4986522 and DOI: 10.1103/PhysRevX.12.041003        %
     %    use with input_dft = 'vdW-DF2-br0' and 'vdW-DF2-ahbr'             %
     %                                                                      %
     %%%%%%%%%%%%%%%%%%%%%%%%%%%%%%%%%%%%%%%%%%%%%%%%%%%%%%%%%%%%%%%%%%%%%%%%


     Starting wfcs are   72 randomized atomic wfcs

     total cpu time spent up to now is        2.9 secs

     per-process dynamical memory:    19.7 Mb

     Self-consistent Calculation

     iteration #  1     ecut=    90.00 Ry     beta= 0.70
     Davidson diagonalization with overlap
     ethr =  1.00E-02,  avg # of iterations =  2.0

     total cpu time spent up to now is        3.8 secs

     total energy              =    -415.92930363 Ry
     estimated scf accuracy    <       4.80522833 Ry

     iteration #  2     ecut=    90.00 Ry     beta= 0.70
     Davidson diagonalization with overlap
     ethr =  5.01E-03,  avg # of iterations =  3.0

     total cpu time spent up to now is        5.0 secs

     total energy              =    -417.51714001 Ry
     estimated scf accuracy    <       3.28560397 Ry

     iteration #  3     ecut=    90.00 Ry     beta= 0.70
     Davidson diagonalization with overlap
     ethr =  3.42E-03,  avg # of iterations =  2.0

     total cpu time spent up to now is        5.9 secs

     total energy              =    -417.94657681 Ry
     estimated scf accuracy    <       0.13958715 Ry

     iteration #  4     ecut=    90.00 Ry     beta= 0.70
     Davidson diagonalization with overlap
     ethr =  1.45E-04,  avg # of iterations =  4.0

     total cpu time spent up to now is        7.3 secs

     total energy              =    -418.05354862 Ry
     estimated scf accuracy    <       0.17603378 Ry

     iteration #  5     ecut=    90.00 Ry     beta= 0.70
     Davidson diagonalization with overlap
     ethr =  1.45E-04,  avg # of iterations =  2.0

     total cpu time spent up to now is        8.1 secs

     total energy              =    -418.05937894 Ry
     estimated scf accuracy    <       0.02553851 Ry

     iteration #  6     ecut=    90.00 Ry     beta= 0.70
     Davidson diagonalization with overlap
     ethr =  2.66E-05,  avg # of iterations =  2.0

     total cpu time spent up to now is        9.0 secs

     total energy              =    -418.06026602 Ry
     estimated scf accuracy    <       0.00499827 Ry

     iteration #  7     ecut=    90.00 Ry     beta= 0.70
     Davidson diagonalization with overlap
     ethr =  5.21E-06,  avg # of iterations =  3.0

     total cpu time spent up to now is       10.1 secs

     total energy              =    -418.06344236 Ry
     estimated scf accuracy    <       0.00080094 Ry

     iteration #  8     ecut=    90.00 Ry     beta= 0.70
     Davidson diagonalization with overlap
     ethr =  8.34E-07,  avg # of iterations =  3.0

     total cpu time spent up to now is       11.2 secs

     total energy              =    -418.06247812 Ry
     estimated scf accuracy    <       0.00328570 Ry

     iteration #  9     ecut=    90.00 Ry     beta= 0.70
     Davidson diagonalization with overlap
     ethr =  8.34E-07,  avg # of iterations =  2.4

     total cpu time spent up to now is       12.2 secs

     total energy              =    -418.06258216 Ry
     estimated scf accuracy    <       0.00054389 Ry

     iteration # 10     ecut=    90.00 Ry     beta= 0.70
     Davidson diagonalization with overlap
     ethr =  5.67E-07,  avg # of iterations =  2.0

     total cpu time spent up to now is       13.2 secs

     total energy              =    -418.06266586 Ry
     estimated scf accuracy    <       0.00008163 Ry

     iteration # 11     ecut=    90.00 Ry     beta= 0.70
     Davidson diagonalization with overlap
     ethr =  8.50E-08,  avg # of iterations =  2.0

     total cpu time spent up to now is       14.1 secs

     total energy              =    -418.06266340 Ry
     estimated scf accuracy    <       0.00004143 Ry

     iteration # 12     ecut=    90.00 Ry     beta= 0.70
     Davidson diagonalization with overlap
     ethr =  4.32E-08,  avg # of iterations =  2.0

     total cpu time spent up to now is       15.0 secs

     total energy              =    -418.06266656 Ry
     estimated scf accuracy    <       0.00000700 Ry

     iteration # 13     ecut=    90.00 Ry     beta= 0.70
     Davidson diagonalization with overlap
     ethr =  7.30E-09,  avg # of iterations =  3.0

     total cpu time spent up to now is       16.1 secs

     total energy              =    -418.06266932 Ry
     estimated scf accuracy    <       0.00000012 Ry

     iteration # 14     ecut=    90.00 Ry     beta= 0.70
     Davidson diagonalization with overlap
     ethr =  1.24E-10,  avg # of iterations =  3.0

     total cpu time spent up to now is       17.2 secs

     End of self-consistent calculation

          k = 0.0000 0.0000 0.0000 ( 29033 PWs)   bands (ev):

   -21.2344 -20.7534 -20.7534 -20.5508 -20.5508 -20.5079 -20.5073 -20.5073
   -20.5039 -20.2063 -20.2063 -19.8924  -8.8007  -8.7309  -8.7309  -8.7010
    -8.6109  -8.6109  -8.3270  -8.3270  -8.3229  -8.2765  -8.2641  -8.2641
    -6.9873  -5.9107  -5.9107  -5.2937  -5.2937  -5.1270  -5.1270  -4.9535
    -4.8451  -4.1625  -4.1625  -3.4388  -3.1161  -3.1161  -3.0802  -2.9420
    -2.9420  -2.9057  -2.8031  -2.8031  -2.7561  -2.6729  -2.6262  -2.6262

          k =-0.1498-0.0865 0.3111 ( 29034 PWs)   bands (ev):

   -21.1594 -20.7964 -20.7437 -20.6894 -20.6531 -20.5834 -20.4593 -20.4148
   -20.3519 -20.2112 -20.1694 -19.9506  -8.7646  -8.7416  -8.7213  -8.6834
    -8.6036  -8.5753  -8.3883  -8.3616  -8.3479  -8.2598  -8.1981  -8.1962
    -6.8173  -6.0791  -5.9412  -5.6172  -5.3749  -5.1346  -4.9692  -4.8288
    -4.6708  -4.1549  -4.0957  -3.5836  -3.2004  -3.1316  -3.0963  -3.0127
    -2.9934  -2.9363  -2.8374  -2.7889  -2.7232  -2.7070  -2.6462  -2.6204

          k = 0.2996 0.1730-0.6221 ( 29056 PWs)   bands (ev):

   -20.9680 -20.9607 -20.7781 -20.7610 -20.6496 -20.6470 -20.4059 -20.4044
   -20.2225 -20.2093 -20.0939 -20.0906  -8.7476  -8.7312  -8.6874  -8.6790
    -8.6038  -8.5531  -8.4077  -8.3948  -8.3609  -8.2466  -8.1556  -8.1435
    -6.4738  -6.3573  -5.9322  -5.9247  -5.3631  -5.2953  -4.8420  -4.7506
    -4.2952  -4.2401  -4.0639  -3.8164  -3.2761  -3.1583  -3.0842  -3.0727
    -3.0139  -2.9683  -2.8906  -2.7922  -2.7734  -2.6865  -2.6292  -2.6126

          k =-0.1498 0.0865 0.6221 ( 29076 PWs)   bands (ev):

   -21.0091 -20.8655 -20.8480 -20.7248 -20.7002 -20.6346 -20.4144 -20.3327
   -20.2869 -20.1679 -20.1514 -20.0555  -8.7456  -8.7273  -8.7002  -8.6812
    -8.5977  -8.5392  -8.4071  -8.3994  -8.3820  -8.2102  -8.1752  -8.1467
    -6.5152  -6.2172  -6.1643  -5.7008  -5.4891  -5.3086  -4.8348  -4.6036
    -4.4809  -4.1410  -4.0656  -3.8418  -3.2601  -3.1862  -3.0766  -3.0535
    -2.9961  -2.9842  -2.9004  -2.7940  -2.7591  -2.6881  -2.6527  -2.5972

          k = 0.2996 0.3460-0.3111 ( 29063 PWs)   bands (ev):

   -21.0591 -20.8926 -20.7954 -20.7544 -20.6770 -20.6110 -20.4112 -20.3052
   -20.2889 -20.2062 -20.1437 -20.0374  -8.7507  -8.7417  -8.7065  -8.6642
    -8.6003  -8.5738  -8.4599  -8.4159  -8.3854  -8.2328  -8.1936  -8.1570
    -6.5268  -6.1983  -5.9935  -5.7481  -5.6756  -5.1428  -4.7497  -4.6578
    -4.4773  -4.2040  -4.0612  -3.7827  -3.1978  -3.1503  -3.0924  -3.0406
    -2.9906  -2.9211  -2.8631  -2.8289  -2.7326  -2.7297  -2.6408  -2.5542

          k = 0.1498 0.2595 0.0000 ( 29087 PWs)   bands (ev):

   -21.1793 -20.8319 -20.7727 -20.6613 -20.6311 -20.5534 -20.4607 -20.3927
   -20.3504 -20.2153 -20.1841 -19.9407  -8.7823  -8.7358  -8.7282  -8.6822
    -8.6116  -8.6029  -8.4183  -8.3837  -8.3448  -8.2787  -8.2467  -8.1976
    -6.8031  -5.9702  -5.8606  -5.6532  -5.6145  -5.0370  -4.8549  -4.7364
    -4.7090  -4.1991  -4.1549  -3.5337  -3.1199  -3.1055  -3.0973  -2.9991
    -2.9506  -2.9220  -2.8363  -2.8191  -2.7319  -2.7079  -2.6045  -2.5832

          k = 0.2996-0.1730-1.2442 ( 29052 PWs)   bands (ev):

   -21.0509 -21.0001 -20.7868 -20.7131 -20.6269 -20.5789 -20.3958 -20.3821
   -20.2570 -20.2496 -20.0695 -20.0622  -8.7608  -8.7369  -8.7122  -8.6662
    -8.6082  -8.6071  -8.4925  -8.4283  -8.3690  -8.2474  -8.2434  -8.1838
    -6.3646  -6.3369  -5.9567  -5.8151  -5.5572  -5.1719  -4.6664  -4.6492
    -4.4689  -4.3310  -3.9665  -3.7873  -3.1326  -3.1066  -3.0791  -3.0374
    -2.9628  -2.9224  -2.8676  -2.7965  -2.7901  -2.7010  -2.5676  -2.5665

          k = 0.0000 0.0000 0.9332 ( 29061 PWs)   bands (ev):

   -20.9482 -20.9482 -20.8571 -20.8298 -20.6353 -20.6353 -20.3317 -20.3317
   -20.1994 -20.1769 -20.1441 -20.1441  -8.7419  -8.7419  -8.7144  -8.6215
    -8.6215  -8.6051  -8.4957  -8.4172  -8.4172  -8.1726  -8.1726  -8.1490
    -6.2723  -6.2722  -6.2334  -5.8181  -5.4649  -5.4649  -4.5113  -4.5113
    -4.4455  -4.1279  -4.1279  -4.0169  -3.1538  -3.1538  -3.0578  -3.0345
    -2.9559  -2.9559  -2.9092  -2.7938  -2.7938  -2.6906  -2.6906  -2.5288

          k = 0.4494 0.2595 0.0000 ( 29087 PWs)   bands (ev):

   -21.0775 -20.9064 -20.8886 -20.7149 -20.5738 -20.5598 -20.4307 -20.4134
   -20.2498 -20.1796 -20.1503 -20.0283  -8.7560  -8.7322  -8.7252  -8.6587
    -8.6326  -8.5771  -8.4999  -8.4246  -8.3867  -8.2438  -8.2305  -8.1880
    -6.4908  -6.0728  -6.0210  -5.9224  -5.5155  -5.1699  -4.7522  -4.6670
    -4.3843  -4.2163  -4.1112  -3.7482  -3.1193  -3.1089  -3.0901  -3.0311
    -2.9773  -2.9300  -2.8519  -2.8237  -2.7662  -2.6744  -2.6115  -2.5467

          k = 0.2996 0.1730 0.3111 ( 29087 PWs)   bands (ev):

   -21.1075 -20.8403 -20.7587 -20.7466 -20.6709 -20.5965 -20.4286 -20.3765
   -20.3265 -20.1923 -20.1475 -19.9901  -8.7554  -8.7412  -8.7086  -8.6600
    -8.6118  -8.5523  -8.4307  -8.3770  -8.3424  -8.2991  -8.2412  -8.1737
    -6.6484  -6.0433  -6.0095  -5.7062  -5.5865  -5.1307  -4.8630  -4.6821
    -4.6250  -4.1463  -4.0857  -3.6445  -3.2216  -3.1431  -3.1164  -3.0561
    -3.0205  -2.9017  -2.8761  -2.7962  -2.7048  -2.7032  -2.6254  -2.5972

          k = 0.4494-0.2595-0.9332 ( 29085 PWs)   bands (ev):

   -20.9780 -20.9605 -20.8272 -20.7745 -20.6563 -20.5663 -20.4668 -20.3626
   -20.2376 -20.1701 -20.1279 -20.0536  -8.7456  -8.7232  -8.7112  -8.6371
    -8.5981  -8.5482  -8.4573  -8.4129  -8.3736  -8.3063  -8.2361  -8.1915
    -6.3258  -6.2111  -6.0580  -5.8318  -5.6149  -5.1723  -4.9048  -4.6096
    -4.3624  -4.1467  -4.1013  -3.7541  -3.2271  -3.1666  -3.1360  -3.0745
    -3.0478  -2.9313  -2.8278  -2.8074  -2.7260  -2.6851  -2.6050  -2.5795

          k = 0.2996-0.3460-0.6221 ( 29090 PWs)   bands (ev):

   -20.9306 -20.9197 -20.8157 -20.8021 -20.6741 -20.6727 -20.3856 -20.3820
   -20.2185 -20.2110 -20.0927 -20.0856  -8.7476  -8.6992  -8.6800  -8.6559
    -8.6331  -8.4973  -8.4434  -8.4032  -8.3560  -8.2802  -8.1926  -8.1797
    -6.3270  -6.2899  -5.9975  -5.9405  -5.4466  -5.4059  -4.7432  -4.6695
    -4.3215  -4.2871  -4.0186  -3.7953  -3.2956  -3.1736  -3.1337  -3.1285
    -3.0625  -2.9362  -2.8273  -2.8117  -2.7574  -2.6629  -2.6469  -2.5816

          k = 0.0000 0.0000-1.8663 ( 29124 PWs)   bands (ev):

   -20.8875 -20.8601 -20.7861 -20.7861 -20.7851 -20.7851 -20.2967 -20.2967
   -20.2762 -20.2762 -20.0846 -20.0690  -8.7457  -8.6536  -8.6536  -8.6525
    -8.6525  -8.4929  -8.4279  -8.4172  -8.3348  -8.3348  -8.2281  -8.2281
    -6.3128  -6.1534  -5.8095  -5.8095  -5.7159  -5.7159  -4.4744  -4.4744
    -4.4619  -4.4619  -3.9680  -3.7740  -3.2907  -3.1780  -3.1780  -3.1655
    -3.1655  -2.8807  -2.8347  -2.7390  -2.7390  -2.6805  -2.6805  -2.5479

          k = 0.2996-0.3460 0.3111 ( 29063 PWs)   bands (ev):

   -21.0592 -20.8899 -20.8033 -20.7499 -20.6759 -20.6104 -20.4101 -20.3131
   -20.2863 -20.2032 -20.1419 -20.0389  -8.7544  -8.7311  -8.7144  -8.6480
    -8.6144  -8.5762  -8.4712  -8.4098  -8.3805  -8.2270  -8.1872  -8.1677
    -6.5296  -6.1644  -6.0616  -5.7247  -5.6144  -5.2100  -4.8514  -4.5148
    -4.4028  -4.2537  -4.1403  -3.7491  -3.2091  -3.1355  -3.0813  -3.0339
    -3.0024  -2.9263  -2.8700  -2.8421  -2.7438  -2.6969  -2.6421  -2.5596

     highest occupied level (ev):    -2.5288

!    total energy              =    -418.06266938 Ry
     estimated scf accuracy    <       0.00000009 Ry

     The total energy is the sum of the following terms:
     one-electron contribution =    -291.86159182 Ry
     hartree contribution      =     181.15150637 Ry
     xc contribution           =    -106.09255160 Ry
     ewald contribution        =    -201.26003233 Ry

     convergence has been achieved in  14 iterations

     Forces acting on atoms (cartesian axes, Ry/au):

     atom    1 type  2   force =     0.00271264   -0.00910958   -0.00504516
     atom    2 type  2   force =    -0.00271264    0.00910958    0.00504516
     atom    3 type  2   force =     0.00653281    0.00690401   -0.00504516
     atom    4 type  2   force =    -0.00653281   -0.00690401    0.00504516
     atom    5 type  2   force =    -0.00924545    0.00220557   -0.00504516
     atom    6 type  2   force =     0.00924545   -0.00220557    0.00504516
     atom    7 type  2   force =     0.00804826   -0.00617530    0.00462438
     atom    8 type  2   force =    -0.00804826    0.00617530   -0.00462438
     atom    9 type  2   force =     0.00132384    0.01005765    0.00462438
     atom   10 type  2   force =    -0.00132384   -0.01005765   -0.00462438
     atom   11 type  2   force =    -0.00937210   -0.00388235    0.00462438
     atom   12 type  2   force =     0.00937210    0.00388235   -0.00462438
     atom   13 type  1   force =    -0.00351916    0.00726308   -0.00467790
     atom   14 type  1   force =     0.00351916   -0.00726308    0.00467790
     atom   15 type  1   force =    -0.00453043   -0.00667923   -0.00467790
     atom   16 type  1   force =     0.00453043    0.00667923    0.00467790
     atom   17 type  1   force =     0.00804959   -0.00058385   -0.00467790
     atom   18 type  1   force =    -0.00804959    0.00058385    0.00467790
     atom   19 type  1   force =     0.00170605    0.00140317    0.00926929
     atom   20 type  1   force =    -0.00170605   -0.00140317   -0.00926929
     atom   21 type  1   force =    -0.00206821    0.00077590    0.00926929
     atom   22 type  1   force =     0.00206821   -0.00077590   -0.00926929
     atom   23 type  1   force =     0.00036216   -0.00217907    0.00926929
     atom   24 type  1   force =    -0.00036216    0.00217907   -0.00926929
     atom   25 type  1   force =     0.00317592    0.00832111   -0.00001679
     atom   26 type  1   force =    -0.00317592   -0.00832111    0.00001679
     atom   27 type  1   force =    -0.00879425   -0.00141013   -0.00001679
     atom   28 type  1   force =     0.00879425    0.00141013    0.00001679
     atom   29 type  1   force =     0.00561833   -0.00691098   -0.00001679
     atom   30 type  1   force =    -0.00561833    0.00691098    0.00001679
     atom   31 type  1   force =     0.00600729   -0.00511439   -0.00418507
     atom   32 type  1   force =    -0.00600729    0.00511439    0.00418507
     atom   33 type  1   force =     0.00142555    0.00775966   -0.00418507
     atom   34 type  1   force =    -0.00142555   -0.00775966    0.00418507
     atom   35 type  1   force =    -0.00743283   -0.00264527   -0.00418507
     atom   36 type  1   force =     0.00743283    0.00264527    0.00418507

     Total force =     0.058839     Total SCF correction =     0.000085


     Computing stress (Cartesian axis) and pressure

          total   stress  (Ry/bohr**3)                   (kbar)     P=       15.37
   0.00010437  -0.00000000   0.00000000           15.35       -0.00        0.00
   0.00000000   0.00010437   0.00000000            0.00       15.35        0.00
  -0.00000000   0.00000000   0.00010469           -0.00        0.00       15.40


     Writing all to output data dir ./iceII/iceII.save/ :
     XML data file, charge density, pseudopotentials, collected wavefunctions

     init_run     :      2.53s CPU      2.66s WALL (       1 calls)
     electrons    :     13.73s CPU     14.97s WALL (       1 calls)
     forces       :      0.12s CPU      0.14s WALL (       1 calls)
     stress       :      1.01s CPU      1.06s WALL (       1 calls)

     Called by init_run:
     wfcinit      :      0.34s CPU      0.35s WALL (       1 calls)
     potinit      :      1.67s CPU      1.73s WALL (       1 calls)
     hinit0       :      0.38s CPU      0.40s WALL (       1 calls)

     Called by electrons:
     c_bands      :     10.14s CPU     10.26s WALL (      14 calls)
     sum_band     :      1.46s CPU      1.49s WALL (      14 calls)
     v_of_rho     :      3.62s CPU      4.14s WALL (      15 calls)
     newd         :      0.05s CPU      0.05s WALL (      15 calls)
     mix_rho      :      0.05s CPU      0.05s WALL (      14 calls)
     vdW_kernel   :      1.51s CPU      1.52s WALL (       1 calls)

     Called by c_bands:
     init_us_2    :      0.16s CPU      0.18s WALL (     124 calls)
     cegterg      :      9.90s CPU      9.98s WALL (      56 calls)

     Called by *egterg:
     cdiaghg      :      0.74s CPU      0.75s WALL (     198 calls)
     h_psi        :      7.77s CPU      7.85s WALL (     202 calls)
     s_psi        :      0.31s CPU      0.32s WALL (     202 calls)
     g_psi        :      0.02s CPU      0.02s WALL (     142 calls)

     Called by h_psi:
     h_psi:calbec :      0.54s CPU      0.55s WALL (     202 calls)
     vloc_psi     :      6.85s CPU      6.92s WALL (     202 calls)
     add_vuspsi   :      0.33s CPU      0.33s WALL (     202 calls)

     General routines
     calbec       :      0.73s CPU      0.74s WALL (     278 calls)
     fft          :      1.64s CPU      1.92s WALL (     967 calls)
     ffts         :      0.02s CPU      0.02s WALL (      14 calls)
     fftw         :      7.15s CPU      7.22s WALL (   19494 calls)

     Parallel routines

     PWSCF        :     18.56s CPU     24.42s WALL


   This run was terminated on:  14:53:21  26Mar2026            

=------------------------------------------------------------------------------=
   JOB DONE.
=------------------------------------------------------------------------------=
