
     Program PWSCF v.7.3.1 starts on  1Apr2026 at 14:37:22 

     This program is part of the open-source Quantum ESPRESSO suite
     for quantum simulation of materials; please cite
         "P. Giannozzi et al., J. Phys.:Condens. Matter 21 395502 (2009);
         "P. Giannozzi et al., J. Phys.:Condens. Matter 29 465901 (2017);
         "P. Giannozzi et al., J. Chem. Phys. 152 154105 (2020);
          URL http://www.quantum-espresso.org", 
     in publications or presentations arising from this work. More details at
     http://www.quantum-espresso.org/quote

     Parallel version (MPI), running on   128 processors

     MPI processes distributed on     1 nodes
     242583 MiB available memory on the printing compute node when the environment starts

     Waiting for input...
     Reading input from standard input

     Current dimensions of program PWSCF are:
     Max number of different atomic species (ntypx) = 10
     Max number of k-points (npk) =  40000
     Max angular momentum in pseudopotentials (lmaxx) =  4

     IMPORTANT: XC functional enforced from input :
     Exchange-correlation= VDW-DF2
                           (   1   4  13   0   2   0   0)
     Any further DFT definition will be discarded
     Please, verify this is what you really want


     K-points division:     npool     =       4
     R & G space division:  proc/nbgrp/npool/nimage =      32
     Subspace diagonalization in iterative solution of the eigenvalue problem:
     a serial algorithm will be used


     Parallelization info
     --------------------
     sticks:   dense  smooth     PW     G-vecs:    dense   smooth      PW
     Min         176     176     51                 7332     7332    1168
     Max         177     177     52                 7336     7336    1171
     Sum        5661    5661   1659               234701   234701   37441

     Using Slab Decomposition



     bravais-lattice index     =            5
     lattice parameter (alat)  =      14.6580  a.u.
     unit-cell volume          =    2034.7599 (a.u.)^3
     number of atoms/cell      =           36
     number of atomic types    =            2
     number of electrons       =        96.00
     number of Kohn-Sham states=           48
     kinetic-energy cutoff     =      90.0000  Ry
     charge density cutoff     =     360.0000  Ry
     scf convergence threshold =      1.0E-07
     mixing beta               =       0.7000
     number of iterations used =            8  plain     mixing
     energy convergence thresh.=      1.0E-04
     force convergence thresh. =      1.0E-03
     Exchange-correlation= VDW-DF2
                           (   1   4  13   0   2   0   0)
     nstep                     =           50


     celldm(1)=  14.657962  celldm(2)=   0.000000  celldm(3)=   0.000000
     celldm(4)=  -0.392337  celldm(5)=   0.000000  celldm(6)=   0.000000

     crystal axes: (cart. coord. in units of alat)
               a(1) = (   0.834367  -0.481722   0.267909 )  
               a(2) = (   0.000000   0.963444   0.267909 )  
               a(3) = (  -0.834367  -0.481722   0.267909 )  

     reciprocal axes: (cart. coord. in units 2 pi/alat)
               b(1) = (  0.599257 -0.345981  1.244203 )  
               b(2) = (  0.000000  0.691962  1.244203 )  
               b(3) = ( -0.599257 -0.345981  1.244203 )  


     PseudoPot. # 1 for H  read from file:
     ./H.pbe-van_ak.UPF
     MD5 check sum: 077eb6d537518a38cb46c6de387227b7
     Pseudo is Ultrasoft, Zval =  1.0
     Generated by new atomic code, or converted to UPF format
     Using radial grid of  615 points,  1 beta functions with: 
                l(1) =   0
     Q(r) pseudized with  8 coefficients,  rinner =    0.800

     PseudoPot. # 2 for O  read from file:
     ./O.pbe-van_ak.UPF
     MD5 check sum: 78c19812648e8988a0fe644b0f25305e
     Pseudo is Ultrasoft, Zval =  6.0
     Generated by new atomic code, or converted to UPF format
     Using radial grid of  737 points,  4 beta functions with: 
                l(1) =   0
                l(2) =   0
                l(3) =   1
                l(4) =   1
     Q(r) pseudized with  8 coefficients,  rinner =    0.800   0.800   0.800


     atomic species   valence    mass     pseudopotential
     H                 1.00     1.00800     H ( 1.00)
     O                 6.00    16.00000     O ( 1.00)

      6 Sym. Ops., with inversion, found



   Cartesian axes

     site n.     atom                  positions (alat units)
         1        O      tau(   1) = (  -0.4847673  -0.5197781   0.3083633  )
         2        O      tau(   2) = (   0.4847673   0.5197782   0.4953638  )
         3        O      tau(   3) = (   0.6925247  -0.1599317   0.3083633  )
         4        O      tau(   4) = (  -0.6925248   0.1599317   0.4953638  )
         5        O      tau(   5) = (  -0.2077574   0.6797099   0.3083633  )
         6        O      tau(   6) = (   0.2077574  -0.6797099   0.4953638  )
         7        O      tau(   7) = (   0.1218176   0.3323883   0.4179381  )
         8        O      tau(   8) = (  -0.1218176  -0.3323883   0.3857890  )
         9        O      tau(   9) = (  -0.3487655  -0.0606970   0.4179381  )
        10        O      tau(  10) = (   0.3487655   0.0606970   0.3857890  )
        11        O      tau(  11) = (   0.2269479  -0.2716913   0.4179381  )
        12        O      tau(  12) = (  -0.2269479   0.2716912   0.3857890  )
        13        H      tau(  13) = (  -0.5381668  -0.4032014   0.2796970  )
        14        H      tau(  14) = (   0.5381668   0.4032014   0.5240301  )
        15        H      tau(  15) = (   0.6182661  -0.2644654   0.2796970  )
        16        H      tau(  16) = (  -0.6182661   0.2644654   0.5240301  )
        17        H      tau(  17) = (  -0.0800993   0.6676668   0.2796970  )
        18        H      tau(  18) = (   0.0800993  -0.6676668   0.5240301  )
        19        H      tau(  19) = (  -0.4872704  -0.4817221   0.4326731  )
        20        H      tau(  20) = (   0.4872704   0.4817221   0.3710540  )
        21        H      tau(  21) = (   0.6608188  -0.1811275   0.4326731  )
        22        H      tau(  22) = (  -0.6608188   0.1811275   0.3710540  )
        23        H      tau(  23) = (  -0.1735484   0.6628496   0.4326731  )
        24        H      tau(  24) = (   0.1735484  -0.6628496   0.3710540  )
        25        H      tau(  25) = (   0.2703349  -0.1502973   0.4058822  )
        26        H      tau(  26) = (  -0.2703350   0.1502973   0.3978449  )
        27        H      tau(  27) = (  -0.0050062   0.3092656   0.4058822  )
        28        H      tau(  28) = (   0.0050062  -0.3092656   0.3978449  )
        29        H      tau(  29) = (  -0.2653287  -0.1589683   0.4058822  )
        30        H      tau(  30) = (   0.2653287   0.1589683   0.3978449  )
        31        H      tau(  31) = (   0.3178939  -0.3347969   0.3493534  )
        32        H      tau(  32) = (  -0.3178939   0.3347969   0.4543737  )
        33        H      tau(  33) = (   0.1309957   0.4427026   0.3493534  )
        34        H      tau(  34) = (  -0.1309956  -0.4427026   0.4543737  )
        35        H      tau(  35) = (  -0.4488895  -0.1079057   0.3493534  )
        36        H      tau(  36) = (   0.4488895   0.1079057   0.4543737  )

     number of k points=    14
                       cart. coord. in units 2pi/alat
        k(    1) = (   0.0000000   0.0000000   0.0000000), wk =   0.0312500
        k(    2) = (  -0.1498141  -0.0864952   0.3110508), wk =   0.1875000
        k(    3) = (   0.2996283   0.1729905  -0.6221017), wk =   0.0937500
        k(    4) = (  -0.1498141   0.0864952   0.6221017), wk =   0.1875000
        k(    5) = (   0.2996283   0.3459809  -0.3110508), wk =   0.1875000
        k(    6) = (   0.1498141   0.2594857   0.0000000), wk =   0.1875000
        k(    7) = (   0.2996283  -0.1729905  -1.2442034), wk =   0.0937500
        k(    8) = (   0.0000000   0.0000000   0.9331525), wk =   0.0625000
        k(    9) = (   0.4494424   0.2594857   0.0000000), wk =   0.1875000
        k(   10) = (   0.2996283   0.1729905   0.3110508), wk =   0.1875000
        k(   11) = (   0.4494424  -0.2594857  -0.9331525), wk =   0.1875000
        k(   12) = (   0.2996283  -0.3459809  -0.6221017), wk =   0.1875000
        k(   13) = (   0.0000000   0.0000000  -1.8663050), wk =   0.0312500
        k(   14) = (   0.2996283  -0.3459809   0.3110508), wk =   0.1875000

     Dense  grid:   234701 G-vectors     FFT dimensions: (  90,  90,  90)

     Estimated max dynamical RAM per process >      15.38 MB

     Estimated total dynamical RAM >       1.75 GB

     Initial potential from superposition of free atoms

     starting charge      95.9998, renormalised to      96.0000


     %%%%%%%%%%%%%%%%%%%%%%%%%%%%%%%%%%%%%%%%%%%%%%%%%%%%%%%%%%%%%%%%%%%%%%%%
     %                                                                      %
     % You are using vdW-DF, which was implemented by the Thonhauser group. %
     % Please cite the following two papers that made this development      %
     % possible and the two reviews that describe the various versions:     %
     %                                                                      %
     %   T. Thonhauser et al., PRL 115, 136402 (2015).                      %
     %   T. Thonhauser et al., PRB 76, 125112 (2007).                       %
     %   K. Berland et al., Rep. Prog. Phys. 78, 066501 (2015).             %
     %   D.C. Langreth et al., J. Phys.: Condens. Matter 21, 084203 (2009). %
     %                                                                      %
     % If you are calculating stress with vdW-DF, please also cite:         %
     %                                                                      %
     %   R. Sabatini et al., J. Phys.: Condens. Matter 24, 424209 (2012).   %
     %                                                                      %
     %%%%%%%%%%%%%%%%%%%%%%%%%%%%%%%%%%%%%%%%%%%%%%%%%%%%%%%%%%%%%%%%%%%%%%%%

     %%%%%%%%%%%%%%%%%%%%%%%%%%%%%%%%%%%%%%%%%%%%%%%%%%%%%%%%%%%%%%%%%%%%%%%%
     %                                                                      %
     %  vdW-DF NEWS:                                                        %
     %                                                                      %
     %  * vdW-DF3 is now available. DOI: 10.1021/acs.jctc.0c00471           %
     %    use with input_dft = 'vdW-DF3-opt1' or 'vdW-DF3-opt2'             %
     %                                                                      %
     %  * Unscreened and range-separated hybrid vdW-DF-cx functionals       %
     %    DOI: 10.1063/1.4986522 and 10.1088/1361-648X/ac2ad2               %
     %    use with input_dft = 'vdW-DF-cx0'    and 'vdW-DF-ahcx'            %
     %  * Unscreened and range-separated hybrid vdW-DF2-b86r functionals    %
     %    DOI: 10.1063/1.4986522 and DOI: 10.1103/PhysRevX.12.041003        %
     %    use with input_dft = 'vdW-DF2-br0' and 'vdW-DF2-ahbr'             %
     %                                                                      %
     %%%%%%%%%%%%%%%%%%%%%%%%%%%%%%%%%%%%%%%%%%%%%%%%%%%%%%%%%%%%%%%%%%%%%%%%


     Starting wfcs are   72 randomized atomic wfcs

     total cpu time spent up to now is        2.9 secs

     per-process dynamical memory:    19.5 Mb

     Self-consistent Calculation

     iteration #  1     ecut=    90.00 Ry     beta= 0.70
     Davidson diagonalization with overlap
     ethr =  1.00E-02,  avg # of iterations =  2.0

     total cpu time spent up to now is        3.8 secs

     total energy              =    -415.90324875 Ry
     estimated scf accuracy    <       4.53818682 Ry

     iteration #  2     ecut=    90.00 Ry     beta= 0.70
     Davidson diagonalization with overlap
     ethr =  4.73E-03,  avg # of iterations =  3.0

     total cpu time spent up to now is        5.0 secs

     total energy              =    -417.39883180 Ry
     estimated scf accuracy    <       3.28326653 Ry

     iteration #  3     ecut=    90.00 Ry     beta= 0.70
     Davidson diagonalization with overlap
     ethr =  3.42E-03,  avg # of iterations =  2.0

     total cpu time spent up to now is        6.0 secs

     total energy              =    -417.82188529 Ry
     estimated scf accuracy    <       0.14848510 Ry

     iteration #  4     ecut=    90.00 Ry     beta= 0.70
     Davidson diagonalization with overlap
     ethr =  1.55E-04,  avg # of iterations =  4.0

     negative rho (up, down):  1.119E-07 0.000E+00

     total cpu time spent up to now is        7.3 secs

     total energy              =    -417.93513737 Ry
     estimated scf accuracy    <       0.17249279 Ry

     iteration #  5     ecut=    90.00 Ry     beta= 0.70
     Davidson diagonalization with overlap
     ethr =  1.55E-04,  avg # of iterations =  2.0

     negative rho (up, down):  1.729E-07 0.000E+00

     total cpu time spent up to now is        8.2 secs

     total energy              =    -417.93848751 Ry
     estimated scf accuracy    <       0.02880776 Ry

     iteration #  6     ecut=    90.00 Ry     beta= 0.70
     Davidson diagonalization with overlap
     ethr =  3.00E-05,  avg # of iterations =  2.0

     negative rho (up, down):  2.059E-07 0.000E+00

     total cpu time spent up to now is        9.1 secs

     total energy              =    -417.94093860 Ry
     estimated scf accuracy    <       0.00493573 Ry

     iteration #  7     ecut=    90.00 Ry     beta= 0.70
     Davidson diagonalization with overlap
     ethr =  5.14E-06,  avg # of iterations =  2.0

     negative rho (up, down):  2.061E-07 0.000E+00

     total cpu time spent up to now is       10.1 secs

     total energy              =    -417.94226649 Ry
     estimated scf accuracy    <       0.00010670 Ry

     iteration #  8     ecut=    90.00 Ry     beta= 0.70
     Davidson diagonalization with overlap
     ethr =  1.11E-07,  avg # of iterations =  3.2

     negative rho (up, down):  1.896E-07 0.000E+00

     total cpu time spent up to now is       11.2 secs

     total energy              =    -417.94229974 Ry
     estimated scf accuracy    <       0.00008589 Ry

     iteration #  9     ecut=    90.00 Ry     beta= 0.70
     Davidson diagonalization with overlap
     ethr =  8.95E-08,  avg # of iterations =  2.0

     negative rho (up, down):  1.691E-07 0.000E+00

     total cpu time spent up to now is       12.1 secs

     total energy              =    -417.94228740 Ry
     estimated scf accuracy    <       0.00009072 Ry

     iteration # 10     ecut=    90.00 Ry     beta= 0.70
     Davidson diagonalization with overlap
     ethr =  8.95E-08,  avg # of iterations =  4.0

     negative rho (up, down):  1.726E-07 0.000E+00

     total cpu time spent up to now is       13.4 secs

     total energy              =    -417.94239918 Ry
     estimated scf accuracy    <       0.00035713 Ry

     iteration # 11     ecut=    90.00 Ry     beta= 0.70
     Davidson diagonalization with overlap
     ethr =  8.95E-08,  avg # of iterations =  1.0

     negative rho (up, down):  1.748E-07 0.000E+00

     total cpu time spent up to now is       14.1 secs

     total energy              =    -417.94240232 Ry
     estimated scf accuracy    <       0.00037475 Ry

     iteration # 12     ecut=    90.00 Ry     beta= 0.70
     Davidson diagonalization with overlap
     ethr =  8.95E-08,  avg # of iterations =  1.0

     negative rho (up, down):  1.779E-07 0.000E+00

     total cpu time spent up to now is       14.9 secs

     total energy              =    -417.94238029 Ry
     estimated scf accuracy    <       0.00039545 Ry

     iteration # 13     ecut=    90.00 Ry     beta= 0.70
     Davidson diagonalization with overlap
     ethr =  8.95E-08,  avg # of iterations =  1.0

     negative rho (up, down):  1.711E-07 0.000E+00

     total cpu time spent up to now is       15.7 secs

     total energy              =    -417.94243610 Ry
     estimated scf accuracy    <       0.00033540 Ry

     iteration # 14     ecut=    90.00 Ry     beta= 0.70
     Davidson diagonalization with overlap
     ethr =  8.95E-08,  avg # of iterations =  1.0

     negative rho (up, down):  1.773E-07 0.000E+00

     total cpu time spent up to now is       16.4 secs

     total energy              =    -417.94237995 Ry
     estimated scf accuracy    <       0.00050321 Ry

     iteration # 15     ecut=    90.00 Ry     beta= 0.70
     Davidson diagonalization with overlap
     ethr =  8.95E-08,  avg # of iterations =  1.0

     negative rho (up, down):  1.800E-07 0.000E+00

     total cpu time spent up to now is       17.2 secs

     total energy              =    -417.94235433 Ry
     estimated scf accuracy    <       0.00036575 Ry

     iteration # 16     ecut=    90.00 Ry     beta= 0.70
     Davidson diagonalization with overlap
     ethr =  8.95E-08,  avg # of iterations =  1.0

     negative rho (up, down):  2.065E-07 0.000E+00

     total cpu time spent up to now is       17.9 secs

     total energy              =    -417.94221781 Ry
     estimated scf accuracy    <       0.00025586 Ry

     iteration # 17     ecut=    90.00 Ry     beta= 0.70
     Davidson diagonalization with overlap
     ethr =  8.95E-08,  avg # of iterations =  3.9

     negative rho (up, down):  2.046E-07 0.000E+00

     total cpu time spent up to now is       19.2 secs

     total energy              =    -417.94228951 Ry
     estimated scf accuracy    <       0.00002268 Ry

     iteration # 18     ecut=    90.00 Ry     beta= 0.70
     Davidson diagonalization with overlap
     ethr =  2.36E-08,  avg # of iterations =  2.0

     negative rho (up, down):  2.045E-07 0.000E+00

     total cpu time spent up to now is       20.0 secs

     total energy              =    -417.94229078 Ry
     estimated scf accuracy    <       0.00001147 Ry

     iteration # 19     ecut=    90.00 Ry     beta= 0.70
     Davidson diagonalization with overlap
     ethr =  1.19E-08,  avg # of iterations =  1.0

     negative rho (up, down):  2.050E-07 0.000E+00

     total cpu time spent up to now is       20.7 secs

     total energy              =    -417.94229225 Ry
     estimated scf accuracy    <       0.00001101 Ry

     iteration # 20     ecut=    90.00 Ry     beta= 0.70
     Davidson diagonalization with overlap
     ethr =  1.15E-08,  avg # of iterations =  1.0

     negative rho (up, down):  2.035E-07 0.000E+00

     total cpu time spent up to now is       21.5 secs

     total energy              =    -417.94228746 Ry
     estimated scf accuracy    <       0.00001543 Ry

     iteration # 21     ecut=    90.00 Ry     beta= 0.70
     Davidson diagonalization with overlap
     ethr =  1.15E-08,  avg # of iterations =  1.9

     negative rho (up, down):  2.018E-07 0.000E+00

     total cpu time spent up to now is       22.3 secs

     total energy              =    -417.94228625 Ry
     estimated scf accuracy    <       0.00000375 Ry

     iteration # 22     ecut=    90.00 Ry     beta= 0.70
     Davidson diagonalization with overlap
     ethr =  3.91E-09,  avg # of iterations =  2.9

     negative rho (up, down):  2.016E-07 0.000E+00

     total cpu time spent up to now is       23.3 secs

     total energy              =    -417.94228805 Ry
     estimated scf accuracy    <       0.00000049 Ry

     iteration # 23     ecut=    90.00 Ry     beta= 0.70
     Davidson diagonalization with overlap
     ethr =  5.08E-10,  avg # of iterations =  2.9

     negative rho (up, down):  2.025E-07 0.000E+00

     total cpu time spent up to now is       24.3 secs

     total energy              =    -417.94228765 Ry
     estimated scf accuracy    <       0.00000115 Ry

     iteration # 24     ecut=    90.00 Ry     beta= 0.70
     Davidson diagonalization with overlap
     ethr =  5.08E-10,  avg # of iterations =  2.1

     negative rho (up, down):  2.025E-07 0.000E+00

     total cpu time spent up to now is       25.3 secs

     total energy              =    -417.94228776 Ry
     estimated scf accuracy    <       0.00000012 Ry

     iteration # 25     ecut=    90.00 Ry     beta= 0.70
     Davidson diagonalization with overlap
     ethr =  1.28E-10,  avg # of iterations =  1.9

     negative rho (up, down):  2.029E-07 0.000E+00

     total cpu time spent up to now is       26.1 secs

     End of self-consistent calculation

          k = 0.0000 0.0000 0.0000 ( 29273 PWs)   bands (ev):

   -21.2224 -20.7508 -20.7508 -20.5240 -20.5240 -20.4977 -20.4977 -20.4799
   -20.4792 -20.1706 -20.1706 -19.8515  -8.5666  -8.3636  -8.3003  -8.3003
    -8.2149  -8.2149  -7.7843  -7.6468  -7.6468  -7.4284  -7.4284  -7.2844
    -7.2304  -6.3110  -6.3110  -5.7085  -5.7085  -5.6238  -5.6238  -5.3351
    -5.1326  -4.4864  -4.4864  -3.8160  -3.1511  -3.1511  -3.0543  -2.9656
    -2.9170  -2.9170  -2.7749  -2.7749  -2.7513  -2.7337  -2.6800  -2.6800

          k =-0.1498-0.0865 0.3111 ( 29328 PWs)   bands (ev):

   -21.1465 -20.7924 -20.7385 -20.6714 -20.6473 -20.5719 -20.4259 -20.3823
   -20.3264 -20.1773 -20.1345 -19.9126  -8.5102  -8.4247  -8.3467  -8.3018
    -8.1965  -8.1327  -7.7903  -7.6174  -7.5961  -7.4630  -7.3308  -7.2936
    -7.0846  -6.4586  -6.3238  -6.0482  -5.7165  -5.5839  -5.4435  -5.2139
    -5.1555  -4.4773  -4.4147  -3.9516  -3.2750  -3.1992  -3.0801  -3.0138
    -2.9568  -2.9214  -2.8763  -2.8111  -2.7437  -2.7038  -2.6675  -2.6198

          k = 0.2996 0.1730-0.6221 ( 29350 PWs)   bands (ev):

   -20.9508 -20.9472 -20.7747 -20.7566 -20.6474 -20.6415 -20.3705 -20.3588
   -20.1854 -20.1804 -20.0718 -20.0497  -8.4793  -8.4249  -8.3397  -8.3141
    -8.2025  -8.1356  -7.7397  -7.6169  -7.5705  -7.4730  -7.2441  -7.2439
    -6.8340  -6.6911  -6.3751  -6.2185  -5.7212  -5.6359  -5.4387  -5.2804
    -4.7347  -4.6200  -4.3518  -4.1257  -3.3866  -3.2230  -3.1019  -3.0766
    -2.9992  -2.9765  -2.8837  -2.8204  -2.8007  -2.6659  -2.6516  -2.5733

          k =-0.1498 0.0865 0.6221 ( 29340 PWs)   bands (ev):

   -20.9925 -20.8526 -20.8413 -20.7194 -20.6969 -20.6304 -20.3754 -20.2928
   -20.2558 -20.1360 -20.1178 -20.0241  -8.4880  -8.3995  -8.3839  -8.2742
    -8.2175  -8.1222  -7.7402  -7.6578  -7.6020  -7.3645  -7.2948  -7.2390
    -6.8400  -6.6211  -6.5213  -6.0454  -5.8652  -5.6804  -5.3609  -5.1541
    -4.9451  -4.4428  -4.4165  -4.1410  -3.3629  -3.2677  -3.0912  -3.0451
    -3.0089  -2.9558  -2.9096  -2.8223  -2.7907  -2.6750  -2.6561  -2.5672

          k = 0.2996 0.3460-0.3111 ( 29337 PWs)   bands (ev):

   -21.0471 -20.8864 -20.7743 -20.7529 -20.6659 -20.5975 -20.3777 -20.2747
   -20.2654 -20.1737 -20.1122 -19.9986  -8.4960  -8.4728  -8.3177  -8.2908
    -8.2319  -8.1334  -7.7814  -7.7222  -7.5903  -7.3308  -7.3022  -7.2277
    -6.9649  -6.6546  -6.4122  -6.0626  -6.0267  -5.5124  -5.3309  -5.0601
    -4.8296  -4.6034  -4.3955  -4.1118  -3.2680  -3.1968  -3.1085  -3.0381
    -2.9769  -2.9236  -2.8629  -2.8520  -2.7631  -2.7215  -2.6584  -2.5526

          k = 0.1498 0.2595 0.0000 ( 29347 PWs)   bands (ev):

   -21.1677 -20.8285 -20.7709 -20.6370 -20.6096 -20.5263 -20.4463 -20.3723
   -20.3325 -20.1821 -20.1454 -19.9002  -8.5488  -8.4392  -8.3366  -8.2938
    -8.1722  -8.1657  -7.8536  -7.7136  -7.5194  -7.4320  -7.3613  -7.2363
    -7.2264  -6.4366  -6.3012  -6.0416  -5.9296  -5.4601  -5.3192  -5.1970
    -5.0054  -4.5567  -4.4651  -3.9073  -3.1531  -3.1316  -3.0900  -3.0021
    -2.9584  -2.9293  -2.8083  -2.7928  -2.7594  -2.7460  -2.6393  -2.6241

          k = 0.2996-0.1730-1.2442 ( 29340 PWs)   bands (ev):

   -21.0366 -20.9966 -20.7868 -20.6872 -20.6099 -20.5489 -20.3904 -20.3533
   -20.2393 -20.2171 -20.0339 -20.0180  -8.5252  -8.4860  -8.3461  -8.3149
    -8.1466  -8.1398  -7.8592  -7.7837  -7.5048  -7.4563  -7.2722  -7.2279
    -6.8870  -6.8456  -6.3705  -6.1569  -5.8388  -5.5826  -5.1921  -4.9356
    -4.8305  -4.7643  -4.3110  -4.1231  -3.1717  -3.1180  -3.0997  -3.0431
    -2.9597  -2.8974  -2.8790  -2.8018  -2.7927  -2.7404  -2.6031  -2.5891

          k = 0.0000 0.0000 0.9332 ( 29307 PWs)   bands (ev):

   -20.9371 -20.9371 -20.8548 -20.8082 -20.6256 -20.6256 -20.3011 -20.3011
   -20.1797 -20.1361 -20.1100 -20.1100  -8.4724  -8.4724  -8.3341  -8.2280
    -8.2280  -8.2237  -7.7920  -7.6872  -7.6872  -7.2382  -7.2382  -7.1984
    -6.7582  -6.7548  -6.7548  -6.0850  -5.7796  -5.7796  -5.1177  -4.9235
    -4.9235  -4.4620  -4.4620  -4.2990  -3.2081  -3.2081  -3.0891  -3.0164
    -2.9483  -2.9483  -2.8923  -2.8251  -2.8251  -2.7048  -2.7048  -2.5283

          k = 0.4494 0.2595 0.0000 ( 29335 PWs)   bands (ev):

   -21.0663 -20.8961 -20.8883 -20.6887 -20.5535 -20.5411 -20.4055 -20.3975
   -20.2400 -20.1439 -20.1094 -19.9878  -8.5197  -8.4745  -8.4047  -8.2487
    -8.1883  -8.1235  -7.8758  -7.7322  -7.6011  -7.3494  -7.2969  -7.2491
    -6.9953  -6.6139  -6.5336  -6.1072  -5.8512  -5.5785  -5.1169  -5.0797
    -4.8729  -4.5662  -4.4271  -4.0954  -3.1521  -3.1447  -3.0866  -3.0473
    -2.9752  -2.9135  -2.8451  -2.8206  -2.7658  -2.7174  -2.6551  -2.5707

          k = 0.2996 0.1730 0.3111 ( 29366 PWs)   bands (ev):

   -21.0953 -20.8392 -20.7479 -20.7365 -20.6469 -20.5875 -20.3929 -20.3631
   -20.2894 -20.1660 -20.1104 -19.9513  -8.5183  -8.4572  -8.3731  -8.2427
    -8.2369  -8.0815  -7.8179  -7.6850  -7.5032  -7.4305  -7.3796  -7.2797
    -6.9945  -6.4578  -6.2851  -6.1971  -5.9664  -5.6092  -5.3119  -5.1059
    -4.9491  -4.5436  -4.4069  -3.9941  -3.2873  -3.2099  -3.1325  -3.0750
    -2.9741  -2.9329  -2.8537  -2.8162  -2.7302  -2.6898  -2.6278  -2.6117

          k = 0.4494-0.2595-0.9332 ( 29345 PWs)   bands (ev):

   -20.9631 -20.9584 -20.8193 -20.7604 -20.6344 -20.5571 -20.4326 -20.3469
   -20.2011 -20.1472 -20.0944 -20.0108  -8.5452  -8.4452  -8.4028  -8.2495
    -8.2022  -8.0618  -7.8667  -7.6459  -7.5233  -7.4668  -7.3169  -7.2857
    -6.7248  -6.6823  -6.3556  -6.2140  -6.0219  -5.7006  -5.2663  -4.9827
    -4.6763  -4.6369  -4.4478  -4.0664  -3.2860  -3.2314  -3.1922  -3.0745
    -3.0386  -2.9530  -2.7996  -2.7776  -2.7421  -2.7026  -2.6298  -2.5751

          k = 0.2996-0.3460-0.6221 ( 29332 PWs)   bands (ev):

   -20.9166 -20.9086 -20.8068 -20.7948 -20.6669 -20.6645 -20.3524 -20.3439
   -20.1893 -20.1807 -20.0666 -20.0429  -8.5584  -8.3591  -8.3288  -8.3069
    -8.2703  -8.0650  -7.7682  -7.6602  -7.4971  -7.4529  -7.2935  -7.2880
    -6.6904  -6.5619  -6.3945  -6.2719  -5.9392  -5.9026  -5.1840  -5.1119
    -4.6843  -4.6427  -4.4567  -4.0509  -3.4190  -3.2467  -3.1897  -3.1178
    -3.0591  -2.9189  -2.8485  -2.8052  -2.7812  -2.6555  -2.6374  -2.5559

          k = 0.0000 0.0000-1.8663 ( 29358 PWs)   bands (ev):

   -20.8826 -20.8608 -20.7698 -20.7698 -20.7691 -20.7691 -20.2766 -20.2766
   -20.2385 -20.2385 -20.0510 -20.0307  -8.6071  -8.3179  -8.3179  -8.3011
    -8.3011  -8.0343  -7.8166  -7.6614  -7.4019  -7.4019  -7.3699  -7.3699
    -6.5097  -6.3395  -6.2690  -6.2690  -6.2656  -6.2656  -4.9605  -4.9605
    -4.7238  -4.7238  -4.4746  -4.0000  -3.4519  -3.2499  -3.2499  -3.1555
    -3.1555  -2.8632  -2.8455  -2.7379  -2.7379  -2.6696  -2.6696  -2.5296

          k = 0.2996-0.3460 0.3111 ( 29337 PWs)   bands (ev):

   -21.0471 -20.8849 -20.7835 -20.7463 -20.6629 -20.5982 -20.3792 -20.2902
   -20.2425 -20.1868 -20.1041 -20.0006  -8.5135  -8.4372  -8.3514  -8.2892
    -8.2057  -8.1392  -7.8301  -7.6881  -7.5680  -7.3707  -7.2640  -7.2487
    -6.9565  -6.5842  -6.5112  -6.1144  -5.8777  -5.5781  -5.4099  -4.9704
    -4.8058  -4.5889  -4.4709  -4.0879  -3.2768  -3.1674  -3.1240  -3.0315
    -2.9869  -2.9302  -2.8633  -2.8511  -2.7813  -2.6895  -2.6591  -2.5615

     highest occupied level (ev):    -2.5283

!    total energy              =    -417.94228769 Ry
     estimated scf accuracy    <       0.00000009 Ry

     The total energy is the sum of the following terms:
     one-electron contribution =    -290.47114974 Ry
     hartree contribution      =     180.37007198 Ry
     xc contribution           =    -105.69016464 Ry
     ewald contribution        =    -202.15104530 Ry

     convergence has been achieved in  25 iterations

     Forces acting on atoms (cartesian axes, Ry/au):

     atom    1 type  2   force =    -0.03286621    0.06806906    0.03320733
     atom    2 type  2   force =     0.03286621   -0.06806906   -0.03320733
     atom    3 type  2   force =    -0.04251643   -0.06249750    0.03320733
     atom    4 type  2   force =     0.04251643    0.06249750   -0.03320733
     atom    5 type  2   force =     0.07538264   -0.00557156    0.03320733
     atom    6 type  2   force =    -0.07538264    0.00557156   -0.03320733
     atom    7 type  2   force =    -0.03309371    0.02757995   -0.02472289
     atom    8 type  2   force =     0.03309371   -0.02757995    0.02472289
     atom    9 type  2   force =    -0.00733808   -0.04244997   -0.02472289
     atom   10 type  2   force =     0.00733808    0.04244997    0.02472289
     atom   11 type  2   force =     0.04043179    0.01487002   -0.02472289
     atom   12 type  2   force =    -0.04043179   -0.01487002    0.02472289
     atom   13 type  1   force =     0.00382799   -0.02745983   -0.05384958
     atom   14 type  1   force =    -0.00382799    0.02745983    0.05384958
     atom   15 type  1   force =     0.02186692    0.01704505   -0.05384958
     atom   16 type  1   force =    -0.02186692   -0.01704505    0.05384958
     atom   17 type  1   force =    -0.02569491    0.01041478   -0.05384958
     atom   18 type  1   force =     0.02569491   -0.01041478    0.05384958
     atom   19 type  1   force =     0.03078111   -0.04737505    0.00981187
     atom   20 type  1   force =    -0.03078111    0.04737505   -0.00981187
     atom   21 type  1   force =     0.02563745    0.05034475    0.00981187
     atom   22 type  1   force =    -0.02563745   -0.05034475   -0.00981187
     atom   23 type  1   force =    -0.05641855   -0.00296969    0.00981187
     atom   24 type  1   force =     0.05641855    0.00296969   -0.00981187
     atom   25 type  1   force =    -0.01519754   -0.00392128    0.01344305
     atom   26 type  1   force =     0.01519754    0.00392128   -0.01344305
     atom   27 type  1   force =     0.01099470   -0.01120081    0.01344305
     atom   28 type  1   force =    -0.01099470    0.01120081   -0.01344305
     atom   29 type  1   force =     0.00420284    0.01512210    0.01344305
     atom   30 type  1   force =    -0.00420284   -0.01512210   -0.01344305
     atom   31 type  1   force =    -0.02899215   -0.01044444    0.01596770
     atom   32 type  1   force =     0.02899215    0.01044444   -0.01596770
     atom   33 type  1   force =     0.02354122   -0.01988572    0.01596770
     atom   34 type  1   force =    -0.02354122    0.01988572   -0.01596770
     atom   35 type  1   force =     0.00545092    0.03033016    0.01596770
     atom   36 type  1   force =    -0.00545092   -0.03033016   -0.01596770

     Total force =     0.327460     Total SCF correction =     0.000455


     Computing stress (Cartesian axis) and pressure

          total   stress  (Ry/bohr**3)                   (kbar)     P=      -10.12
  -0.00014402   0.00000000  -0.00000000          -21.19        0.00       -0.00
  -0.00000000  -0.00014402  -0.00000000           -0.00      -21.19       -0.00
   0.00000000  -0.00000000   0.00008172            0.00       -0.00       12.02


     BFGS Geometry Optimization
     Energy error            =      0.0E+00 Ry
     Gradient error          =      7.5E-02 Ry/Bohr

     number of scf cycles    =   1
     number of bfgs steps    =   0

     energy             new  =    -417.9422876943 Ry

     new trust radius        =       0.0825609531 bohr
     new conv_thr            =       0.0000001000 Ry


ATOMIC_POSITIONS (crystal)
O                0.2728683867        0.0300320710        0.8565556732
O                0.7271316133        0.9699679400        0.1434442968
O                0.8565556732        0.2728683867        0.0300320710
O                0.1434442968        0.7271316133        0.9699679400
O                0.0300320710        0.8565556732        0.2728683867
O                0.9699679400        0.1434442968        0.7271316133
O                0.4738975003        0.7492034342        0.3306034203
O                0.5261024997        0.2507965658        0.6693965497
O                0.3306034203        0.4738975003        0.7492034342
O                0.6693965497        0.5261024997        0.2507965658
O                0.7492034342        0.3306034203        0.4738975003
O                0.2507965658        0.6693965497        0.5261024997
H                0.1612337739        0.0631328121        0.8059207721
H                0.8387662121        0.9368671799        0.1940792279
H                0.8059207721        0.1612337739        0.0631328121
H                0.1940792279        0.8387662121        0.9368671799
H                0.0631328121        0.8059207721        0.1612337739
H                0.9368671799        0.1940792279        0.8387662121
H                0.4162094800        0.2035964083        0.9976926436
H                0.5837905200        0.7964036067        0.0023073354
H                0.9976926436        0.4162094800        0.2035964083
H                0.0023073354        0.5837905200        0.7964036067
H                0.2035964083        0.9976926436        0.4162094800
H                0.7964036067        0.0023073354        0.5837905200
H                0.7196123015        0.4019559589        0.3968549623
H                0.2803876985        0.5980440111        0.6031450677
H                0.3968549623        0.7196123015        0.4019559589
H                0.6031450677        0.2803876985        0.5980440111
H                0.4019559589        0.3968549623        0.7196123015
H                0.5980440111        0.6031450677        0.2803876985
H                0.7414166247        0.2038623183        0.3627871943
H                0.2585833753        0.7961376667        0.6372128057
H                0.3627871943        0.7414166247        0.2038623183
H                0.6372128057        0.2585833753        0.7961376667
H                0.2038623183        0.3627871943        0.7414166247
H                0.7961376667        0.6372128057        0.2585833753



     Writing config-only to output data dir ./iceII/iceII.save/ :
     XML data file
     NEW-OLD atomic charge density approx. for the potential

     negative rho (up, down):  1.608E-07 0.000E+00

     total cpu time spent up to now is       27.6 secs

     per-process dynamical memory:    18.6 Mb

     Self-consistent Calculation

     iteration #  1     ecut=    90.00 Ry     beta= 0.70
     Davidson diagonalization with overlap
     ethr =  1.00E-06,  avg # of iterations =  9.0

     negative rho (up, down):  2.345E-07 0.000E+00

     total cpu time spent up to now is       29.8 secs

     total energy              =    -418.00136870 Ry
     estimated scf accuracy    <       0.02211639 Ry

     iteration #  2     ecut=    90.00 Ry     beta= 0.70
     Davidson diagonalization with overlap
     ethr =  2.30E-05,  avg # of iterations =  3.0

     negative rho (up, down):  2.220E-07 0.000E+00

     total cpu time spent up to now is       30.9 secs

     total energy              =    -418.00727494 Ry
     estimated scf accuracy    <       0.00709257 Ry

     iteration #  3     ecut=    90.00 Ry     beta= 0.70
     Davidson diagonalization with overlap
     ethr =  7.39E-06,  avg # of iterations =  2.0

     negative rho (up, down):  2.134E-07 0.000E+00

     total cpu time spent up to now is       31.9 secs

     total energy              =    -418.00847671 Ry
     estimated scf accuracy    <       0.00019422 Ry

     iteration #  4     ecut=    90.00 Ry     beta= 0.70
     Davidson diagonalization with overlap
     ethr =  2.02E-07,  avg # of iterations =  4.9

     negative rho (up, down):  2.191E-07 0.000E+00

     total cpu time spent up to now is       33.1 secs

     total energy              =    -418.00857397 Ry
     estimated scf accuracy    <       0.00020804 Ry

     iteration #  5     ecut=    90.00 Ry     beta= 0.70
     Davidson diagonalization with overlap
     ethr =  2.02E-07,  avg # of iterations =  2.0

     negative rho (up, down):  2.219E-07 0.000E+00

     total cpu time spent up to now is       34.1 secs

     total energy              =    -418.00860354 Ry
     estimated scf accuracy    <       0.00001369 Ry

     iteration #  6     ecut=    90.00 Ry     beta= 0.70
     Davidson diagonalization with overlap
     ethr =  1.43E-08,  avg # of iterations =  4.1

     negative rho (up, down):  2.196E-07 0.000E+00

     total cpu time spent up to now is       35.4 secs

     total energy              =    -418.00860741 Ry
     estimated scf accuracy    <       0.00002780 Ry

     iteration #  7     ecut=    90.00 Ry     beta= 0.70
     Davidson diagonalization with overlap
     ethr =  1.43E-08,  avg # of iterations =  2.8

     negative rho (up, down):  2.192E-07 0.000E+00

     total cpu time spent up to now is       36.4 secs

     total energy              =    -418.00861231 Ry
     estimated scf accuracy    <       0.00000036 Ry

     iteration #  8     ecut=    90.00 Ry     beta= 0.70
     Davidson diagonalization with overlap
     ethr =  3.79E-10,  avg # of iterations =  4.0

     negative rho (up, down):  2.193E-07 0.000E+00

     total cpu time spent up to now is       37.8 secs

     total energy              =    -418.00861274 Ry
     estimated scf accuracy    <       0.00000023 Ry

     iteration #  9     ecut=    90.00 Ry     beta= 0.70
     Davidson diagonalization with overlap
     ethr =  2.36E-10,  avg # of iterations =  2.0

     negative rho (up, down):  2.195E-07 0.000E+00

     total cpu time spent up to now is       38.6 secs

     End of self-consistent calculation

          k = 0.0000 0.0000 0.0000 ( 29273 PWs)   bands (ev):

   -21.4374 -20.9899 -20.9899 -20.7676 -20.7676 -20.7467 -20.7467 -20.7310
   -20.7243 -20.4350 -20.4350 -20.1422  -8.8897  -8.6755  -8.6283  -8.6283
    -8.5936  -8.5936  -8.1023  -8.1023  -8.0274  -7.9755  -7.9755  -7.8147
    -7.3518  -6.2011  -6.2011  -5.5883  -5.5883  -5.5401  -5.5401  -5.2267
    -5.1310  -4.4643  -4.4643  -3.8020  -3.2208  -3.2208  -3.1629  -2.9971
    -2.9901  -2.9901  -2.8216  -2.8190  -2.8190  -2.7932  -2.7255  -2.7255

          k =-0.1498-0.0865 0.3111 ( 29328 PWs)   bands (ev):

   -21.3645 -21.0255 -20.9773 -20.9087 -20.8908 -20.8200 -20.6747 -20.6313
   -20.5810 -20.4444 -20.4041 -20.1983  -8.8414  -8.7257  -8.6653  -8.6386
    -8.5728  -8.5072  -8.1459  -8.0971  -8.0016  -7.9509  -7.9003  -7.8729
    -7.1324  -6.3601  -6.2312  -5.9384  -5.6880  -5.4301  -5.3649  -5.1245
    -5.0650  -4.4585  -4.3864  -3.9323  -3.3356  -3.2645  -3.1686  -3.0616
    -3.0304  -2.9879  -2.9414  -2.8566  -2.7941  -2.7490  -2.7201  -2.6724

          k = 0.2996 0.1730-0.6221 ( 29350 PWs)   bands (ev):

   -21.1816 -21.1678 -21.0138 -20.9826 -20.8969 -20.8860 -20.6211 -20.6045
   -20.4550 -20.4459 -20.3490 -20.3237  -8.7653  -8.7628  -8.6799  -8.6497
    -8.5643  -8.4926  -8.1321  -8.0780  -8.0058  -7.9932  -7.8456  -7.8333
    -6.7651  -6.6233  -6.2838  -6.1665  -5.6759  -5.5842  -5.2720  -5.1114
    -4.6671  -4.5767  -4.3258  -4.1162  -3.4355  -3.2883  -3.1768  -3.1202
    -3.0622  -3.0589  -2.9354  -2.8807  -2.8604  -2.7156  -2.6928  -2.6267

          k =-0.1498 0.0865 0.6221 ( 29340 PWs)   bands (ev):

   -21.2166 -21.0819 -21.0718 -20.9567 -20.9377 -20.8762 -20.6241 -20.5468
   -20.5161 -20.4084 -20.3905 -20.3013  -8.7795  -8.7317  -8.7194  -8.6150
    -8.5774  -8.4874  -8.1152  -8.1032  -8.0550  -7.9097  -7.8711  -7.8385
    -6.7925  -6.5136  -6.4524  -5.9914  -5.7919  -5.6241  -5.2079  -5.0146
    -4.8496  -4.4202  -4.3881  -4.1271  -3.4131  -3.3279  -3.1634  -3.1023
    -3.0851  -3.0097  -2.9747  -2.8780  -2.8499  -2.7246  -2.6984  -2.6196

          k = 0.2996 0.3460-0.3111 ( 29337 PWs)   bands (ev):

   -21.2696 -21.1186 -21.0018 -20.9966 -20.8999 -20.8412 -20.6310 -20.5395
   -20.5214 -20.4405 -20.3837 -20.2762  -8.8024  -8.7777  -8.6575  -8.6274
    -8.5825  -8.4834  -8.2135  -8.1779  -8.0661  -7.8828  -7.8568  -7.8141
    -6.8604  -6.5288  -6.2835  -6.0137  -5.9946  -5.4629  -5.1419  -4.9972
    -4.7900  -4.5498  -4.3626  -4.0849  -3.3309  -3.2668  -3.1849  -3.1161
    -3.0306  -2.9720  -2.9292  -2.9098  -2.8248  -2.7705  -2.6997  -2.6013

          k = 0.1498 0.2595 0.0000 ( 29347 PWs)   bands (ev):

   -21.3851 -21.0647 -21.0097 -20.8739 -20.8459 -20.7686 -20.7005 -20.6315
   -20.5903 -20.4462 -20.4101 -20.1863  -8.8664  -8.7326  -8.6648  -8.6364
    -8.5422  -8.5297  -8.2427  -8.1647  -8.0124  -7.9568  -7.8960  -7.8111
    -7.1649  -6.3008  -6.1871  -5.9705  -5.8573  -5.3875  -5.2256  -5.0884
    -4.9854  -4.5192  -4.4415  -3.8823  -3.2246  -3.2048  -3.1880  -3.0735
    -3.0082  -2.9850  -2.8608  -2.8405  -2.8345  -2.7943  -2.6841  -2.6698

          k = 0.2996-0.1730-1.2442 ( 29340 PWs)   bands (ev):

   -21.2588 -21.2248 -21.0259 -20.9195 -20.8501 -20.7856 -20.6522 -20.6106
   -20.5084 -20.4746 -20.3117 -20.2899  -8.8252  -8.7863  -8.6726  -8.6484
    -8.5084  -8.4888  -8.3164  -8.2236  -8.0297  -7.9512  -7.8407  -7.8091
    -6.7348  -6.7109  -6.2295  -6.1382  -5.7792  -5.5135  -5.0979  -4.9100
    -4.7527  -4.7180  -4.2741  -4.0854  -3.2471  -3.1972  -3.1814  -3.1238
    -3.0193  -2.9460  -2.9253  -2.8673  -2.8435  -2.7927  -2.6488  -2.6357

          k = 0.0000 0.0000 0.9332 ( 29307 PWs)   bands (ev):

   -21.1637 -21.1637 -21.0970 -21.0333 -20.8639 -20.8639 -20.5620 -20.5620
   -20.4496 -20.3959 -20.3825 -20.3825  -8.7781  -8.7781  -8.6965  -8.5688
    -8.5688  -8.5540  -8.2454  -8.1398  -8.1398  -7.8278  -7.8277  -7.7931
    -6.6154  -6.6154  -6.5717  -6.0781  -5.7384  -5.7384  -4.9307  -4.8534
    -4.8534  -4.4242  -4.4242  -4.2825  -3.2781  -3.2781  -3.1698  -3.1089
    -3.0003  -3.0003  -2.9503  -2.8834  -2.8834  -2.7448  -2.7448  -2.5758

          k = 0.4494 0.2595 0.0000 ( 29335 PWs)   bands (ev):

   -21.2885 -21.1262 -21.1230 -20.9192 -20.7996 -20.7796 -20.6633 -20.6514
   -20.5089 -20.4111 -20.3760 -20.2653  -8.8267  -8.7671  -8.7211  -8.5972
    -8.5493  -8.4683  -8.3302  -8.1795  -8.0942  -7.8886  -7.8563  -7.8199
    -6.8586  -6.4617  -6.3995  -6.1027  -5.7739  -5.4949  -5.0671  -5.0317
    -4.7906  -4.5137  -4.3931  -4.0592  -3.2292  -3.2171  -3.1737  -3.1305
    -3.0297  -2.9615  -2.9054  -2.8760  -2.8189  -2.7677  -2.7018  -2.6158

          k = 0.2996 0.1730 0.3111 ( 29366 PWs)   bands (ev):

   -21.3157 -21.0729 -20.9857 -20.9693 -20.8855 -20.8343 -20.6421 -20.6217
   -20.5426 -20.4373 -20.3800 -20.2329  -8.8255  -8.7544  -8.6865  -8.6088
    -8.5863  -8.4548  -8.2361  -8.0898  -8.0086  -7.9789  -7.8780  -7.8598
    -6.9701  -6.3624  -6.2302  -6.0744  -5.8872  -5.4778  -5.2402  -5.0410
    -4.8897  -4.5002  -4.3764  -3.9679  -3.3490  -3.2738  -3.2094  -3.1223
    -3.0406  -2.9932  -2.9184  -2.8735  -2.7880  -2.7497  -2.6747  -2.6573

          k = 0.4494-0.2595-0.9332 ( 29345 PWs)   bands (ev):

   -21.1888 -21.1875 -21.0541 -20.9888 -20.8741 -20.8075 -20.6781 -20.6051
   -20.4631 -20.4204 -20.3673 -20.2847  -8.8081  -8.7669  -8.7160  -8.6071
    -8.5610  -8.4171  -8.2975  -8.1173  -8.0158  -7.9892  -7.8671  -7.8472
    -6.6567  -6.5550  -6.2440  -6.2081  -5.9178  -5.5406  -5.2329  -4.9559
    -4.6266  -4.5600  -4.4067  -4.0321  -3.3500  -3.2942  -3.2534  -3.1279
    -3.0857  -3.0302  -2.8648  -2.8387  -2.8069  -2.7580  -2.6800  -2.6174

          k = 0.2996-0.3460-0.6221 ( 29332 PWs)   bands (ev):

   -21.1506 -21.1298 -21.0421 -21.0226 -20.9112 -20.9066 -20.6059 -20.5949
   -20.4566 -20.4463 -20.3445 -20.3161  -8.8149  -8.7051  -8.6743  -8.6438
    -8.6149  -8.4258  -8.1560  -8.1304  -7.9807  -7.9727  -7.8730  -7.8679
    -6.6207  -6.5108  -6.2991  -6.2474  -5.8119  -5.7722  -5.0930  -5.0197
    -4.6379  -4.5935  -4.4048  -4.0392  -3.4616  -3.3077  -3.2537  -3.1622
    -3.1139  -2.9767  -2.9231  -2.8702  -2.8476  -2.7111  -2.6908  -2.5989

          k = 0.0000 0.0000-1.8663 ( 29358 PWs)   bands (ev):

   -21.1210 -21.0781 -21.0113 -21.0113 -20.9986 -20.9986 -20.5411 -20.5411
   -20.4956 -20.4956 -20.3298 -20.3045  -8.8380  -8.6715  -8.6715  -8.6380
    -8.6380  -8.3827  -8.1808  -8.1687  -7.9371  -7.9371  -7.9240  -7.9240
    -6.4787  -6.4248  -6.1313  -6.1313  -6.1108  -6.1108  -4.8953  -4.8953
    -4.6866  -4.6866  -4.3950  -3.9859  -3.4864  -3.3075  -3.3075  -3.1973
    -3.1973  -2.9326  -2.9229  -2.8046  -2.8046  -2.7280  -2.7280  -2.5694

          k = 0.2996-0.3460 0.3111 ( 29337 PWs)   bands (ev):

   -21.2698 -21.1150 -21.0218 -20.9817 -20.8965 -20.8413 -20.6328 -20.5539
   -20.4970 -20.4569 -20.3749 -20.2783  -8.8157  -8.7486  -8.6755  -8.6451
    -8.5458  -8.4986  -8.2448  -8.1496  -8.0586  -7.8897  -7.8509  -7.8198
    -6.8660  -6.4575  -6.3893  -6.0566  -5.8481  -5.5233  -5.2527  -4.8785
    -4.7400  -4.5678  -4.4277  -4.0623  -3.3380  -3.2452  -3.1976  -3.1071
    -3.0297  -2.9892  -2.9201  -2.9176  -2.8425  -2.7374  -2.7027  -2.6092

     highest occupied level (ev):    -2.5694

!    total energy              =    -418.00861272 Ry
     estimated scf accuracy    <       0.00000004 Ry

     The total energy is the sum of the following terms:
     one-electron contribution =    -294.91103317 Ry
     hartree contribution      =     182.35858653 Ry
     xc contribution           =    -106.22004505 Ry
     ewald contribution        =    -199.23612103 Ry

     convergence has been achieved in   9 iterations

     Forces acting on atoms (cartesian axes, Ry/au):

     atom    1 type  2   force =    -0.00243900   -0.00138404    0.00453635
     atom    2 type  2   force =     0.00243900    0.00138404   -0.00453635
     atom    3 type  2   force =     0.00241811   -0.00142022    0.00453635
     atom    4 type  2   force =    -0.00241811    0.00142022   -0.00453635
     atom    5 type  2   force =     0.00002089    0.00280426    0.00453635
     atom    6 type  2   force =    -0.00002089   -0.00280426   -0.00453635
     atom    7 type  2   force =    -0.00080745   -0.00829861    0.00160236
     atom    8 type  2   force =     0.00080745    0.00829861   -0.00160236
     atom    9 type  2   force =     0.00759053    0.00345003    0.00160236
     atom   10 type  2   force =    -0.00759053   -0.00345003   -0.00160236
     atom   11 type  2   force =    -0.00678308    0.00484857    0.00160236
     atom   12 type  2   force =     0.00678308   -0.00484857   -0.00160236
     atom   13 type  1   force =    -0.01600687    0.01857907   -0.04670787
     atom   14 type  1   force =     0.01600687   -0.01857907    0.04670787
     atom   15 type  1   force =    -0.00808651   -0.02315189   -0.04670787
     atom   16 type  1   force =     0.00808651    0.02315189    0.04670787
     atom   17 type  1   force =     0.02409338    0.00457282   -0.04670787
     atom   18 type  1   force =    -0.02409338   -0.00457282    0.04670787
     atom   19 type  1   force =     0.02272210   -0.02212888    0.03412171
     atom   20 type  1   force =    -0.02272210    0.02212888   -0.03412171
     atom   21 type  1   force =     0.00780312    0.03074235    0.03412171
     atom   22 type  1   force =    -0.00780312   -0.03074235   -0.03412171
     atom   23 type  1   force =    -0.03052522   -0.00861348    0.03412171
     atom   24 type  1   force =     0.03052522    0.00861348   -0.03412171
     atom   25 type  1   force =     0.00117149    0.01768200    0.00685740
     atom   26 type  1   force =    -0.00117149   -0.01768200   -0.00685740
     atom   27 type  1   force =    -0.01589881   -0.00782646    0.00685740
     atom   28 type  1   force =     0.01589881    0.00782646   -0.00685740
     atom   29 type  1   force =     0.01472732   -0.00985554    0.00685740
     atom   30 type  1   force =    -0.01472732    0.00985554   -0.00685740
     atom   31 type  1   force =     0.00425016   -0.02221025   -0.00711491
     atom   32 type  1   force =    -0.00425016    0.02221025    0.00711491
     atom   33 type  1   force =     0.01710956    0.01478587   -0.00711491
     atom   34 type  1   force =    -0.01710956   -0.01478587    0.00711491
     atom   35 type  1   force =    -0.02135972    0.00742438   -0.00711491
     atom   36 type  1   force =     0.02135972   -0.00742438    0.00711491

     Total force =     0.189370     Total SCF correction =     0.000105


     Computing stress (Cartesian axis) and pressure

          total   stress  (Ry/bohr**3)                   (kbar)     P=       33.85
   0.00018295  -0.00000000   0.00000000           26.91       -0.00        0.00
   0.00000000   0.00018295   0.00000000            0.00       26.91        0.00
  -0.00000000   0.00000000   0.00032441           -0.00        0.00       47.72

     Energy error            =      6.6E-02 Ry
     Gradient error          =      4.7E-02 Ry/Bohr

     number of scf cycles    =   2
     number of bfgs steps    =   1

     energy             old  =    -417.9422876943 Ry
     energy             new  =    -418.0086127196 Ry

     CASE: energy            _new < energy            _old

     new trust radius        =       0.0878485056 bohr
     new conv_thr            =       0.0000000467 Ry


ATOMIC_POSITIONS (crystal)
O                0.2732139485        0.0332758685        0.8584193705
O                0.7267860515        0.9667241425        0.1415805995
O                0.8584193705        0.2732139485        0.0332758685
O                0.1415805995        0.7267860515        0.9667241425
O                0.0332758685        0.8584193705        0.2732139485
O                0.9667241425        0.1415805995        0.7267860515
O                0.4723528130        0.7485015339        0.3304147052
O                0.5276471870        0.2514984661        0.6695852648
O                0.3304147052        0.4723528130        0.7485015339
O                0.6695852648        0.5276471870        0.2514984661
O                0.7485015339        0.3304147052        0.4723528130
O                0.2514984661        0.6695852648        0.5276471870
H                0.1529849171        0.0564205640        0.7992015540
H                0.8470150689        0.9435794280        0.2007984460
H                0.7992015540        0.1529849171        0.0564205640
H                0.2007984460        0.8470150689        0.9435794280
H                0.0564205640        0.7992015540        0.1529849171
H                0.9435794280        0.2007984460        0.8470150689
H                0.4232871486        0.2053091081        1.0012076500
H                0.5767128514        0.7946909069       -0.0012076710
H                1.0012076500        0.4232871486        0.2053091081
H               -0.0012076710        0.5767128514        0.7946909069
H                0.2053091081        1.0012076500        0.4232871486
H                0.7946909069       -0.0012076710        0.5767128514
H                0.7201723732        0.4042201653        0.3978761803
H                0.2798276268        0.5957798047        0.6021238497
H                0.3978761803        0.7201723732        0.4042201653
H                0.6021238497        0.2798276268        0.5957798047
H                0.4042201653        0.3978761803        0.7201723732
H                0.5957798047        0.6021238497        0.2798276268
H                0.7417328916        0.2021505919        0.3637720811
H                0.2582671084        0.7978493931        0.6362279189
H                0.3637720811        0.7417328916        0.2021505919
H                0.6362279189        0.2582671084        0.7978493931
H                0.2021505919        0.3637720811        0.7417328916
H                0.7978493931        0.6362279189        0.2582671084



     Writing config-only to output data dir ./iceII/iceII.save/ :
     XML data file
     NEW-OLD atomic charge density approx. for the potential

     negative rho (up, down):  1.273E-07 0.000E+00

     total cpu time spent up to now is       40.1 secs

     per-process dynamical memory:    19.1 Mb

     Self-consistent Calculation

     iteration #  1     ecut=    90.00 Ry     beta= 0.70
     Davidson diagonalization with overlap
     ethr =  1.00E-06,  avg # of iterations =  7.0

     negative rho (up, down):  1.903E-08 0.000E+00

     total cpu time spent up to now is       42.0 secs

     total energy              =    -418.04749052 Ry
     estimated scf accuracy    <       0.00223512 Ry

     iteration #  2     ecut=    90.00 Ry     beta= 0.70
     Davidson diagonalization with overlap
     ethr =  2.33E-06,  avg # of iterations =  2.0

     total cpu time spent up to now is       43.0 secs

     total energy              =    -418.04781672 Ry
     estimated scf accuracy    <       0.00019278 Ry

     iteration #  3     ecut=    90.00 Ry     beta= 0.70
     Davidson diagonalization with overlap
     ethr =  2.01E-07,  avg # of iterations =  2.0

     total cpu time spent up to now is       43.9 secs

     total energy              =    -418.04785089 Ry
     estimated scf accuracy    <       0.00002284 Ry

     iteration #  4     ecut=    90.00 Ry     beta= 0.70
     Davidson diagonalization with overlap
     ethr =  2.38E-08,  avg # of iterations =  2.0

     total cpu time spent up to now is       44.9 secs

     total energy              =    -418.04785501 Ry
     estimated scf accuracy    <       0.00000099 Ry

     iteration #  5     ecut=    90.00 Ry     beta= 0.70
     Davidson diagonalization with overlap
     ethr =  1.03E-09,  avg # of iterations =  2.9

     total cpu time spent up to now is       45.9 secs

     total energy              =    -418.04785526 Ry
     estimated scf accuracy    <       0.00000010 Ry

     iteration #  6     ecut=    90.00 Ry     beta= 0.70
     Davidson diagonalization with overlap
     ethr =  1.03E-10,  avg # of iterations =  2.9

     total cpu time spent up to now is       46.9 secs

     End of self-consistent calculation

          k = 0.0000 0.0000 0.0000 ( 29273 PWs)   bands (ev):

   -21.3273 -20.8751 -20.8751 -20.6393 -20.6393 -20.6294 -20.6294 -20.6071
   -20.5954 -20.2962 -20.2962 -20.0100  -8.9438  -8.7528  -8.7346  -8.7346
    -8.6707  -8.6707  -8.2725  -8.2725  -8.2457  -8.2002  -8.2002  -8.0553
    -7.1625  -5.9895  -5.9895  -5.4756  -5.4756  -5.3155  -5.3155  -5.0114
    -4.9915  -4.3104  -4.3104  -3.6449  -3.1974  -3.1974  -3.1465  -2.9672
    -2.9672  -2.9475  -2.8167  -2.7826  -2.7826  -2.7437  -2.6937  -2.6937

          k =-0.1498-0.0865 0.3111 ( 29328 PWs)   bands (ev):

   -21.2545 -20.9111 -20.8694 -20.7839 -20.7569 -20.6925 -20.5554 -20.5095
   -20.4590 -20.3046 -20.2661 -20.0646  -8.9008  -8.8001  -8.7522  -8.7232
    -8.6607  -8.6020  -8.3275  -8.2889  -8.2227  -8.1528  -8.1208  -8.0969
    -6.9563  -6.1718  -6.0332  -5.7619  -5.5849  -5.2626  -5.1300  -4.9662
    -4.8378  -4.3063  -4.2305  -3.7870  -3.3006  -3.2376  -3.1490  -3.0327
    -3.0097  -2.9521  -2.9128  -2.8143  -2.7685  -2.7130  -2.6930  -2.6466

          k = 0.2996 0.1730-0.6221 ( 29350 PWs)   bands (ev):

   -21.0889 -21.0385 -20.9015 -20.8542 -20.7785 -20.7464 -20.5131 -20.4712
   -20.3520 -20.2921 -20.2220 -20.1769  -8.8321  -8.8270  -8.7615  -8.7339
    -8.6577  -8.5792  -8.3213  -8.2855  -8.2127  -8.1960  -8.0692  -8.0535
    -6.5593  -6.4614  -6.0850  -6.0411  -5.5352  -5.4732  -4.9923  -4.8798
    -4.4585  -4.4254  -4.1800  -4.0075  -3.3865  -3.2628  -3.1574  -3.0802
    -3.0397  -3.0188  -2.9047  -2.8685  -2.8230  -2.6970  -2.6480  -2.6047

          k =-0.1498 0.0865 0.6221 ( 29340 PWs)   bands (ev):

   -21.1111 -20.9694 -20.9523 -20.8373 -20.8043 -20.7468 -20.5054 -20.4307
   -20.3879 -20.2762 -20.2540 -20.1598  -8.8405  -8.8010  -8.7962  -8.7148
    -8.6591  -8.5755  -8.3150  -8.2961  -8.2564  -8.1221  -8.0914  -8.0616
    -6.6004  -6.3315  -6.2857  -5.8387  -5.6538  -5.4878  -4.9689  -4.7579
    -4.6547  -4.2835  -4.2247  -4.0178  -3.3673  -3.2950  -3.1470  -3.0668
    -3.0442  -2.9839  -2.9506  -2.8448  -2.8284  -2.7022  -2.6586  -2.5948

          k = 0.2996 0.3460-0.3111 ( 29337 PWs)   bands (ev):

   -21.1593 -21.0001 -20.9252 -20.8414 -20.7701 -20.7130 -20.5141 -20.4360
   -20.3465 -20.3441 -20.2358 -20.1414  -8.8633  -8.8366  -8.7340  -8.7131
    -8.6734  -8.5774  -8.4059  -8.3740  -8.2794  -8.1045  -8.0758  -8.0384
    -6.6742  -6.3250  -6.0889  -5.8825  -5.8413  -5.3083  -4.8722  -4.7932
    -4.6568  -4.3778  -4.2062  -3.9535  -3.2942  -3.2432  -3.1620  -3.0903
    -2.9974  -2.9325  -2.9088  -2.8797  -2.8075  -2.7462  -2.6541  -2.5716

          k = 0.1498 0.2595 0.0000 ( 29347 PWs)   bands (ev):

   -21.2744 -20.9515 -20.8960 -20.7517 -20.7198 -20.6405 -20.5794 -20.5070
   -20.4649 -20.3089 -20.2711 -20.0539  -8.9201  -8.8020  -8.7499  -8.7133
    -8.6380  -8.6320  -8.4256  -8.3498  -8.2365  -8.1673  -8.1135  -8.0470
    -6.9769  -6.0750  -6.0014  -5.8019  -5.7160  -5.2057  -5.0299  -4.8863
    -4.8353  -4.3584  -4.2946  -3.7223  -3.2020  -3.1815  -3.1730  -3.0508
    -2.9776  -2.9448  -2.8371  -2.8182  -2.8041  -2.7573  -2.6475  -2.6341

          k = 0.2996-0.1730-1.2442 ( 29340 PWs)   bands (ev):

   -21.1454 -21.1140 -20.9134 -20.7977 -20.7243 -20.6578 -20.5305 -20.4849
   -20.3785 -20.3384 -20.1812 -20.1525  -8.8795  -8.8424  -8.7479  -8.7199
    -8.6058  -8.5896  -8.5131  -8.4196  -8.2548  -8.1561  -8.0681  -8.0354
    -6.5304  -6.5302  -6.0288  -5.9920  -5.6127  -5.3237  -4.8791  -4.7567
    -4.5942  -4.5421  -4.1135  -3.9396  -3.2245  -3.1770  -3.1605  -3.1024
    -2.9889  -2.9044  -2.8917  -2.8524  -2.8173  -2.7630  -2.6092  -2.5997

          k = 0.0000 0.0000 0.9332 ( 29307 PWs)   bands (ev):

   -21.0491 -21.0491 -21.0077 -20.8859 -20.7395 -20.7395 -20.4373 -20.4373
   -20.3442 -20.2489 -20.2489 -20.2396  -8.8394  -8.8394  -8.7653  -8.6692
    -8.6501  -8.6501  -8.4358  -8.3446  -8.3446  -8.0509  -8.0508  -8.0185
    -6.4323  -6.4323  -6.3046  -6.0049  -5.5820  -5.5820  -4.6516  -4.6516
    -4.6348  -4.2801  -4.2801  -4.1922  -3.2489  -3.2489  -3.1402  -3.0993
    -2.9621  -2.9621  -2.9140  -2.8678  -2.8678  -2.7067  -2.7067  -2.5446

          k = 0.4494 0.2595 0.0000 ( 29335 PWs)   bands (ev):

   -21.1765 -21.0121 -21.0115 -20.7938 -20.6827 -20.6515 -20.5419 -20.5150
   -20.3851 -20.2791 -20.2383 -20.1311  -8.8804  -8.8260  -8.7848  -8.6801
    -8.6452  -8.5693  -8.5241  -8.3783  -8.3108  -8.1087  -8.0741  -8.0492
    -6.6684  -6.2450  -6.2121  -5.9842  -5.5805  -5.2943  -4.8977  -4.8759
    -4.5756  -4.3562  -4.2463  -3.9083  -3.2064  -3.1917  -3.1582  -3.1098
    -2.9971  -2.9237  -2.8827  -2.8506  -2.7874  -2.7380  -2.6706  -2.5741

          k = 0.2996 0.1730 0.3111 ( 29366 PWs)   bands (ev):

   -21.2052 -20.9589 -20.8821 -20.8443 -20.7497 -20.7050 -20.5239 -20.5018
   -20.4081 -20.3113 -20.2392 -20.0974  -8.8821  -8.8157  -8.7656  -8.6878
    -8.6816  -8.5539  -8.4234  -8.2796  -8.2220  -8.2035  -8.1000  -8.0774
    -6.7939  -6.1802  -6.0827  -5.8175  -5.7721  -5.2963  -5.0136  -4.8623
    -4.7524  -4.3214  -4.2224  -3.8218  -3.3110  -3.2468  -3.1864  -3.0875
    -3.0137  -2.9634  -2.8886  -2.8474  -2.7712  -2.7238  -2.6483  -2.6118

          k = 0.4494-0.2595-0.9332 ( 29345 PWs)   bands (ev):

   -21.0779 -21.0752 -20.9432 -20.8642 -20.7466 -20.6783 -20.5565 -20.4762
   -20.3311 -20.3001 -20.2366 -20.1403  -8.8534  -8.8292  -8.7822  -8.6908
    -8.6530  -8.5113  -8.4902  -8.3274  -8.2367  -8.2000  -8.0907  -8.0672
    -6.4865  -6.3719  -6.1023  -6.0234  -5.7113  -5.3023  -5.0784  -4.8111
    -4.4802  -4.3522  -4.2522  -3.8874  -3.3101  -3.2637  -3.2224  -3.0944
    -3.0504  -3.0105  -2.8463  -2.8113  -2.7931  -2.7355  -2.6503  -2.5693

          k = 0.2996-0.3460-0.6221 ( 29332 PWs)   bands (ev):

   -21.0565 -21.0013 -20.9282 -20.9059 -20.7834 -20.7683 -20.4911 -20.4691
   -20.3285 -20.3093 -20.2377 -20.1552  -8.8602  -8.7782  -8.7516  -8.7282
    -8.6999  -8.5179  -8.3544  -8.3245  -8.1952  -8.1841  -8.0968  -8.0896
    -6.4203  -6.3791  -6.1186  -6.0848  -5.6315  -5.5928  -4.8729  -4.8112
    -4.4934  -4.4559  -4.2037  -3.9312  -3.4000  -3.2765  -3.2249  -3.1243
    -3.0744  -2.9612  -2.8925  -2.8502  -2.8301  -2.6926  -2.6659  -2.5546

          k = 0.0000 0.0000-1.8663 ( 29358 PWs)   bands (ev):

   -21.0180 -20.9429 -20.9315 -20.9315 -20.8393 -20.8393 -20.4218 -20.4218
   -20.3584 -20.3584 -20.2355 -20.1355  -8.8709  -8.7406  -8.7406  -8.7247
    -8.7247  -8.4740  -8.3848  -8.3591  -8.1582  -8.1582  -8.1462  -8.1462
    -6.3566  -6.2855  -5.9617  -5.9617  -5.8735  -5.8735  -4.6680  -4.6680
    -4.5958  -4.5958  -4.1738  -3.8779  -3.4041  -3.2749  -3.2749  -3.1617
    -3.1617  -2.9160  -2.9013  -2.7905  -2.7905  -2.7063  -2.7063  -2.5185

          k = 0.2996-0.3460 0.3111 ( 29337 PWs)   bands (ev):

   -21.1582 -21.0104 -20.9020 -20.8556 -20.7696 -20.7158 -20.5050 -20.4328
   -20.3911 -20.2977 -20.2479 -20.1407  -8.8715  -8.8172  -8.7491  -8.7210
    -8.6489  -8.5897  -8.4330  -8.3497  -8.2733  -8.1024  -8.0784  -8.0417
    -6.6780  -6.2969  -6.1545  -5.8796  -5.7557  -5.3641  -4.9918  -4.6700
    -4.5649  -4.4176  -4.2827  -3.9248  -3.3012  -3.2209  -3.1731  -3.0859
    -2.9949  -2.9504  -2.8966  -2.8855  -2.8295  -2.7132  -2.6574  -2.5783

     highest occupied level (ev):    -2.5185

!    total energy              =    -418.04785529 Ry
     estimated scf accuracy    <          7.0E-09 Ry

     The total energy is the sum of the following terms:
     one-electron contribution =    -293.26170459 Ry
     hartree contribution      =     181.63115471 Ry
     xc contribution           =    -106.12750106 Ry
     ewald contribution        =    -200.28980436 Ry

     convergence has been achieved in   6 iterations

     Forces acting on atoms (cartesian axes, Ry/au):

     atom    1 type  2   force =     0.00052070   -0.00600456   -0.00034024
     atom    2 type  2   force =    -0.00052070    0.00600456    0.00034024
     atom    3 type  2   force =     0.00493976    0.00345322   -0.00034024
     atom    4 type  2   force =    -0.00493976   -0.00345322    0.00034024
     atom    5 type  2   force =    -0.00546045    0.00255135   -0.00034024
     atom    6 type  2   force =     0.00546045   -0.00255135    0.00034024
     atom    7 type  2   force =     0.00764701   -0.00635054    0.00023779
     atom    8 type  2   force =    -0.00764701    0.00635054   -0.00023779
     atom    9 type  2   force =     0.00167623    0.00979778    0.00023779
     atom   10 type  2   force =    -0.00167623   -0.00979778   -0.00023779
     atom   11 type  2   force =    -0.00932324   -0.00344723    0.00023779
     atom   12 type  2   force =     0.00932324    0.00344723   -0.00023779
     atom   13 type  1   force =    -0.00908900    0.00750347   -0.01856930
     atom   14 type  1   force =     0.00908900   -0.00750347    0.01856930
     atom   15 type  1   force =    -0.00195370   -0.01162303   -0.01856930
     atom   16 type  1   force =     0.00195370    0.01162303    0.01856930
     atom   17 type  1   force =     0.01104269    0.00411957   -0.01856930
     atom   18 type  1   force =    -0.01104269   -0.00411957    0.01856930
     atom   19 type  1   force =     0.01292151   -0.00502333    0.01250635
     atom   20 type  1   force =    -0.01292151    0.00502333   -0.01250635
     atom   21 type  1   force =    -0.00211042    0.01370202    0.01250635
     atom   22 type  1   force =     0.00211042   -0.01370202   -0.01250635
     atom   23 type  1   force =    -0.01081108   -0.00867869    0.01250635
     atom   24 type  1   force =     0.01081108    0.00867869   -0.01250635
     atom   25 type  1   force =     0.00615167    0.01370303    0.00408192
     atom   26 type  1   force =    -0.00615167   -0.01370303   -0.00408192
     atom   27 type  1   force =    -0.01494301   -0.00152401    0.00408192
     atom   28 type  1   force =     0.01494301    0.00152401   -0.00408192
     atom   29 type  1   force =     0.00879134   -0.01217902    0.00408192
     atom   30 type  1   force =    -0.00879134    0.01217902   -0.00408192
     atom   31 type  1   force =     0.00316753   -0.01124836   -0.00466131
     atom   32 type  1   force =    -0.00316753    0.01124836    0.00466131
     atom   33 type  1   force =     0.00815760    0.00836734   -0.00466131
     atom   34 type  1   force =    -0.00815760   -0.00836734    0.00466131
     atom   35 type  1   force =    -0.01132513    0.00288102   -0.00466131
     atom   36 type  1   force =     0.01132513   -0.00288102    0.00466131

     Total force =     0.090605     Total SCF correction =     0.000146


     Computing stress (Cartesian axis) and pressure

          total   stress  (Ry/bohr**3)                   (kbar)     P=       20.53
   0.00011926   0.00000000  -0.00000000           17.54        0.00       -0.00
  -0.00000000   0.00011926   0.00000000           -0.00       17.54        0.00
  -0.00000000   0.00000000   0.00018014           -0.00        0.00       26.50

     Energy error            =      3.9E-02 Ry
     Gradient error          =      1.9E-02 Ry/Bohr

     number of scf cycles    =   3
     number of bfgs steps    =   2

     energy             old  =    -418.0086127196 Ry
     energy             new  =    -418.0478552935 Ry

     CASE: energy            _new < energy            _old

     new trust radius        =       0.0563997804 bohr
     new conv_thr            =       0.0000000186 Ry


ATOMIC_POSITIONS (crystal)
O                0.2734267547        0.0348409475        0.8594919064
O                0.7265732453        0.9651590635        0.1405080636
O                0.8594919064        0.2734267547        0.0348409475
O                0.1405080636        0.7265732453        0.9651590635
O                0.0348409475        0.8594919064        0.2734267547
O                0.9651590635        0.1405080636        0.7265732453
O                0.4717898854        0.7477518729        0.3297649995
O                0.5282101146        0.2522481271        0.6702349705
O                0.3297649995        0.4717898854        0.7477518729
O                0.6702349705        0.5282101146        0.2522481271
O                0.7477518729        0.3297649995        0.4717898854
O                0.2522481271        0.6702349705        0.5282101146
H                0.1476473648        0.0520853224        0.7951233341
H                0.8523526212        0.9479146696        0.2048766659
H                0.7951233341        0.1476473648        0.0520853224
H                0.2048766659        0.8523526212        0.9479146696
H                0.0520853224        0.7951233341        0.1476473648
H                0.9479146696        0.2048766659        0.8523526212
H                0.4276762765        0.2064040011        1.0028127415
H                0.5723237235        0.7935960139       -0.0028127625
H                1.0028127415        0.4276762765        0.2064040011
H               -0.0028127625        0.5723237235        0.7935960139
H                0.2064040011        1.0028127415        0.4276762765
H                0.7935960139       -0.0028127625        0.5723237235
H                0.7208464089        0.4063211427        0.3981473667
H                0.2791535911        0.5936788273        0.6018526633
H                0.3981473667        0.7208464089        0.4063211427
H                0.6018526633        0.2791535911        0.5936788273
H                0.4063211427        0.3981473667        0.7208464089
H                0.5936788273        0.6018526633        0.2791535911
H                0.7418839848        0.2007360550        0.3642575351
H                0.2581160152        0.7992639300        0.6357424649
H                0.3642575351        0.7418839848        0.2007360550
H                0.6357424649        0.2581160152        0.7992639300
H                0.2007360550        0.3642575351        0.7418839848
H                0.7992639300        0.6357424649        0.2581160152



     Writing config-only to output data dir ./iceII/iceII.save/ :
     XML data file
     NEW-OLD atomic charge density approx. for the potential

     total cpu time spent up to now is       48.4 secs

     per-process dynamical memory:    19.1 Mb

     Self-consistent Calculation

     iteration #  1     ecut=    90.00 Ry     beta= 0.70
     Davidson diagonalization with overlap
     ethr =  1.00E-06,  avg # of iterations =  6.4

     total cpu time spent up to now is       50.0 secs

     total energy              =    -418.05595522 Ry
     estimated scf accuracy    <       0.00124558 Ry

     iteration #  2     ecut=    90.00 Ry     beta= 0.70
     Davidson diagonalization with overlap
     ethr =  1.30E-06,  avg # of iterations =  2.9

     total cpu time spent up to now is       51.0 secs

     total energy              =    -418.05622583 Ry
     estimated scf accuracy    <       0.00025929 Ry

     iteration #  3     ecut=    90.00 Ry     beta= 0.70
     Davidson diagonalization with overlap
     ethr =  2.70E-07,  avg # of iterations =  2.9

     total cpu time spent up to now is       52.0 secs

     total energy              =    -418.05627344 Ry
     estimated scf accuracy    <       0.00001196 Ry

     iteration #  4     ecut=    90.00 Ry     beta= 0.70
     Davidson diagonalization with overlap
     ethr =  1.25E-08,  avg # of iterations =  3.1

     total cpu time spent up to now is       53.0 secs

     total energy              =    -418.05627543 Ry
     estimated scf accuracy    <       0.00000411 Ry

     iteration #  5     ecut=    90.00 Ry     beta= 0.70
     Davidson diagonalization with overlap
     ethr =  4.29E-09,  avg # of iterations =  2.0

     total cpu time spent up to now is       53.9 secs

     total energy              =    -418.05627598 Ry
     estimated scf accuracy    <       0.00000025 Ry

     iteration #  6     ecut=    90.00 Ry     beta= 0.70
     Davidson diagonalization with overlap
     ethr =  2.64E-10,  avg # of iterations =  4.0

     total cpu time spent up to now is       55.2 secs

     total energy              =    -418.05627608 Ry
     estimated scf accuracy    <       0.00000023 Ry

     iteration #  7     ecut=    90.00 Ry     beta= 0.70
     Davidson diagonalization with overlap
     ethr =  2.42E-10,  avg # of iterations =  2.0

     total cpu time spent up to now is       56.1 secs

     End of self-consistent calculation

          k = 0.0000 0.0000 0.0000 ( 29273 PWs)   bands (ev):

   -21.2198 -20.7672 -20.7672 -20.5131 -20.5131 -20.5045 -20.5045 -20.4805
   -20.4748 -20.1569 -20.1569 -19.8704  -8.9116  -8.7501  -8.7501  -8.7158
    -8.6496  -8.6496  -8.3204  -8.2900  -8.2900  -8.2730  -8.2730  -8.1440
    -7.0606  -5.8810  -5.8810  -5.3967  -5.3967  -5.1822  -5.1822  -4.9174
    -4.8691  -4.2008  -4.2008  -3.5348  -3.1654  -3.1654  -3.1177  -2.9416
    -2.9416  -2.9074  -2.7985  -2.7518  -2.7518  -2.6914  -2.6610  -2.6610

          k =-0.1498-0.0865 0.3111 ( 29328 PWs)   bands (ev):

   -21.1469 -20.8025 -20.7676 -20.6563 -20.6243 -20.5697 -20.4334 -20.3845
   -20.3361 -20.1647 -20.1266 -19.9244  -8.8700  -8.7917  -8.7497  -8.6971
    -8.6437  -8.5916  -8.3716  -8.3361  -8.2940  -8.2075  -8.1897  -8.1615
    -6.8584  -6.0720  -5.9246  -5.6632  -5.5055  -5.1742  -4.9791  -4.8716
    -4.6957  -4.2011  -4.1239  -3.6816  -3.2600  -3.2029  -3.1198  -3.0056
    -2.9862  -2.9235  -2.8711  -2.7771  -2.7426  -2.6836  -2.6589  -2.6193

          k = 0.2996 0.1730-0.6221 ( 29350 PWs)   bands (ev):

   -20.9896 -20.9202 -20.7978 -20.7237 -20.6579 -20.6162 -20.3974 -20.3418
   -20.2315 -20.1512 -20.0901 -20.0276  -8.8103  -8.8098  -8.7352  -8.7186
    -8.6410  -8.5642  -8.3777  -8.3521  -8.2782  -8.2521  -8.1314  -8.1101
    -6.4422  -6.3834  -5.9758  -5.9541  -5.4408  -5.4048  -4.8258  -4.7548
    -4.3307  -4.3199  -4.0821  -3.9219  -3.3337  -3.2288  -3.1274  -3.0521
    -3.0154  -2.9707  -2.8755  -2.8486  -2.7871  -2.6755  -2.6106  -2.5815

          k =-0.1498 0.0865 0.6221 ( 29340 PWs)   bands (ev):

   -21.0072 -20.8601 -20.8392 -20.7168 -20.6747 -20.6220 -20.3833 -20.3120
   -20.2590 -20.1404 -20.1162 -20.0142  -8.8196  -8.7804  -8.7752  -8.7002
    -8.6398  -8.5575  -8.3738  -8.3590  -8.3223  -8.1778  -8.1535  -8.1216
    -6.4995  -6.2335  -6.1883  -5.7426  -5.5711  -5.3994  -4.8321  -4.6050
    -4.5324  -4.1912  -4.1167  -3.9318  -3.3167  -3.2559  -3.1207  -3.0423
    -2.9968  -2.9589  -2.9197  -2.8149  -2.8008  -2.6781  -2.6255  -2.5683

          k = 0.2996 0.3460-0.3111 ( 29337 PWs)   bands (ev):

   -21.0513 -20.8919 -20.8208 -20.7128 -20.6404 -20.5912 -20.3923 -20.3168
   -20.2285 -20.1963 -20.0948 -19.9991  -8.8348  -8.8147  -8.7207  -8.6959
    -8.6563  -8.5612  -8.4608  -8.4281  -8.3510  -8.1665  -8.1414  -8.1013
    -6.5726  -6.2072  -6.0063  -5.8083  -5.7224  -5.2071  -4.7398  -4.6506
    -4.5677  -4.2664  -4.0998  -3.8521  -3.2511  -3.2102  -3.1307  -3.0626
    -2.9668  -2.8953  -2.8833  -2.8501  -2.7825  -2.7203  -2.6151  -2.5425

          k = 0.1498 0.2595 0.0000 ( 29347 PWs)   bands (ev):

   -21.1663 -20.8435 -20.7874 -20.6301 -20.5933 -20.5105 -20.4601 -20.3807
   -20.3423 -20.1698 -20.1299 -19.9143  -8.8878  -8.7842  -8.7525  -8.6877
    -8.6299  -8.6252  -8.4684  -8.3879  -8.3122  -8.2210  -8.1730  -8.1275
    -6.8741  -5.9463  -5.9199  -5.7007  -5.6229  -5.0857  -4.9147  -4.7662
    -4.7375  -4.2454  -4.1877  -3.6080  -3.1706  -3.1490  -3.1457  -3.0252
    -2.9496  -2.9072  -2.8192  -2.7893  -2.7705  -2.7171  -2.6132  -2.5988

          k = 0.2996-0.1730-1.2442 ( 29340 PWs)   bands (ev):

   -21.0349 -21.0066 -20.8046 -20.6763 -20.6014 -20.5263 -20.4153 -20.3566
   -20.2554 -20.1960 -20.0449 -20.0089  -8.8487  -8.8134  -8.7405  -8.6897
    -8.6065  -8.5776  -8.5669  -8.4644  -8.3343  -8.2087  -8.1404  -8.1020
    -6.4250  -6.4206  -5.9253  -5.9109  -5.5057  -5.2012  -4.7520  -4.6687
    -4.4930  -4.4095  -4.0117  -3.8259  -3.1923  -3.1464  -3.1282  -3.0773
    -2.9596  -2.8674  -2.8597  -2.8322  -2.7887  -2.7304  -2.5719  -2.5663

          k = 0.0000 0.0000 0.9332 ( 29307 PWs)   bands (ev):

   -20.9379 -20.9379 -20.9130 -20.7450 -20.6193 -20.6193 -20.3104 -20.3104
   -20.2371 -20.1105 -20.1105 -20.0849  -8.8136  -8.8136  -8.7403  -8.6701
    -8.6340  -8.6340  -8.4863  -8.4085  -8.4085  -8.1120  -8.1120  -8.0839
    -6.3284  -6.3284  -6.1571  -5.9699  -5.4828  -5.4828  -4.5305  -4.5305
    -4.4613  -4.1838  -4.1838  -4.1086  -3.2104  -3.2104  -3.1041  -3.0793
    -2.9277  -2.9277  -2.8788  -2.8475  -2.8475  -2.6720  -2.6720  -2.5147

          k = 0.4494 0.2595 0.0000 ( 29335 PWs)   bands (ev):

   -21.0674 -20.9047 -20.9009 -20.6642 -20.5705 -20.5266 -20.4166 -20.3815
   -20.2666 -20.1413 -20.0968 -19.9901  -8.8480  -8.7979  -8.7682  -8.6601
    -8.6422  -8.5806  -8.5504  -8.4316  -8.3828  -8.1743  -8.1333  -8.1223
    -6.5629  -6.1265  -6.1089  -5.9126  -5.4700  -5.1724  -4.8008  -4.7609
    -4.4467  -4.2498  -4.1429  -3.7959  -3.1738  -3.1582  -3.1295  -3.0835
    -2.9684  -2.8924  -2.8564  -2.8211  -2.7544  -2.7071  -2.6386  -2.5367

          k = 0.2996 0.1730 0.3111 ( 29366 PWs)   bands (ev):

   -21.0973 -20.8514 -20.7796 -20.7164 -20.6215 -20.5765 -20.4065 -20.3805
   -20.2711 -20.1819 -20.0977 -19.9558  -8.8517  -8.7986  -8.7503  -8.6676
    -8.6635  -8.5467  -8.4685  -8.3289  -8.2874  -8.2738  -8.1762  -8.1348
    -6.6957  -6.0903  -5.9826  -5.7171  -5.6574  -5.1957  -4.8646  -4.7606
    -4.6559  -4.2079  -4.1164  -3.7137  -3.2674  -3.2131  -3.1547  -3.0567
    -2.9886  -2.9315  -2.8546  -2.8185  -2.7488  -2.6949  -2.6213  -2.5732

          k = 0.4494-0.2595-0.9332 ( 29345 PWs)   bands (ev):

   -20.9715 -20.9655 -20.8354 -20.7366 -20.6239 -20.5540 -20.4331 -20.3510
   -20.1919 -20.1792 -20.1001 -19.9932  -8.8257  -8.8018  -8.7574  -8.6690
    -8.6330  -8.5479  -8.4876  -8.3956  -8.3146  -8.2622  -8.1613  -8.1316
    -6.3975  -6.2669  -6.0126  -5.9253  -5.5826  -5.1745  -4.9687  -4.7163
    -4.3772  -4.2326  -4.1497  -3.7775  -3.2632  -3.2278  -3.1867  -3.0645
    -3.0198  -2.9843  -2.8208  -2.7827  -2.7699  -2.7098  -2.6210  -2.5300

          k = 0.2996-0.3460-0.6221 ( 29332 PWs)   bands (ev):

   -20.9584 -20.8842 -20.8230 -20.7800 -20.6581 -20.6383 -20.3742 -20.3445
   -20.1953 -20.1688 -20.1163 -20.0032  -8.8349  -8.7557  -8.7251  -8.7094
    -8.6794  -8.4978  -8.4112  -8.3918  -8.2657  -8.2460  -8.1624  -8.1521
    -6.3356  -6.2846  -6.0256  -5.9760  -5.5249  -5.4792  -4.7468  -4.6845
    -4.3885  -4.3631  -4.0840  -3.8470  -3.3357  -3.2409  -3.1906  -3.0930
    -3.0366  -2.9420  -2.8582  -2.8249  -2.8047  -2.6707  -2.6410  -2.5180

          k = 0.0000 0.0000-1.8663 ( 29358 PWs)   bands (ev):

   -20.9210 -20.8319 -20.8319 -20.8052 -20.7064 -20.7064 -20.3077 -20.3077
   -20.2109 -20.2109 -20.1212 -19.9824  -8.8407  -8.7154  -8.7154  -8.6984
    -8.6984  -8.4501  -8.4427  -8.4263  -8.2324  -8.2324  -8.2137  -8.2137
    -6.3260  -6.1473  -5.8896  -5.8896  -5.7159  -5.7159  -4.5323  -4.5323
    -4.5221  -4.5221  -4.0564  -3.7943  -3.3188  -3.2397  -3.2397  -3.1313
    -3.1313  -2.9037  -2.8654  -2.7663  -2.7663  -2.6833  -2.6833  -2.4792

          k = 0.2996-0.3460 0.3111 ( 29337 PWs)   bands (ev):

   -21.0499 -20.9046 -20.7983 -20.7224 -20.6428 -20.5944 -20.3774 -20.3208
   -20.2596 -20.1593 -20.1087 -19.9979  -8.8414  -8.7996  -8.7341  -8.6954
    -8.6346  -8.5808  -8.4878  -8.4027  -8.3446  -8.1584  -8.1471  -8.1062
    -6.5733  -6.2139  -6.0237  -5.7718  -5.6956  -5.2613  -4.8427  -4.5456
    -4.4663  -4.3005  -4.1850  -3.8212  -3.2582  -3.1869  -3.1399  -3.0610
    -2.9653  -2.9147  -2.8675  -2.8542  -2.8081  -2.6868  -2.6188  -2.5485

     highest occupied level (ev):    -2.4792

!    total energy              =    -418.05627612 Ry
     estimated scf accuracy    <          7.2E-09 Ry

     The total energy is the sum of the following terms:
     one-electron contribution =    -291.35814890 Ry
     hartree contribution      =     180.79121836 Ry
     xc contribution           =    -105.97277572 Ry
     ewald contribution        =    -201.51656985 Ry

     convergence has been achieved in   7 iterations

     Forces acting on atoms (cartesian axes, Ry/au):

     atom    1 type  2   force =     0.00038457   -0.00429663   -0.00260563
     atom    2 type  2   force =    -0.00038457    0.00429663    0.00260563
     atom    3 type  2   force =     0.00352870    0.00248137   -0.00260563
     atom    4 type  2   force =    -0.00352870   -0.00248137    0.00260563
     atom    5 type  2   force =    -0.00391328    0.00181526   -0.00260563
     atom    6 type  2   force =     0.00391328   -0.00181526    0.00260563
     atom    7 type  2   force =    -0.00417941   -0.00556253   -0.00315979
     atom    8 type  2   force =     0.00417941    0.00556253    0.00315979
     atom    9 type  2   force =     0.00690699   -0.00083821   -0.00315979
     atom   10 type  2   force =    -0.00690699    0.00083821    0.00315979
     atom   11 type  2   force =    -0.00272759    0.00640074   -0.00315979
     atom   12 type  2   force =     0.00272759   -0.00640074    0.00315979
     atom   13 type  1   force =    -0.00310960   -0.00243763   -0.00058497
     atom   14 type  1   force =     0.00310960    0.00243763    0.00058497
     atom   15 type  1   force =     0.00366585   -0.00147417   -0.00058497
     atom   16 type  1   force =    -0.00366585    0.00147417    0.00058497
     atom   17 type  1   force =    -0.00055625    0.00391181   -0.00058497
     atom   18 type  1   force =     0.00055625   -0.00391181    0.00058497
     atom   19 type  1   force =     0.00670490    0.00410635   -0.00210638
     atom   20 type  1   force =    -0.00670490   -0.00410635    0.00210638
     atom   21 type  1   force =    -0.00690866    0.00375344   -0.00210638
     atom   22 type  1   force =     0.00690866   -0.00375344    0.00210638
     atom   23 type  1   force =     0.00020376   -0.00785979   -0.00210638
     atom   24 type  1   force =    -0.00020376    0.00785979    0.00210638
     atom   25 type  1   force =     0.00306391   -0.00451891    0.00357263
     atom   26 type  1   force =    -0.00306391    0.00451891   -0.00357263
     atom   27 type  1   force =     0.00238154    0.00491288    0.00357263
[...]
H                0.9577101649        0.2065385302        0.8576441119
H                0.4265310156        0.2026437857        0.9877326892
H                0.5734689844        0.7973562293        0.0122672898
H                0.9877326892        0.4265310156        0.2026437857
H                0.0122672898        0.5734689844        0.7973562293
H                0.2026437857        0.9877326892        0.4265310156
H                0.7973562293        0.0122672898        0.5734689844
H                0.7277721489        0.4077431570        0.4018037202
H                0.2722278511        0.5922568130        0.5981963098
H                0.4018037202        0.7277721489        0.4077431570
H                0.5981963098        0.2722278511        0.5922568130
H                0.4077431570        0.4018037202        0.7277721489
H                0.5922568130        0.5981963098        0.2722278511
H                0.7381158171        0.1951011829        0.3617794785
H                0.2618841829        0.8048988021        0.6382205215
H                0.3617794785        0.7381158171        0.1951011829
H                0.6382205215        0.2618841829        0.8048988021
H                0.1951011829        0.3617794785        0.7381158171
H                0.8048988021        0.6382205215        0.2618841829



     Writing config-only to output data dir ./iceII/iceII.save/ :
     XML data file
     NEW-OLD atomic charge density approx. for the potential

     negative rho (up, down):  2.564E-07 0.000E+00

     total cpu time spent up to now is      155.1 secs

     per-process dynamical memory:    22.9 Mb

     Self-consistent Calculation

     iteration #  1     ecut=    90.00 Ry     beta= 0.70
     Davidson diagonalization with overlap
     ethr =  1.00E-06,  avg # of iterations =  2.1

     Threshold (ethr) on eigenvalues was too large:
     Diagonalizing with lowered threshold

     Davidson diagonalization with overlap
     ethr =  1.45E-08,  avg # of iterations =  3.9

     negative rho (up, down):  2.532E-07 0.000E+00

     total cpu time spent up to now is      157.0 secs

     total energy              =    -418.06488434 Ry
     estimated scf accuracy    <       0.00001812 Ry

     iteration #  2     ecut=    90.00 Ry     beta= 0.70
     Davidson diagonalization with overlap
     ethr =  1.89E-08,  avg # of iterations =  2.0

     negative rho (up, down):  2.526E-07 0.000E+00

     total cpu time spent up to now is      157.9 secs

     total energy              =    -418.06488711 Ry
     estimated scf accuracy    <       0.00000120 Ry

     iteration #  3     ecut=    90.00 Ry     beta= 0.70
     Davidson diagonalization with overlap
     ethr =  1.25E-09,  avg # of iterations =  2.0

     negative rho (up, down):  2.524E-07 0.000E+00

     total cpu time spent up to now is      158.9 secs

     total energy              =    -418.06488734 Ry
     estimated scf accuracy    <       0.00000014 Ry

     iteration #  4     ecut=    90.00 Ry     beta= 0.70
     Davidson diagonalization with overlap
     ethr =  1.48E-10,  avg # of iterations =  2.1

     negative rho (up, down):  2.524E-07 0.000E+00

     total cpu time spent up to now is      159.8 secs

     total energy              =    -418.06488737 Ry
     estimated scf accuracy    <       0.00000001 Ry

     iteration #  5     ecut=    90.00 Ry     beta= 0.70
     Davidson diagonalization with overlap
     ethr =  1.30E-11,  avg # of iterations =  2.1

     negative rho (up, down):  2.524E-07 0.000E+00

     total cpu time spent up to now is      160.8 secs

     End of self-consistent calculation

          k = 0.0000 0.0000 0.0000 ( 29273 PWs)   bands (ev):

   -21.2040 -20.7295 -20.7295 -20.5284 -20.5284 -20.4855 -20.4850 -20.4850
   -20.4826 -20.1875 -20.1875 -19.8765  -8.7850  -8.7160  -8.7160  -8.6817
    -8.5957  -8.5957  -8.3128  -8.3128  -8.3092  -8.2644  -8.2492  -8.2492
    -7.0108  -5.9376  -5.9376  -5.3223  -5.3223  -5.1573  -5.1573  -4.9865
    -4.8739  -4.1946  -4.1946  -3.4696  -3.1445  -3.1445  -3.1112  -2.9766
    -2.9766  -2.9388  -2.8397  -2.8397  -2.7899  -2.7070  -2.6617  -2.6617

          k =-0.1498-0.0865 0.3111 ( 29328 PWs)   bands (ev):

   -21.1300 -20.7721 -20.7204 -20.6651 -20.6290 -20.5602 -20.4382 -20.3941
   -20.3315 -20.1922 -20.1508 -19.9341  -8.7486  -8.7265  -8.7058  -8.6653
    -8.5883  -8.5598  -8.3743  -8.3488  -8.3339  -8.2456  -8.1845  -8.1825
    -6.8412  -6.1051  -5.9671  -5.6455  -5.4037  -5.1648  -5.0011  -4.8601
    -4.7024  -4.1869  -4.1279  -3.6158  -3.2277  -3.1597  -3.1267  -3.0462
    -3.0267  -2.9699  -2.8699  -2.8257  -2.7601  -2.7417  -2.6814  -2.6562

          k = 0.2996 0.1730-0.6221 ( 29350 PWs)   bands (ev):

   -20.9419 -20.9330 -20.7545 -20.7361 -20.6261 -20.6226 -20.3860 -20.3835
   -20.2029 -20.1910 -20.0763 -20.0721  -8.7320  -8.7153  -8.6698  -8.6629
    -8.5885  -8.5383  -8.3936  -8.3814  -8.3479  -8.2328  -8.1422  -8.1302
    -6.4986  -6.3828  -5.9593  -5.9489  -5.3926  -5.3249  -4.8748  -4.7838
    -4.3281  -4.2722  -4.0959  -3.8487  -3.3025  -3.1864  -3.1149  -3.1037
    -3.0458  -3.0021  -2.9228  -2.8293  -2.8070  -2.7235  -2.6659  -2.6486

          k =-0.1498 0.0865 0.6221 ( 29340 PWs)   bands (ev):

   -20.9817 -20.8397 -20.8228 -20.7008 -20.6759 -20.6109 -20.3939 -20.3130
   -20.2673 -20.1492 -20.1329 -20.0377  -8.7304  -8.7112  -8.6825  -8.6651
    -8.5824  -8.5240  -8.3935  -8.3859  -8.3688  -8.1963  -8.1618  -8.1335
    -6.5400  -6.2427  -6.1897  -5.7273  -5.5185  -5.3378  -4.8675  -4.6370
    -4.5139  -4.1728  -4.0983  -3.8736  -3.2866  -3.2140  -3.1073  -3.0847
    -3.0294  -3.0168  -2.9325  -2.8307  -2.7933  -2.7238  -2.6900  -2.6334

          k = 0.2996 0.3460-0.3111 ( 29337 PWs)   bands (ev):

   -21.0307 -20.8668 -20.7702 -20.7301 -20.6537 -20.5877 -20.3906 -20.2849
   -20.2702 -20.1862 -20.1257 -20.0202  -8.7351  -8.7256  -8.6909  -8.6477
    -8.5847  -8.5578  -8.4466  -8.4017  -8.3719  -8.2188  -8.1801  -8.1434
    -6.5516  -6.2238  -6.0206  -5.7742  -5.7040  -5.1716  -4.7829  -4.6907
    -4.5074  -4.2352  -4.0947  -3.8159  -3.2252  -3.1797  -3.1223  -3.0729
    -3.0233  -2.9543  -2.8974  -2.8631  -2.7673  -2.7649  -2.6781  -2.5912

          k = 0.1498 0.2595 0.0000 ( 29347 PWs)   bands (ev):

   -21.1495 -20.8065 -20.7482 -20.6384 -20.6079 -20.5311 -20.4392 -20.3717
   -20.3298 -20.1962 -20.1658 -19.9245  -8.7667  -8.7203  -8.7133  -8.6641
    -8.5958  -8.5877  -8.4045  -8.3690  -8.3319  -8.2648  -8.2325  -8.1835
    -6.8270  -5.9968  -5.8871  -5.6818  -5.6428  -5.0653  -4.8860  -4.7677
    -4.7406  -4.2305  -4.1874  -3.5661  -3.1487  -3.1360  -3.1264  -3.0327
    -2.9855  -2.9552  -2.8713  -2.8534  -2.7661  -2.7426  -2.6411  -2.6197

          k = 0.2996-0.1730-1.2442 ( 29340 PWs)   bands (ev):

   -21.0225 -20.9727 -20.7617 -20.6902 -20.6033 -20.5571 -20.3743 -20.3619
   -20.2379 -20.2293 -20.0521 -20.0451  -8.7454  -8.7214  -8.6973  -8.6491
    -8.5935  -8.5899  -8.4792  -8.4131  -8.3563  -8.2333  -8.2296  -8.1698
    -6.3896  -6.3625  -5.9835  -5.8430  -5.5854  -5.1996  -4.6990  -4.6794
    -4.5005  -4.3612  -3.9998  -3.8219  -3.1625  -3.1361  -3.1083  -3.0697
    -2.9979  -2.9559  -2.9011  -2.8304  -2.8244  -2.7357  -2.6048  -2.6040

          k = 0.0000 0.0000 0.9332 ( 29307 PWs)   bands (ev):

   -20.9211 -20.9211 -20.8327 -20.8033 -20.6126 -20.6126 -20.3116 -20.3116
   -20.1816 -20.1571 -20.1258 -20.1258  -8.7259  -8.7259  -8.6983  -8.6065
    -8.6065  -8.5882  -8.4814  -8.4034  -8.4034  -8.1587  -8.1587  -8.1355
    -6.2978  -6.2978  -6.2599  -5.8463  -5.4921  -5.4921  -4.5429  -4.5429
    -4.4796  -4.1609  -4.1609  -4.0483  -3.1822  -3.1822  -3.0892  -3.0646
    -2.9895  -2.9895  -2.9415  -2.8291  -2.8291  -2.7266  -2.7266  -2.5662

          k = 0.4494 0.2595 0.0000 ( 29335 PWs)   bands (ev):

   -21.0489 -20.8796 -20.8626 -20.6917 -20.5524 -20.5370 -20.4099 -20.3915
   -20.2295 -20.1611 -20.1324 -20.0113  -8.7406  -8.7166  -8.7102  -8.6419
    -8.6166  -8.5615  -8.4851  -8.4109  -8.3736  -8.2298  -8.2166  -8.1739
    -6.5156  -6.0990  -6.0477  -5.9494  -5.5440  -5.1988  -4.7826  -4.6966
    -4.4159  -4.2490  -4.1443  -3.7822  -3.1495  -3.1386  -3.1193  -3.0634
    -3.0113  -2.9639  -2.8854  -2.8575  -2.8005  -2.7098  -2.6479  -2.5844

          k = 0.2996 0.1730 0.3111 ( 29366 PWs)   bands (ev):

   -21.0787 -20.8153 -20.7349 -20.7217 -20.6471 -20.5731 -20.4080 -20.3559
   -20.3065 -20.1729 -20.1296 -19.9733  -8.7400  -8.7257  -8.6925  -8.6426
    -8.5964  -8.5367  -8.4169  -8.3633  -8.3296  -8.2847  -8.2279  -8.1599
    -6.6725  -6.0693  -6.0343  -5.7348  -5.6151  -5.1610  -4.8939  -4.7150
    -4.6557  -4.1774  -4.1190  -3.6777  -3.2486  -3.1733  -3.1457  -3.0883
    -3.0533  -2.9349  -2.9114  -2.8296  -2.7396  -2.7377  -2.6632  -2.6337

          k = 0.4494-0.2595-0.9332 ( 29345 PWs)   bands (ev):

   -20.9504 -20.9339 -20.8016 -20.7505 -20.6330 -20.5431 -20.4459 -20.3421
   -20.2186 -20.1509 -20.1098 -20.0365  -8.7307  -8.7076  -8.6950  -8.6206
    -8.5812  -8.5331  -8.4433  -8.3992  -8.3605  -8.2927  -8.2226  -8.1778
    -6.3503  -6.2367  -6.0833  -5.8590  -5.6435  -5.2035  -4.9347  -4.6401
    -4.3958  -4.1780  -4.1350  -3.7880  -3.2542  -3.1965  -3.1659  -3.1067
    -3.0800  -2.9648  -2.8612  -2.8412  -2.7603  -2.7200  -2.6418  -2.6181

          k = 0.2996-0.3460-0.6221 ( 29332 PWs)   bands (ev):

   -20.9052 -20.8924 -20.7910 -20.7769 -20.6501 -20.6483 -20.3656 -20.3615
   -20.1994 -20.1920 -20.0739 -20.0686  -8.7329  -8.6824  -8.6631  -8.6394
    -8.6177  -8.4818  -8.4299  -8.3899  -8.3430  -8.2662  -8.1793  -8.1665
    -6.3517  -6.3147  -6.0238  -5.9657  -5.4760  -5.4360  -4.7756  -4.7027
    -4.3537  -4.3194  -4.0519  -3.8273  -3.3217  -3.2023  -3.1640  -3.1590
    -3.0949  -2.9681  -2.8633  -2.8454  -2.7913  -2.6984  -2.6824  -2.6205

          k = 0.0000 0.0000-1.8663 ( 29358 PWs)   bands (ev):

   -20.8635 -20.8338 -20.7624 -20.7624 -20.7583 -20.7583 -20.2780 -20.2780
   -20.2558 -20.2558 -20.0658 -20.0524  -8.7314  -8.6371  -8.6371  -8.6359
    -8.6359  -8.4796  -8.4115  -8.4041  -8.3219  -8.3219  -8.2149  -8.2149
    -6.3375  -6.1756  -5.8357  -5.8357  -5.7460  -5.7460  -4.5093  -4.5093
    -4.4927  -4.4927  -4.0013  -3.8055  -3.3175  -3.2068  -3.2068  -3.1969
    -3.1969  -2.9124  -2.8700  -2.7739  -2.7739  -2.7152  -2.7152  -2.5875

          k = 0.2996-0.3460 0.3111 ( 29337 PWs)   bands (ev):

   -21.0310 -20.8637 -20.7794 -20.7245 -20.6528 -20.5870 -20.3897 -20.2939
   -20.2656 -20.1845 -20.1234 -20.0217  -8.7386  -8.7154  -8.6984  -8.6322
    -8.5976  -8.5609  -8.4579  -8.3957  -8.3668  -8.2130  -8.1738  -8.1539
    -6.5543  -6.1903  -6.0879  -5.7520  -5.6426  -5.2384  -4.8834  -4.5489
    -4.4337  -4.2862  -4.1713  -3.7827  -3.2365  -3.1653  -3.1109  -3.0657
    -3.0354  -2.9597  -2.9043  -2.8764  -2.7777  -2.7327  -2.6791  -2.5967

     highest occupied level (ev):    -2.5662

!    total energy              =    -418.06488737 Ry
     estimated scf accuracy    <          5.4E-10 Ry

     The total energy is the sum of the following terms:
     one-electron contribution =    -292.30560866 Ry
     hartree contribution      =     181.26029088 Ry
     xc contribution           =    -105.95119420 Ry
     ewald contribution        =    -201.06837539 Ry

     convergence has been achieved in   5 iterations

     Forces acting on atoms (cartesian axes, Ry/au):

     atom    1 type  2   force =     0.00009472    0.00023302    0.00023726
     atom    2 type  2   force =    -0.00009472   -0.00023302   -0.00023726
     atom    3 type  2   force =    -0.00024916   -0.00003448    0.00023726
     atom    4 type  2   force =     0.00024916    0.00003448   -0.00023726
     atom    5 type  2   force =     0.00015444   -0.00019854    0.00023726
     atom    6 type  2   force =    -0.00015444    0.00019854   -0.00023726
     atom    7 type  2   force =     0.00069986   -0.00040748    0.00023507
     atom    8 type  2   force =    -0.00069986    0.00040748   -0.00023507
     atom    9 type  2   force =     0.00000296    0.00080984    0.00023507
     atom   10 type  2   force =    -0.00000296   -0.00080984   -0.00023507
     atom   11 type  2   force =    -0.00070282   -0.00040235    0.00023507
     atom   12 type  2   force =     0.00070282    0.00040235   -0.00023507
     atom   13 type  1   force =     0.00062502   -0.00035183   -0.00046488
     atom   14 type  1   force =    -0.00062502    0.00035183    0.00046488
     atom   15 type  1   force =    -0.00000782    0.00071720   -0.00046488
     atom   16 type  1   force =     0.00000782   -0.00071720    0.00046488
     atom   17 type  1   force =    -0.00061720   -0.00036537   -0.00046488
     atom   18 type  1   force =     0.00061720    0.00036537    0.00046488
     atom   19 type  1   force =    -0.00001816   -0.00025738   -0.00007194
     atom   20 type  1   force =     0.00001816    0.00025738    0.00007194
     atom   21 type  1   force =     0.00023198    0.00011296   -0.00007194
     atom   22 type  1   force =    -0.00023198   -0.00011296    0.00007194
     atom   23 type  1   force =    -0.00021381    0.00014442   -0.00007194
     atom   24 type  1   force =     0.00021381   -0.00014442    0.00007194
     atom   25 type  1   force =     0.00053309   -0.00080277   -0.00015969
     atom   26 type  1   force =    -0.00053309    0.00080277    0.00015969
     atom   27 type  1   force =     0.00042867    0.00086305   -0.00015969
     atom   28 type  1   force =    -0.00042867   -0.00086305    0.00015969
     atom   29 type  1   force =    -0.00096176   -0.00006029   -0.00015969
     atom   30 type  1   force =     0.00096176    0.00006029    0.00015969
     atom   31 type  1   force =    -0.00014177    0.00061651    0.00082647
     atom   32 type  1   force =     0.00014177   -0.00061651   -0.00082647
     atom   33 type  1   force =    -0.00046303   -0.00043103    0.00082647
     atom   34 type  1   force =     0.00046303    0.00043103   -0.00082647
     atom   35 type  1   force =     0.00060479   -0.00018548    0.00082647
     atom   36 type  1   force =    -0.00060479    0.00018548   -0.00082647

     Total force =     0.004693     Total SCF correction =     0.000053


     Computing stress (Cartesian axis) and pressure

          total   stress  (Ry/bohr**3)                   (kbar)     P=        2.39
   0.00001646  -0.00000000  -0.00000000            2.42       -0.00       -0.00
   0.00000000   0.00001646   0.00000000            0.00        2.42        0.00
  -0.00000000   0.00000000   0.00001588           -0.00        0.00        2.34

     Energy error            =      4.5E-05 Ry
     Gradient error          =      9.6E-04 Ry/Bohr

     bfgs converged in  17 scf cycles and  16 bfgs steps
     (criteria: energy <  1.0E-04 Ry, force <  1.0E-03 Ry/Bohr)

     End of BFGS Geometry Optimization

     Final energy             =    -418.0648873737 Ry

     File ./iceII/iceII.bfgs deleted, as requested
Begin final coordinates

ATOMIC_POSITIONS (crystal)
O                0.2717708238        0.0292482003        0.8569798942
O                0.7282291762        0.9707518107        0.1430200758
O                0.8569798942        0.2717708238        0.0292482003
O                0.1430200758        0.7282291762        0.9707518107
O                0.0292482003        0.8569798942        0.2717708238
O                0.9707518107        0.1430200758        0.7282291762
O                0.4710458857        0.7464546168        0.3260883985
O                0.5289541143        0.2535453832        0.6739115715
O                0.3260883985        0.4710458857        0.7464546168
O                0.6739115715        0.5289541143        0.2535453832
O                0.7464546168        0.3260883985        0.4710458857
O                0.2535453832        0.6739115715        0.5289541143
H                0.1423558741        0.0422898271        0.7934614698
H                0.8576441119        0.9577101649        0.2065385302
H                0.7934614698        0.1423558741        0.0422898271
H                0.2065385302        0.8576441119        0.9577101649
H                0.0422898271        0.7934614698        0.1423558741
H                0.9577101649        0.2065385302        0.8576441119
H                0.4265310156        0.2026437857        0.9877326892
H                0.5734689844        0.7973562293        0.0122672898
H                0.9877326892        0.4265310156        0.2026437857
H                0.0122672898        0.5734689844        0.7973562293
H                0.2026437857        0.9877326892        0.4265310156
H                0.7973562293        0.0122672898        0.5734689844
H                0.7277721489        0.4077431570        0.4018037202
H                0.2722278511        0.5922568130        0.5981963098
H                0.4018037202        0.7277721489        0.4077431570
H                0.5981963098        0.2722278511        0.5922568130
H                0.4077431570        0.4018037202        0.7277721489
H                0.5922568130        0.5981963098        0.2722278511
H                0.7381158171        0.1951011829        0.3617794785
H                0.2618841829        0.8048988021        0.6382205215
H                0.3617794785        0.7381158171        0.1951011829
H                0.6382205215        0.2618841829        0.8048988021
H                0.1951011829        0.3617794785        0.7381158171
H                0.8048988021        0.6382205215        0.2618841829
End final coordinates



     Writing all to output data dir ./iceII/iceII.save/ :
     XML data file, charge density, pseudopotentials, collected wavefunctions

     init_run     :      2.54s CPU      2.65s WALL (       1 calls)
     electrons    :    129.04s CPU    135.06s WALL (      17 calls)
     update_pot   :      2.25s CPU      2.81s WALL (      16 calls)
     forces       :      2.21s CPU      2.22s WALL (      17 calls)
     stress       :     17.50s CPU     17.97s WALL (      17 calls)

     Called by init_run:
     wfcinit      :      0.35s CPU      0.35s WALL (       1 calls)
     potinit      :      1.65s CPU      1.72s WALL (       1 calls)
     hinit0       :      0.38s CPU      0.40s WALL (       1 calls)

     Called by electrons:
     c_bands      :     96.91s CPU     97.93s WALL (     131 calls)
     sum_band     :     13.86s CPU     13.96s WALL (     131 calls)
     v_of_rho     :     20.66s CPU     25.25s WALL (     142 calls)
     newd         :      0.59s CPU      0.61s WALL (     142 calls)
     mix_rho      :      0.39s CPU      0.40s WALL (     131 calls)
     vdW_kernel   :      1.50s CPU      1.52s WALL (       1 calls)

     Called by c_bands:
     init_us_2    :      1.69s CPU      1.76s WALL (    1188 calls)
     cegterg      :     94.03s CPU     94.78s WALL (     524 calls)

     Called by *egterg:
     cdiaghg      :      7.10s CPU      7.11s WALL (    1850 calls)
     h_psi        :     71.38s CPU     71.99s WALL (    1942 calls)
     s_psi        :      2.98s CPU      3.04s WALL (    1942 calls)
     g_psi        :      0.19s CPU      0.20s WALL (    1414 calls)

     Called by h_psi:
     h_psi:calbec :      5.20s CPU      5.23s WALL (    1942 calls)
     vloc_psi     :     62.66s CPU     63.22s WALL (    1942 calls)
     add_vuspsi   :      3.02s CPU      3.03s WALL (    1942 calls)

     General routines
     calbec       :      7.43s CPU      7.47s WALL (    2806 calls)
     fft          :     12.20s CPU     14.60s WALL (    9568 calls)
     ffts         :      0.17s CPU      0.17s WALL (     131 calls)
     fftw         :     65.85s CPU     66.42s WALL (  178454 calls)

     Parallel routines

     PWSCF        :   2m34.71s CPU   2m42.74s WALL


   This run was terminated on:  14:40: 5   1Apr2026            

=------------------------------------------------------------------------------=
   JOB DONE.
=------------------------------------------------------------------------------=
