
     Program PWSCF v.7.3.1 starts on 26Mar2026 at 14:53:48 

     This program is part of the open-source Quantum ESPRESSO suite
     for quantum simulation of materials; please cite
         "P. Giannozzi et al., J. Phys.:Condens. Matter 21 395502 (2009);
         "P. Giannozzi et al., J. Phys.:Condens. Matter 29 465901 (2017);
         "P. Giannozzi et al., J. Chem. Phys. 152 154105 (2020);
          URL http://www.quantum-espresso.org", 
     in publications or presentations arising from this work. More details at
     http://www.quantum-espresso.org/quote

     Parallel version (MPI), running on   128 processors

     MPI processes distributed on     1 nodes
     242817 MiB available memory on the printing compute node when the environment starts

     Waiting for input...
     Reading input from standard input

     Current dimensions of program PWSCF are:
     Max number of different atomic species (ntypx) = 10
     Max number of k-points (npk) =  40000
     Max angular momentum in pseudopotentials (lmaxx) =  4

     IMPORTANT: XC functional enforced from input :
     Exchange-correlation= VDW-DF2
                           (   1   4  13   0   2   0   0)
     Any further DFT definition will be discarded
     Please, verify this is what you really want


     K-points division:     npool     =       4
     R & G space division:  proc/nbgrp/npool/nimage =      32
     Subspace diagonalization in iterative solution of the eigenvalue problem:
     a serial algorithm will be used


     Parallelization info
     --------------------
     sticks:   dense  smooth     PW     G-vecs:    dense   smooth      PW
     Min         177     177     52                 7355     7355    1172
     Max         178     178     53                 7357     7357    1174
     Sum        5673    5673   1667               235391   235391   37537

     Using Slab Decomposition



     bravais-lattice index     =            5
     lattice parameter (alat)  =      14.6727  a.u.
     unit-cell volume          =    2040.8887 (a.u.)^3
     number of atoms/cell      =           36
     number of atomic types    =            2
     number of electrons       =        96.00
     number of Kohn-Sham states=           48
     kinetic-energy cutoff     =      90.0000  Ry
     charge density cutoff     =     360.0000  Ry
     scf convergence threshold =      1.0E-07
     mixing beta               =       0.7000
     number of iterations used =            8  plain     mixing
     Exchange-correlation= VDW-DF2
                           (   1   4  13   0   2   0   0)

     celldm(1)=  14.672664  celldm(2)=   0.000000  celldm(3)=   0.000000
     celldm(4)=  -0.392337  celldm(5)=   0.000000  celldm(6)=   0.000000

     crystal axes: (cart. coord. in units of alat)
               a(1) = (   0.834367  -0.481722   0.267909 )  
               a(2) = (   0.000000   0.963444   0.267909 )  
               a(3) = (  -0.834367  -0.481722   0.267909 )  

     reciprocal axes: (cart. coord. in units 2 pi/alat)
               b(1) = (  0.599257 -0.345981  1.244203 )  
               b(2) = (  0.000000  0.691962  1.244203 )  
               b(3) = ( -0.599257 -0.345981  1.244203 )  


     PseudoPot. # 1 for H  read from file:
     ./H.pbe-van_ak.UPF
     MD5 check sum: 077eb6d537518a38cb46c6de387227b7
     Pseudo is Ultrasoft, Zval =  1.0
     Generated by new atomic code, or converted to UPF format
     Using radial grid of  615 points,  1 beta functions with: 
                l(1) =   0
     Q(r) pseudized with  8 coefficients,  rinner =    0.800

     PseudoPot. # 2 for O  read from file:
     ./O.pbe-van_ak.UPF
     MD5 check sum: 78c19812648e8988a0fe644b0f25305e
     Pseudo is Ultrasoft, Zval =  6.0
     Generated by new atomic code, or converted to UPF format
     Using radial grid of  737 points,  4 beta functions with: 
                l(1) =   0
                l(2) =   0
                l(3) =   1
                l(4) =   1
     Q(r) pseudized with  8 coefficients,  rinner =    0.800   0.800   0.800


     atomic species   valence    mass     pseudopotential
     H                 1.00     1.00800     H ( 1.00)
     O                 6.00    16.00000     O ( 1.00)

      6 Sym. Ops., with inversion, found



   Cartesian axes

     site n.     atom                  positions (alat units)
         1        O      tau(   1) = (  -0.4881587  -0.5153728   0.3102004  )
         2        O      tau(   2) = (   0.4881587   0.5153729   0.4935268  )
         3        O      tau(   3) = (   0.6904053  -0.1650714   0.3102004  )
         4        O      tau(   4) = (  -0.6904053   0.1650714   0.4935268  )
         5        O      tau(   5) = (  -0.2022466   0.6804442   0.3102004  )
         6        O      tau(   6) = (   0.2022466  -0.6804442   0.4935268  )
         7        O      tau(   7) = (   0.1208629   0.3351200   0.4137471  )
         8        O      tau(   8) = (  -0.1208629  -0.3351200   0.3899800  )
         9        O      tau(   9) = (  -0.3506539  -0.0628897   0.4137471  )
        10        O      tau(  10) = (   0.3506539   0.0628897   0.3899800  )
        11        O      tau(  11) = (   0.2297910  -0.2722304   0.4137471  )
        12        O      tau(  12) = (  -0.2297910   0.2722304   0.3899800  )
        13        H      tau(  13) = (  -0.5430428  -0.4102686   0.2622098  )
        14        H      tau(  14) = (   0.5430428   0.4102686   0.5415173  )
        15        H      tau(  15) = (   0.6268245  -0.2651546   0.2622098  )
        16        H      tau(  16) = (  -0.6268245   0.2651546   0.5415173  )
        17        H      tau(  17) = (  -0.0837816   0.6754232   0.2622098  )
        18        H      tau(  18) = (   0.0837817  -0.6754232   0.5415173  )
        19        H      tau(  19) = (  -0.4681736  -0.4859583   0.4327384  )
        20        H      tau(  20) = (   0.4681736   0.4859583   0.3709887  )
        21        H      tau(  21) = (   0.6549390  -0.1624711   0.4327384  )
        22        H      tau(  22) = (  -0.6549390   0.1624711   0.3709887  )
        23        H      tau(  23) = (  -0.1867654   0.6484294   0.4327384  )
        24        H      tau(  24) = (   0.1867654  -0.6484294   0.3709887  )
        25        H      tau(  25) = (   0.2718867  -0.1516220   0.4118766  )
        26        H      tau(  26) = (  -0.2718867   0.1516219   0.3918506  )
        27        H      tau(  27) = (  -0.0046349   0.3112717   0.4118766  )
        28        H      tau(  28) = (   0.0046349  -0.3112717   0.3918506  )
        29        H      tau(  29) = (  -0.2672518  -0.1596498   0.4118766  )
        30        H      tau(  30) = (   0.2672518   0.1596498   0.3918506  )
        31        H      tau(  31) = (   0.3136186  -0.3416266   0.3473301  )
        32        H      tau(  32) = (  -0.3136186   0.3416266   0.4563970  )
        33        H      tau(  33) = (   0.1390481   0.4424150   0.3473301  )
        34        H      tau(  34) = (  -0.1390480  -0.4424150   0.4563970  )
        35        H      tau(  35) = (  -0.4526667  -0.1007884   0.3473301  )
        36        H      tau(  36) = (   0.4526666   0.1007884   0.4563970  )

     number of k points=    14
                       cart. coord. in units 2pi/alat
        k(    1) = (   0.0000000   0.0000000   0.0000000), wk =   0.0312500
        k(    2) = (  -0.1498141  -0.0864952   0.3110508), wk =   0.1875000
        k(    3) = (   0.2996283   0.1729905  -0.6221017), wk =   0.0937500
        k(    4) = (  -0.1498141   0.0864952   0.6221017), wk =   0.1875000
        k(    5) = (   0.2996283   0.3459809  -0.3110508), wk =   0.1875000
        k(    6) = (   0.1498141   0.2594857   0.0000000), wk =   0.1875000
        k(    7) = (   0.2996283  -0.1729905  -1.2442034), wk =   0.0937500
        k(    8) = (   0.0000000   0.0000000   0.9331525), wk =   0.0625000
        k(    9) = (   0.4494424   0.2594857   0.0000000), wk =   0.1875000
        k(   10) = (   0.2996283   0.1729905   0.3110508), wk =   0.1875000
        k(   11) = (   0.4494424  -0.2594857  -0.9331525), wk =   0.1875000
        k(   12) = (   0.2996283  -0.3459809  -0.6221017), wk =   0.1875000
        k(   13) = (   0.0000000   0.0000000  -1.8663050), wk =   0.0312500
        k(   14) = (   0.2996283  -0.3459809   0.3110508), wk =   0.1875000

     Dense  grid:   235391 G-vectors     FFT dimensions: (  90,  90,  90)

     Estimated max dynamical RAM per process >      15.42 MB

     Estimated total dynamical RAM >       1.76 GB

     Initial potential from superposition of free atoms

     starting charge      95.9998, renormalised to      96.0000


     %%%%%%%%%%%%%%%%%%%%%%%%%%%%%%%%%%%%%%%%%%%%%%%%%%%%%%%%%%%%%%%%%%%%%%%%
     %                                                                      %
     % You are using vdW-DF, which was implemented by the Thonhauser group. %
     % Please cite the following two papers that made this development      %
     % possible and the two reviews that describe the various versions:     %
     %                                                                      %
     %   T. Thonhauser et al., PRL 115, 136402 (2015).                      %
     %   T. Thonhauser et al., PRB 76, 125112 (2007).                       %
     %   K. Berland et al., Rep. Prog. Phys. 78, 066501 (2015).             %
     %   D.C. Langreth et al., J. Phys.: Condens. Matter 21, 084203 (2009). %
     %                                                                      %
     % If you are calculating stress with vdW-DF, please also cite:         %
     %                                                                      %
     %   R. Sabatini et al., J. Phys.: Condens. Matter 24, 424209 (2012).   %
     %                                                                      %
     %%%%%%%%%%%%%%%%%%%%%%%%%%%%%%%%%%%%%%%%%%%%%%%%%%%%%%%%%%%%%%%%%%%%%%%%

     %%%%%%%%%%%%%%%%%%%%%%%%%%%%%%%%%%%%%%%%%%%%%%%%%%%%%%%%%%%%%%%%%%%%%%%%
     %                                                                      %
     %  vdW-DF NEWS:                                                        %
     %                                                                      %
     %  * vdW-DF3 is now available. DOI: 10.1021/acs.jctc.0c00471           %
     %    use with input_dft = 'vdW-DF3-opt1' or 'vdW-DF3-opt2'             %
     %                                                                      %
     %  * Unscreened and range-separated hybrid vdW-DF-cx functionals       %
     %    DOI: 10.1063/1.4986522 and 10.1088/1361-648X/ac2ad2               %
     %    use with input_dft = 'vdW-DF-cx0'    and 'vdW-DF-ahcx'            %
     %  * Unscreened and range-separated hybrid vdW-DF2-b86r functionals    %
     %    DOI: 10.1063/1.4986522 and DOI: 10.1103/PhysRevX.12.041003        %
     %    use with input_dft = 'vdW-DF2-br0' and 'vdW-DF2-ahbr'             %
     %                                                                      %
     %%%%%%%%%%%%%%%%%%%%%%%%%%%%%%%%%%%%%%%%%%%%%%%%%%%%%%%%%%%%%%%%%%%%%%%%


     Starting wfcs are   72 randomized atomic wfcs

     total cpu time spent up to now is        2.9 secs

     per-process dynamical memory:    19.5 Mb

     Self-consistent Calculation

     iteration #  1     ecut=    90.00 Ry     beta= 0.70
     Davidson diagonalization with overlap
     ethr =  1.00E-02,  avg # of iterations =  2.0

     total cpu time spent up to now is        3.8 secs

     total energy              =    -415.93520108 Ry
     estimated scf accuracy    <       4.78055949 Ry

     iteration #  2     ecut=    90.00 Ry     beta= 0.70
     Davidson diagonalization with overlap
     ethr =  4.98E-03,  avg # of iterations =  3.0

     total cpu time spent up to now is        5.0 secs

     total energy              =    -417.50855327 Ry
     estimated scf accuracy    <       3.33901592 Ry

     iteration #  3     ecut=    90.00 Ry     beta= 0.70
     Davidson diagonalization with overlap
     ethr =  3.48E-03,  avg # of iterations =  2.0

     total cpu time spent up to now is        6.0 secs

     total energy              =    -417.94675785 Ry
     estimated scf accuracy    <       0.14233276 Ry

     iteration #  4     ecut=    90.00 Ry     beta= 0.70
     Davidson diagonalization with overlap
     ethr =  1.48E-04,  avg # of iterations =  4.0

     negative rho (up, down):  6.286E-08 0.000E+00

     total cpu time spent up to now is        7.3 secs

     total energy              =    -418.05583293 Ry
     estimated scf accuracy    <       0.17982997 Ry

     iteration #  5     ecut=    90.00 Ry     beta= 0.70
     Davidson diagonalization with overlap
     ethr =  1.48E-04,  avg # of iterations =  2.0

     negative rho (up, down):  1.265E-07 0.000E+00

     total cpu time spent up to now is        8.1 secs

     total energy              =    -418.06132747 Ry
     estimated scf accuracy    <       0.02617009 Ry

     iteration #  6     ecut=    90.00 Ry     beta= 0.70
     Davidson diagonalization with overlap
     ethr =  2.73E-05,  avg # of iterations =  2.0

     negative rho (up, down):  1.807E-07 0.000E+00

     total cpu time spent up to now is        9.1 secs

     total energy              =    -418.06281111 Ry
     estimated scf accuracy    <       0.00446634 Ry

     iteration #  7     ecut=    90.00 Ry     beta= 0.70
     Davidson diagonalization with overlap
     ethr =  4.65E-06,  avg # of iterations =  3.0

     negative rho (up, down):  1.866E-07 0.000E+00

     total cpu time spent up to now is       10.2 secs

     total energy              =    -418.06579716 Ry
     estimated scf accuracy    <       0.00116949 Ry

     iteration #  8     ecut=    90.00 Ry     beta= 0.70
     Davidson diagonalization with overlap
     ethr =  1.22E-06,  avg # of iterations =  2.0

     negative rho (up, down):  1.668E-07 0.000E+00

     total cpu time spent up to now is       11.1 secs

     total energy              =    -418.06501629 Ry
     estimated scf accuracy    <       0.00254098 Ry

     iteration #  9     ecut=    90.00 Ry     beta= 0.70
     Davidson diagonalization with overlap
     ethr =  1.22E-06,  avg # of iterations =  2.0

     negative rho (up, down):  1.622E-07 0.000E+00

     total cpu time spent up to now is       12.0 secs

     total energy              =    -418.06509508 Ry
     estimated scf accuracy    <       0.00053054 Ry

     iteration # 10     ecut=    90.00 Ry     beta= 0.70
     Davidson diagonalization with overlap
     ethr =  5.53E-07,  avg # of iterations =  1.0

     negative rho (up, down):  1.528E-07 0.000E+00

     total cpu time spent up to now is       12.8 secs

     total energy              =    -418.06502145 Ry
     estimated scf accuracy    <       0.00024408 Ry

     iteration # 11     ecut=    90.00 Ry     beta= 0.70
     Davidson diagonalization with overlap
     ethr =  2.54E-07,  avg # of iterations =  2.5

     negative rho (up, down):  1.552E-07 0.000E+00

     total cpu time spent up to now is       13.8 secs

     total energy              =    -418.06508292 Ry
     estimated scf accuracy    <       0.00000145 Ry

     iteration # 12     ecut=    90.00 Ry     beta= 0.70
     Davidson diagonalization with overlap
     ethr =  1.51E-09,  avg # of iterations =  4.9

     negative rho (up, down):  1.526E-07 0.000E+00

     total cpu time spent up to now is       15.1 secs

     total energy              =    -418.06507981 Ry
     estimated scf accuracy    <       0.00001439 Ry

     iteration # 13     ecut=    90.00 Ry     beta= 0.70
     Davidson diagonalization with overlap
     ethr =  1.51E-09,  avg # of iterations =  3.1

     negative rho (up, down):  1.517E-07 0.000E+00

     total cpu time spent up to now is       16.3 secs

     total energy              =    -418.06508015 Ry
     estimated scf accuracy    <       0.00000173 Ry

     iteration # 14     ecut=    90.00 Ry     beta= 0.70
     Davidson diagonalization with overlap
     ethr =  1.51E-09,  avg # of iterations =  2.0

     negative rho (up, down):  1.524E-07 0.000E+00

     total cpu time spent up to now is       17.3 secs

     End of self-consistent calculation

          k = 0.0000 0.0000 0.0000 ( 29363 PWs)   bands (ev):

   -21.2372 -20.7679 -20.7679 -20.5693 -20.5693 -20.5270 -20.5264 -20.5264
   -20.5239 -20.2326 -20.2326 -19.9256  -8.8162  -8.7465  -8.7465  -8.7181
    -8.6300  -8.6300  -8.3495  -8.3495  -8.3450  -8.2987  -8.2878  -8.2878
    -7.0146  -5.9514  -5.9514  -5.3431  -5.3431  -5.1778  -5.1778  -5.0074
    -4.8980  -4.2230  -4.2230  -3.5036  -3.1679  -3.1679  -3.1330  -2.9970
    -2.9970  -2.9614  -2.8597  -2.8597  -2.8141  -2.7339  -2.6868  -2.6868

          k =-0.1498-0.0865 0.3111 ( 29428 PWs)   bands (ev):

   -21.1639 -20.8098 -20.7584 -20.7048 -20.6691 -20.6011 -20.4797 -20.4360
   -20.3747 -20.2373 -20.1964 -19.9825  -8.7808  -8.7575  -8.7376  -8.7004
    -8.6229  -8.5948  -8.4093  -8.3832  -8.3700  -8.2834  -8.2228  -8.2210
    -6.8471  -6.1181  -5.9820  -5.6623  -5.4236  -5.1855  -5.0212  -4.8832
    -4.7256  -4.2156  -4.1569  -3.6482  -3.2504  -3.1827  -3.1487  -3.0662
    -3.0474  -2.9918  -2.8943  -2.8462  -2.7816  -2.7660  -2.7062  -2.6807

          k = 0.2996 0.1730-0.6221 ( 29458 PWs)   bands (ev):

   -20.9768 -20.9699 -20.7918 -20.7754 -20.6658 -20.6634 -20.4273 -20.4259
   -20.2483 -20.2354 -20.1225 -20.1194  -8.7636  -8.7475  -8.7043  -8.6970
    -8.6232  -8.5728  -8.4288  -8.4153  -8.3830  -8.2703  -8.1814  -8.1696
    -6.5075  -6.3939  -5.9736  -5.9660  -5.4110  -5.3446  -4.8955  -4.8054
    -4.3550  -4.2980  -4.1249  -3.8800  -3.3252  -3.2085  -3.1367  -3.1251
    -3.0673  -3.0241  -2.9462  -2.8496  -2.8308  -2.7454  -2.6895  -2.6727

          k =-0.1498 0.0865 0.6221 ( 29433 PWs)   bands (ev):

   -21.0170 -20.8767 -20.8601 -20.7398 -20.7155 -20.6513 -20.4357 -20.3559
   -20.3112 -20.1949 -20.1787 -20.0850  -8.7618  -8.7435  -8.7166  -8.6990
    -8.6173  -8.5596  -8.4279  -8.4202  -8.4032  -8.2350  -8.2005  -8.1725
    -6.5492  -6.2546  -6.2028  -5.7448  -5.5366  -5.3574  -4.8886  -4.6591
    -4.5379  -4.2011  -4.1274  -3.9041  -3.3092  -3.2361  -3.1295  -3.1062
    -3.0512  -3.0383  -2.9560  -2.8512  -2.8167  -2.7468  -2.7126  -2.6577

          k = 0.2996 0.3460-0.3111 ( 29427 PWs)   bands (ev):

   -21.0657 -20.9033 -20.8086 -20.7682 -20.6932 -20.6281 -20.4329 -20.3291
   -20.3131 -20.2324 -20.1712 -20.0673  -8.7667  -8.7582  -8.7232  -8.6820
    -8.6193  -8.5929  -8.4792  -8.4363  -8.4063  -8.2570  -8.2185  -8.1828
    -6.5605  -6.2360  -6.0346  -5.7915  -5.7206  -5.1940  -4.8044  -4.7126
    -4.5347  -4.2628  -4.1234  -3.8466  -3.2485  -3.2012  -3.1446  -3.0937
    -3.0445  -2.9767  -2.9189  -2.8860  -2.7909  -2.7879  -2.7010  -2.6157

          k = 0.1498 0.2595 0.0000 ( 29433 PWs)   bands (ev):

   -21.1833 -20.8440 -20.7864 -20.6776 -20.6479 -20.5719 -20.4813 -20.4147
   -20.3732 -20.2412 -20.2108 -19.9728  -8.7982  -8.7519  -8.7442  -8.6993
    -8.6302  -8.6218  -8.4384  -8.4049  -8.3662  -8.3018  -8.2707  -8.2224
    -6.8332  -6.0103  -5.9031  -5.6978  -5.6598  -5.0890  -4.9094  -4.7910
    -4.7641  -4.2593  -4.2152  -3.5995  -3.1716  -3.1575  -3.1496  -3.0525
    -3.0053  -2.9775  -2.8926  -2.8755  -2.7908  -2.7672  -2.6653  -2.6445

          k = 0.2996-0.1730-1.2442 ( 29414 PWs)   bands (ev):

   -21.0576 -21.0084 -20.7999 -20.7286 -20.6436 -20.5972 -20.4176 -20.4047
   -20.2819 -20.2747 -20.0987 -20.0915  -8.7770  -8.7538  -8.7291  -8.6839
    -8.6259  -8.6251  -8.5109  -8.4487  -8.3900  -8.2714  -8.2671  -8.2090
    -6.4012  -6.3732  -5.9981  -5.8580  -5.6024  -5.2225  -4.7225  -4.7058
    -4.5262  -4.3891  -4.0280  -3.8523  -3.1841  -3.1586  -3.1323  -3.0899
    -3.0168  -2.9778  -2.9236  -2.8536  -2.8484  -2.7598  -2.6293  -2.6279

          k = 0.0000 0.0000 0.9332 ( 29370 PWs)   bands (ev):

   -20.9574 -20.9574 -20.8685 -20.8423 -20.6525 -20.6525 -20.3552 -20.3551
   -20.2255 -20.2038 -20.1715 -20.1715  -8.7583  -8.7583  -8.7309  -8.6400
    -8.6400  -8.6233  -8.5146  -8.4373  -8.4373  -8.1981  -8.1981  -8.1749
    -6.3092  -6.3092  -6.2701  -5.8627  -5.5118  -5.5118  -4.5680  -4.5680
    -4.5012  -4.1892  -4.1892  -4.0783  -3.2051  -3.2051  -3.1107  -3.0881
    -3.0105  -3.0105  -2.9652  -2.8509  -2.8509  -2.7495  -2.7495  -2.5908

          k = 0.4494 0.2595 0.0000 ( 29428 PWs)   bands (ev):

   -21.0837 -20.9164 -20.8995 -20.7304 -20.5921 -20.5783 -20.4521 -20.4347
   -20.2749 -20.2063 -20.1777 -20.0584  -8.7725  -8.7489  -8.7418  -8.6763
    -8.6505  -8.5954  -8.5185  -8.4445  -8.4073  -8.2677  -8.2547  -8.2131
    -6.5253  -6.1120  -6.0618  -5.9647  -5.5612  -5.2199  -4.8077  -4.7231
    -4.4420  -4.2764  -4.1717  -3.8130  -3.1711  -3.1610  -3.1428  -3.0836
    -3.0317  -2.9851  -2.9079  -2.8803  -2.8247  -2.7337  -2.6720  -2.6087

          k = 0.2996 0.1730 0.3111 ( 29431 PWs)   bands (ev):

   -21.1131 -20.8526 -20.7731 -20.7604 -20.6865 -20.6139 -20.4498 -20.3987
   -20.3499 -20.2187 -20.1751 -20.0211  -8.7716  -8.7576  -8.7252  -8.6775
    -8.6309  -8.5717  -8.4509  -8.3981  -8.3644  -8.3220  -8.2645  -8.1990
    -6.6807  -6.0834  -6.0499  -5.7497  -5.6323  -5.1824  -4.9163  -4.7382
    -4.6806  -4.2063  -4.1471  -3.7099  -3.2716  -3.1942  -3.1678  -3.1089
    -3.0738  -2.9574  -2.9319  -2.8534  -2.7636  -2.7620  -2.6858  -2.6580

          k = 0.4494-0.2595-0.9332 ( 29435 PWs)   bands (ev):

   -20.9863 -20.9699 -20.8392 -20.7887 -20.6724 -20.5842 -20.4872 -20.3854
   -20.2631 -20.1971 -20.1558 -20.0831  -8.7622  -8.7400  -8.7283  -8.6554
    -8.6171  -8.5667  -8.4771  -8.4334  -8.3946  -8.3290  -8.2597  -8.2164
    -6.3623  -6.2494  -6.0981  -5.8747  -5.6598  -5.2224  -4.9589  -4.6661
    -4.4212  -4.2066  -4.1622  -3.8190  -3.2775  -3.2173  -3.1873  -3.1268
    -3.1004  -2.9857  -2.8844  -2.8644  -2.7844  -2.7442  -2.6657  -2.6409

          k = 0.2996-0.3460-0.6221 ( 29420 PWs)   bands (ev):

   -20.9404 -20.9299 -20.8283 -20.8153 -20.6896 -20.6883 -20.4075 -20.4041
   -20.2444 -20.2371 -20.1214 -20.1144  -8.7641  -8.7158  -8.6973  -8.6741
    -8.6520  -8.5181  -8.4636  -8.4230  -8.3781  -8.3035  -8.2173  -8.2047
    -6.3634  -6.3272  -6.0379  -5.9819  -5.4936  -5.4539  -4.7982  -4.7261
    -4.3800  -4.3457  -4.0800  -3.8588  -3.3448  -3.2237  -3.1848  -3.1798
    -3.1161  -2.9903  -2.8837  -2.8686  -2.8152  -2.7222  -2.7065  -2.6431

          k = 0.0000 0.0000-1.8663 ( 29412 PWs)   bands (ev):

   -20.8988 -20.8726 -20.7988 -20.7988 -20.7980 -20.7980 -20.3207 -20.3207
   -20.3010 -20.3010 -20.1136 -20.0983  -8.7623  -8.6713  -8.6713  -8.6711
    -8.6711  -8.5126  -8.4492  -8.4364  -8.3574  -8.3574  -8.2517  -8.2517
    -6.3495  -6.1926  -5.8520  -5.8520  -5.7607  -5.7607  -4.5332  -4.5332
    -4.5192  -4.5192  -4.0291  -3.8372  -3.3419  -3.2279  -3.2279  -3.2159
    -3.2159  -2.9354  -2.8909  -2.7969  -2.7969  -2.7397  -2.7397  -2.6102

          k = 0.2996-0.3460 0.3111 ( 29427 PWs)   bands (ev):

   -21.0659 -20.9008 -20.8162 -20.7639 -20.6921 -20.6275 -20.4318 -20.3366
   -20.3107 -20.2293 -20.1695 -20.0687  -8.7707  -8.7474  -8.7311  -8.6662
    -8.6330  -8.5951  -8.4903  -8.4305  -8.4014  -8.2515  -8.2120  -8.1932
    -6.5632  -6.2032  -6.1011  -5.7686  -5.6604  -5.2599  -4.9045  -4.5727
    -4.4604  -4.3135  -4.1993  -3.8140  -3.2595  -3.1869  -3.1340  -3.0870
    -3.0561  -2.9815  -2.9259  -2.8989  -2.8017  -2.7558  -2.7021  -2.6211

     highest occupied level (ev):    -2.5908

!    total energy              =    -418.06508066 Ry
     estimated scf accuracy    <       0.00000008 Ry

     The total energy is the sum of the following terms:
     one-electron contribution =    -293.30611084 Ry
     hartree contribution      =     181.67934794 Ry
     xc contribution           =    -105.98493886 Ry
     ewald contribution        =    -200.45337889 Ry

     convergence has been achieved in  14 iterations

     Forces acting on atoms (cartesian axes, Ry/au):

     atom    1 type  2   force =     0.00101122   -0.00290775   -0.00155018
     atom    2 type  2   force =    -0.00101122    0.00290775    0.00155018
     atom    3 type  2   force =     0.00201257    0.00232961   -0.00155018
     atom    4 type  2   force =    -0.00201257   -0.00232961    0.00155018
     atom    5 type  2   force =    -0.00302379    0.00057813   -0.00155018
     atom    6 type  2   force =     0.00302379   -0.00057813    0.00155018
     atom    7 type  2   force =     0.00315265   -0.00236011    0.00179784
     atom    8 type  2   force =    -0.00315265    0.00236011   -0.00179784
     atom    9 type  2   force =     0.00046759    0.00391033    0.00179784
     atom   10 type  2   force =    -0.00046759   -0.00391033   -0.00179784
     atom   11 type  2   force =    -0.00362024   -0.00155022    0.00179784
     atom   12 type  2   force =     0.00362024    0.00155022   -0.00179784
     atom   13 type  1   force =    -0.00077734    0.00228632   -0.00190987
     atom   14 type  1   force =     0.00077734   -0.00228632    0.00190987
     atom   15 type  1   force =    -0.00159133   -0.00181636   -0.00190987
     atom   16 type  1   force =     0.00159133    0.00181636    0.00190987
     atom   17 type  1   force =     0.00236868   -0.00046996   -0.00190987
     atom   18 type  1   force =    -0.00236868    0.00046996    0.00190987
     atom   19 type  1   force =     0.00052855    0.00026308    0.00310911
     atom   20 type  1   force =    -0.00052855   -0.00026308   -0.00310911
     atom   21 type  1   force =    -0.00049211    0.00032620    0.00310911
     atom   22 type  1   force =     0.00049211   -0.00032620   -0.00310911
     atom   23 type  1   force =    -0.00003644   -0.00058928    0.00310911
     atom   24 type  1   force =     0.00003644    0.00058928   -0.00310911
     atom   25 type  1   force =     0.00140209    0.00221033   -0.00015440
     atom   26 type  1   force =    -0.00140209   -0.00221033    0.00015440
     atom   27 type  1   force =    -0.00261525    0.00010908   -0.00015440
     atom   28 type  1   force =     0.00261525   -0.00010908    0.00015440
     atom   29 type  1   force =     0.00121316   -0.00231941   -0.00015440
     atom   30 type  1   force =    -0.00121316    0.00231941    0.00015440
     atom   31 type  1   force =     0.00199771   -0.00128169   -0.00085067
     atom   32 type  1   force =    -0.00199771    0.00128169    0.00085067
     atom   33 type  1   force =     0.00011112    0.00237092   -0.00085067
     atom   34 type  1   force =    -0.00011112   -0.00237092    0.00085067
     atom   35 type  1   force =    -0.00210883   -0.00108923   -0.00085067
     atom   36 type  1   force =     0.00210883    0.00108923    0.00085067

     Total force =     0.019496     Total SCF correction =     0.000236


     Computing stress (Cartesian axis) and pressure

          total   stress  (Ry/bohr**3)                   (kbar)     P=        5.78
   0.00003875  -0.00000000  -0.00000000            5.70       -0.00       -0.00
   0.00000000   0.00003875   0.00000000            0.00        5.70        0.00
   0.00000000   0.00000000   0.00004046            0.00        0.00        5.95


     Writing all to output data dir ./iceII/iceII.save/ :
     XML data file, charge density, pseudopotentials, collected wavefunctions

     init_run     :      2.56s CPU      2.66s WALL (       1 calls)
     electrons    :     13.84s CPU     14.49s WALL (       1 calls)
     forces       :      0.13s CPU      0.14s WALL (       1 calls)
     stress       :      1.04s CPU      1.08s WALL (       1 calls)

     Called by init_run:
     wfcinit      :      0.35s CPU      0.35s WALL (       1 calls)
     potinit      :      1.67s CPU      1.73s WALL (       1 calls)
     hinit0       :      0.39s CPU      0.39s WALL (       1 calls)

     Called by electrons:
     c_bands      :     10.19s CPU     10.29s WALL (      14 calls)
     sum_band     :      1.50s CPU      1.51s WALL (      14 calls)
     v_of_rho     :      3.65s CPU      4.14s WALL (      15 calls)
     newd         :      0.07s CPU      0.07s WALL (      15 calls)
     mix_rho      :      0.06s CPU      0.06s WALL (      14 calls)
     vdW_kernel   :      1.51s CPU      1.52s WALL (       1 calls)

     Called by c_bands:
     init_us_2    :      0.18s CPU      0.18s WALL (     124 calls)
     cegterg      :      9.91s CPU      9.99s WALL (      56 calls)

     Called by *egterg:
     cdiaghg      :      0.76s CPU      0.76s WALL (     198 calls)
     h_psi        :      7.78s CPU      7.85s WALL (     202 calls)
     s_psi        :      0.33s CPU      0.33s WALL (     202 calls)
     g_psi        :      0.02s CPU      0.02s WALL (     142 calls)

     Called by h_psi:
     h_psi:calbec :      0.55s CPU      0.55s WALL (     202 calls)
     vloc_psi     :      6.84s CPU      6.91s WALL (     202 calls)
     add_vuspsi   :      0.33s CPU      0.33s WALL (     202 calls)

     General routines
     calbec       :      0.75s CPU      0.75s WALL (     278 calls)
     fft          :      1.68s CPU      1.95s WALL (     967 calls)
     ffts         :      0.02s CPU      0.02s WALL (      14 calls)
     fftw         :      7.18s CPU      7.24s WALL (   19540 calls)

     Parallel routines

     PWSCF        :     17.84s CPU     19.19s WALL


   This run was terminated on:  14:54: 8  26Mar2026            

=------------------------------------------------------------------------------=
   JOB DONE.
=------------------------------------------------------------------------------=
