
     Program PWSCF v.7.3.1 starts on  3Feb2026 at 14:30:23 

     This program is part of the open-source Quantum ESPRESSO suite
     for quantum simulation of materials; please cite
         "P. Giannozzi et al., J. Phys.:Condens. Matter 21 395502 (2009);
         "P. Giannozzi et al., J. Phys.:Condens. Matter 29 465901 (2017);
         "P. Giannozzi et al., J. Chem. Phys. 152 154105 (2020);
          URL http://www.quantum-espresso.org", 
     in publications or presentations arising from this work. More details at
     http://www.quantum-espresso.org/quote

     Parallel version (MPI), running on   128 processors

     MPI processes distributed on     1 nodes
     241038 MiB available memory on the printing compute node when the environment starts

     Waiting for input...
     Reading input from standard input

     Current dimensions of program PWSCF are:
     Max number of different atomic species (ntypx) = 10
     Max number of k-points (npk) =  40000
     Max angular momentum in pseudopotentials (lmaxx) =  4
     WARNING: atomic wfc #  2 for atom typeSi has zero norm
     WARNING: atomic wfc #  2 for atom typeO has zero norm
     WARNING: atomic wfc #  4 for atom typeO has zero norm
     WARNING: atomic wfc #  5 for atom typeO has zero norm

     K-points division:     npool     =       4
     R & G space division:  proc/nbgrp/npool/nimage =      32
     Subspace diagonalization in iterative solution of the eigenvalue problem:
     a serial algorithm will be used


     Parallelization info
     --------------------
     sticks:   dense  smooth     PW     G-vecs:    dense   smooth      PW
     Min          74      74     20                 3220     3220     464
     Max          75      75     21                 3225     3225     469
     Sum        2383    2383    649               103151   103151   14915

     Using Slab Decomposition



     bravais-lattice index     =            4
     lattice parameter (alat)  =       9.2850  a.u.
     unit-cell volume          =     762.5513 (a.u.)^3
     number of atoms/cell      =            9
     number of atomic types    =            2
     number of electrons       =        48.00
     number of Kohn-Sham states=           24
     kinetic-energy cutoff     =     100.0000  Ry
     charge density cutoff     =     400.0000  Ry
     scf convergence threshold =      1.0E-07
     mixing beta               =       0.7000
     number of iterations used =            8  plain     mixing
     Exchange-correlation=  SLA  PW   PBX  PBC
                           (   1   4   3   4   0   0   0)

     celldm(1)=   9.285000  celldm(2)=   0.000000  celldm(3)=   1.100000
     celldm(4)=   0.000000  celldm(5)=   0.000000  celldm(6)=   0.000000

     crystal axes: (cart. coord. in units of alat)
               a(1) = (   1.000000   0.000000   0.000000 )  
               a(2) = (  -0.500000   0.866025   0.000000 )  
               a(3) = (   0.000000   0.000000   1.100000 )  

     reciprocal axes: (cart. coord. in units 2 pi/alat)
               b(1) = (  1.000000  0.577350 -0.000000 )  
               b(2) = (  0.000000  1.154701  0.000000 )  
               b(3) = (  0.000000 -0.000000  0.909091 )  


     PseudoPot. # 1 for Si read from file:
     ./Si.pbe-van_gipaw.UPF
     MD5 check sum: 907f546cb6949dd03cdbc0a9de4be0c7
     Pseudo is Ultrasoft, Zval =  4.0
     Generated by new atomic code, or converted to UPF format
     Using radial grid of 1141 points,  4 beta functions with: 
                l(1) =   0
                l(2) =   0
                l(3) =   1
                l(4) =   1
     Q(r) pseudized with 0 coefficients 


     PseudoPot. # 2 for O  read from file:
     ./O.pbe-van_gipaw.UPF
     MD5 check sum: 5ce2a047509d4f331db576c963e74b29
     Pseudo is Ultrasoft, Zval =  6.0
     Generated by new atomic code, or converted to UPF format
     Using radial grid of 1095 points,  4 beta functions with: 
                l(1) =   0
                l(2) =   0
                l(3) =   1
                l(4) =   1
     Q(r) pseudized with 0 coefficients 


     atomic species   valence    mass     pseudopotential
     Si                4.00    28.08600     Si( 1.00)
     O                 6.00    16.00000     O ( 1.00)

      6 Sym. Ops. (no inversion) found ( 4 have fractional translation)



   Cartesian axes

     site n.     atom                  positions (alat units)
         1        Si     tau(   1) = (  -0.2349350   0.4069194   0.3666663  )
         2        Si     tau(   2) = (   0.4698700   0.0000000   0.7333330  )
         3        Si     tau(   3) = (   0.2650650   0.4591060   1.0999996  )
         4        O      tau(   4) = (   0.2800500   0.2321814   0.8640500  )
         5        O      tau(   5) = (   0.6589000   0.1264397   0.4973833  )
         6        O      tau(   6) = (   0.5610500   0.5074043   0.1307167  )
         7        O      tau(   7) = (   0.0610500   0.3586211   0.2359500  )
         8        O      tau(   8) = (  -0.2199500   0.6338440   0.6026167  )
         9        O      tau(   9) = (   0.1589000   0.7395857   0.9692833  )

     number of k points=    13
                       cart. coord. in units 2pi/alat
        k(    1) = (   0.0000000   0.0000000   0.0000000), wk =   0.0312500
        k(    2) = (   0.0000000   0.0000000   0.2272727), wk =   0.0625000
        k(    3) = (   0.0000000   0.0000000  -0.4545455), wk =   0.0312500
        k(    4) = (   0.0000000   0.2886751   0.0000000), wk =   0.1875000
        k(    5) = (   0.0000000   0.2886751   0.2272727), wk =   0.1875000
        k(    6) = (   0.0000000   0.2886751  -0.4545455), wk =   0.1875000
        k(    7) = (   0.0000000  -0.5773503   0.0000000), wk =   0.0937500
        k(    8) = (   0.0000000  -0.5773503   0.2272727), wk =   0.1875000
        k(    9) = (   0.0000000  -0.5773503  -0.4545455), wk =   0.0937500
        k(   10) = (   0.2500000   0.4330127   0.0000000), wk =   0.1875000
        k(   11) = (   0.2500000   0.4330127   0.2272727), wk =   0.3750000
        k(   12) = (   0.2500000   0.4330127  -0.4545455), wk =   0.1875000
        k(   13) = (   0.0000000   0.2886751  -0.2272727), wk =   0.1875000

     Dense  grid:   103151 G-vectors     FFT dimensions: (  60,  60,  72)

     Estimated max dynamical RAM per process >       5.29 MB

     Estimated total dynamical RAM >     601.65 MB

     Initial potential from superposition of free atoms

     starting charge      45.3753, renormalised to      48.0000
     Starting wfcs are   60 randomized atomic wfcs

     total cpu time spent up to now is        1.2 secs

     per-process dynamical memory:    13.3 Mb

     Self-consistent Calculation

     iteration #  1     ecut=   100.00 Ry     beta= 0.70
     Davidson diagonalization with overlap
     ethr =  1.00E-02,  avg # of iterations =  3.0

     Threshold (ethr) on eigenvalues was too large:
     Diagonalizing with lowered threshold

     Davidson diagonalization with overlap
     ethr =  9.39E-04,  avg # of iterations =  2.0

     negative rho (up, down):  1.478E-03 0.000E+00

     total cpu time spent up to now is        1.6 secs

     total energy              =    -215.79293794 Ry
     estimated scf accuracy    <       0.44710230 Ry

     iteration #  2     ecut=   100.00 Ry     beta= 0.70
     Davidson diagonalization with overlap
     ethr =  9.31E-04,  avg # of iterations =  2.0

     negative rho (up, down):  9.008E-04 0.000E+00

     total cpu time spent up to now is        1.8 secs

     total energy              =    -215.91043090 Ry
     estimated scf accuracy    <       0.13488438 Ry

     iteration #  3     ecut=   100.00 Ry     beta= 0.70
     Davidson diagonalization with overlap
     ethr =  2.81E-04,  avg # of iterations =  2.0

     total cpu time spent up to now is        1.9 secs

     total energy              =    -215.93335157 Ry
     estimated scf accuracy    <       0.00456968 Ry

     iteration #  4     ecut=   100.00 Ry     beta= 0.70
     Davidson diagonalization with overlap
     ethr =  9.52E-06,  avg # of iterations =  3.2

     total cpu time spent up to now is        2.1 secs

     total energy              =    -215.93514738 Ry
     estimated scf accuracy    <       0.00158854 Ry

     iteration #  5     ecut=   100.00 Ry     beta= 0.70
     Davidson diagonalization with overlap
     ethr =  3.31E-06,  avg # of iterations =  2.0

     total cpu time spent up to now is        2.3 secs

     total energy              =    -215.93537398 Ry
     estimated scf accuracy    <       0.00008371 Ry

     iteration #  6     ecut=   100.00 Ry     beta= 0.70
     Davidson diagonalization with overlap
     ethr =  1.74E-07,  avg # of iterations =  4.0

     total cpu time spent up to now is        2.5 secs

     total energy              =    -215.93542803 Ry
     estimated scf accuracy    <       0.00001569 Ry

     iteration #  7     ecut=   100.00 Ry     beta= 0.70
     Davidson diagonalization with overlap
     ethr =  3.27E-08,  avg # of iterations =  2.0

     total cpu time spent up to now is        2.7 secs

     total energy              =    -215.93543080 Ry
     estimated scf accuracy    <       0.00000022 Ry

     iteration #  8     ecut=   100.00 Ry     beta= 0.70
     Davidson diagonalization with overlap
     ethr =  4.62E-10,  avg # of iterations =  5.2

     total cpu time spent up to now is        3.0 secs

     End of self-consistent calculation

          k = 0.0000 0.0000 0.0000 ( 12915 PWs)   bands (ev):

   -16.7727 -15.2342 -15.2342 -14.5905 -14.5446 -14.5446  -5.6921  -5.6921
    -2.9080  -2.8898  -2.7172  -2.7172  -0.3511  -0.3511  -0.0987   0.1546
     1.0851   1.0851   1.1136   1.5935   1.5935   1.9046   2.2693   2.2693

          k = 0.0000 0.0000 0.2273 ( 12873 PWs)   bands (ev):

   -16.6505 -15.7960 -14.7746 -14.5873 -14.5640 -14.5258  -6.4821  -4.6695
    -3.1329  -2.9978  -2.9584  -2.3503  -0.4124  -0.1237  -0.0134   0.3334
     0.8184   0.9729   1.0779   1.1073   1.5195   2.0558   2.3610   2.4875

          k = 0.0000 0.0000-0.4545 ( 12872 PWs)   bands (ev):

   -16.3041 -16.3041 -14.5923 -14.5784 -14.5784 -14.5178  -6.7819  -3.7288
    -3.7288  -3.0781  -3.0780  -2.1561  -0.1136  -0.1136  -0.0471   0.5823
     0.5823   0.7586   0.7586   1.0611   1.3832   2.3722   2.3722   2.4951

          k = 0.0000 0.2887 0.0000 ( 12874 PWs)   bands (ev):

   -16.5944 -15.4419 -15.2082 -14.6288 -14.5780 -14.5591  -5.7643  -5.3132
    -3.0164  -2.9446  -2.8536  -2.4255  -0.5292  -0.2282  -0.0520   0.4070
     0.5681   1.0024   1.0787   1.4999   1.5879   1.7507   2.3399   2.4297

          k = 0.0000 0.2887 0.2273 ( 12869 PWs)   bands (ev):

   -16.4913 -15.7647 -14.9985 -14.6172 -14.5757 -14.5587  -6.1496  -4.7261
    -3.4272  -2.9338  -2.6643  -2.3895  -0.5477  -0.0616  -0.0513   0.1899
     0.5575   1.0790   1.1364   1.2931   1.7236   1.7724   2.1877   2.5511

          k = 0.0000 0.2887-0.4545 ( 12894 PWs)   bands (ev):

   -16.2590 -16.1163 -14.8696 -14.6307 -14.5792 -14.5476  -6.3442  -4.1440
    -3.8137  -2.9079  -2.7960  -2.2705  -0.4105  -0.3943   0.1163   0.3468
     0.5030   1.0112   1.1070   1.2846   1.5067   2.1433   2.1706   2.4330

          k = 0.0000-0.5774 0.0000 ( 12884 PWs)   bands (ev):

   -16.2819 -15.8010 -15.1795 -14.6470 -14.6068 -14.5802  -5.8324  -4.8301
    -3.3586  -2.9150  -2.8948  -2.1188  -0.4704  -0.3017  -0.0955   0.2863
     0.5078   0.8455   0.9279   1.4810   1.5473   1.8006   2.3140   2.5458

          k = 0.0000-0.5774 0.2273 ( 12870 PWs)   bands (ev):

   -16.2482 -15.7844 -15.2480 -14.6506 -14.6093 -14.5697  -5.7621  -4.7735
    -3.6575  -2.8966  -2.6018  -2.2953  -0.5445  -0.4669   0.0723   0.2629
     0.6587   0.8318   1.1452   1.4224   1.6207   1.8641   2.1416   2.4644

          k = 0.0000-0.5774-0.4545 ( 12904 PWs)   bands (ev):

   -16.2109 -15.7670 -15.3167 -14.6720 -14.5908 -14.5670  -5.6854  -4.7148
    -3.8567  -2.7987  -2.5402  -2.4271  -0.6033  -0.5878   0.1556   0.4714
     0.4943   1.0329   1.3162   1.4414   1.7023   1.7582   1.9841   2.3904

          k = 0.2500 0.4330 0.0000 ( 12903 PWs)   bands (ev):

   -16.2907 -15.7754 -15.2057 -14.6435 -14.6034 -14.5778  -5.8621  -4.6956
    -3.6347  -2.8794  -2.7663  -2.1220  -0.4508  -0.2898  -0.1323   0.3990
     0.4678   0.8050   1.0816   1.2249   1.5163   1.9450   2.2753   2.5553

          k = 0.2500 0.4330 0.2273 ( 12869 PWs)   bands (ev):

   -16.2495 -15.7856 -15.2400 -14.6436 -14.6222 -14.5701  -5.7727  -4.6747
    -3.8172  -2.8596  -2.5794  -2.3032  -0.5868  -0.2989  -0.0922   0.3766
     0.6169   0.8271   1.1935   1.3757   1.6033   1.8994   2.1483   2.4271

          k = 0.2500 0.4330-0.4545 ( 12852 PWs)   bands (ev):

   -16.2007 -15.8050 -15.2713 -14.6660 -14.5927 -14.5897  -5.6701  -4.6696
    -3.9605  -2.7041  -2.6208  -2.4249  -0.6441  -0.4206   0.0213   0.4063
     0.6339   0.8631   1.4387   1.5299   1.6436   1.8716   2.0402   2.1947

          k = 0.0000 0.2887-0.2273 ( 12869 PWs)   bands (ev):

   -16.4891 -15.7751 -14.9738 -14.6186 -14.6016 -14.5483  -6.1472  -4.7251
    -3.4259  -2.9153  -2.6424  -2.4530  -0.5871  -0.1161   0.0092   0.3118
     0.6124   0.9646   1.0816   1.3146   1.6620   1.8490   2.2771   2.4693

     highest occupied level (ev):     2.5553

!    total energy              =    -215.93543108 Ry
     estimated scf accuracy    <       0.00000006 Ry

     The total energy is the sum of the following terms:
     one-electron contribution =    -103.42228415 Ry
     hartree contribution      =      77.24877365 Ry
     xc contribution           =     -50.79931697 Ry
     ewald contribution        =    -138.96260361 Ry

     convergence has been achieved in   8 iterations

     Writing all to output data dir ./quartz-scf-us/quartz.save/ :
     XML data file, charge density, pseudopotentials, collected wavefunctions

     init_run     :      0.67s CPU      0.73s WALL (       1 calls)
     electrons    :      1.66s CPU      1.93s WALL (       1 calls)

     Called by init_run:
     wfcinit      :      0.12s CPU      0.14s WALL (       1 calls)
     potinit      :      0.02s CPU      0.03s WALL (       1 calls)
     hinit0       :      0.47s CPU      0.48s WALL (       1 calls)

     Called by electrons:
     c_bands      :      1.33s CPU      1.41s WALL (       9 calls)
     sum_band     :      0.21s CPU      0.22s WALL (       9 calls)
     v_of_rho     :      0.08s CPU      0.09s WALL (       9 calls)
     newd         :      0.02s CPU      0.02s WALL (       9 calls)
     mix_rho      :      0.01s CPU      0.01s WALL (       9 calls)

     Called by c_bands:
     init_us_2    :      0.02s CPU      0.02s WALL (      76 calls)
     cegterg      :      1.27s CPU      1.34s WALL (      36 calls)

     Called by *egterg:
     cdiaghg      :      0.13s CPU      0.14s WALL (     138 calls)
     h_psi        :      1.09s CPU      1.15s WALL (     146 calls)
     s_psi        :      0.03s CPU      0.04s WALL (     146 calls)
     g_psi        :      0.00s CPU      0.00s WALL (     106 calls)

     Called by h_psi:
     h_psi:calbec :      0.05s CPU      0.06s WALL (     146 calls)
     vloc_psi     :      1.00s CPU      1.05s WALL (     146 calls)
     add_vuspsi   :      0.04s CPU      0.04s WALL (     146 calls)

     General routines
     calbec       :      0.07s CPU      0.07s WALL (     182 calls)
     fft          :      0.47s CPU      0.48s WALL (      99 calls)
     ffts         :      0.00s CPU      0.00s WALL (       9 calls)
     fftw         :      1.05s CPU      1.10s WALL (    6552 calls)

     Parallel routines

     PWSCF        :      2.78s CPU      3.31s WALL


   This run was terminated on:  14:30:26   3Feb2026            

=------------------------------------------------------------------------------=
   JOB DONE.
=------------------------------------------------------------------------------=
