
     Program PWSCF v.7.3.1 starts on  3Feb2026 at 14:30:34 

     This program is part of the open-source Quantum ESPRESSO suite
     for quantum simulation of materials; please cite
         "P. Giannozzi et al., J. Phys.:Condens. Matter 21 395502 (2009);
         "P. Giannozzi et al., J. Phys.:Condens. Matter 29 465901 (2017);
         "P. Giannozzi et al., J. Chem. Phys. 152 154105 (2020);
          URL http://www.quantum-espresso.org", 
     in publications or presentations arising from this work. More details at
     http://www.quantum-espresso.org/quote

     Parallel version (MPI), running on   128 processors

     MPI processes distributed on     1 nodes
     241125 MiB available memory on the printing compute node when the environment starts

     Waiting for input...
     Reading input from standard input

     Current dimensions of program PWSCF are:
     Max number of different atomic species (ntypx) = 10
     Max number of k-points (npk) =  40000
     Max angular momentum in pseudopotentials (lmaxx) =  4
     WARNING: atomic wfc #  2 for atom typeSi has zero norm
     WARNING: atomic wfc #  2 for atom typeO has zero norm
     WARNING: atomic wfc #  4 for atom typeO has zero norm
     WARNING: atomic wfc #  5 for atom typeO has zero norm

     K-points division:     npool     =       4
     R & G space division:  proc/nbgrp/npool/nimage =      32
     Subspace diagonalization in iterative solution of the eigenvalue problem:
     a serial algorithm will be used


     Parallelization info
     --------------------
     sticks:   dense  smooth     PW     G-vecs:    dense   smooth      PW
     Min          80      80     22                 3704     3704     532
     Max          81      81     23                 3713     3713     535
     Sum        2587    2587    721               118719   118719   17051

     Using Slab Decomposition



     bravais-lattice index     =            4
     lattice parameter (alat)  =       9.2850  a.u.
     unit-cell volume          =     762.5513 (a.u.)^3
     number of atoms/cell      =            9
     number of atomic types    =            2
     number of electrons       =        48.00
     number of Kohn-Sham states=           24
     kinetic-energy cutoff     =     110.0000  Ry
     charge density cutoff     =     440.0000  Ry
     scf convergence threshold =      1.0E-07
     mixing beta               =       0.7000
     number of iterations used =            8  plain     mixing
     Exchange-correlation=  SLA  PW   PBX  PBC
                           (   1   4   3   4   0   0   0)

     celldm(1)=   9.285000  celldm(2)=   0.000000  celldm(3)=   1.100000
     celldm(4)=   0.000000  celldm(5)=   0.000000  celldm(6)=   0.000000

     crystal axes: (cart. coord. in units of alat)
               a(1) = (   1.000000   0.000000   0.000000 )  
               a(2) = (  -0.500000   0.866025   0.000000 )  
               a(3) = (   0.000000   0.000000   1.100000 )  

     reciprocal axes: (cart. coord. in units 2 pi/alat)
               b(1) = (  1.000000  0.577350 -0.000000 )  
               b(2) = (  0.000000  1.154701  0.000000 )  
               b(3) = (  0.000000 -0.000000  0.909091 )  


     PseudoPot. # 1 for Si read from file:
     ./Si.pbe-van_gipaw.UPF
     MD5 check sum: 907f546cb6949dd03cdbc0a9de4be0c7
     Pseudo is Ultrasoft, Zval =  4.0
     Generated by new atomic code, or converted to UPF format
     Using radial grid of 1141 points,  4 beta functions with: 
                l(1) =   0
                l(2) =   0
                l(3) =   1
                l(4) =   1
     Q(r) pseudized with 0 coefficients 


     PseudoPot. # 2 for O  read from file:
     ./O.pbe-van_gipaw.UPF
     MD5 check sum: 5ce2a047509d4f331db576c963e74b29
     Pseudo is Ultrasoft, Zval =  6.0
     Generated by new atomic code, or converted to UPF format
     Using radial grid of 1095 points,  4 beta functions with: 
                l(1) =   0
                l(2) =   0
                l(3) =   1
                l(4) =   1
     Q(r) pseudized with 0 coefficients 


     atomic species   valence    mass     pseudopotential
     Si                4.00    28.08600     Si( 1.00)
     O                 6.00    16.00000     O ( 1.00)

      6 Sym. Ops. (no inversion) found ( 4 have fractional translation)



   Cartesian axes

     site n.     atom                  positions (alat units)
         1        Si     tau(   1) = (  -0.2349350   0.4069194   0.3666663  )
         2        Si     tau(   2) = (   0.4698700   0.0000000   0.7333330  )
         3        Si     tau(   3) = (   0.2650650   0.4591060   1.0999996  )
         4        O      tau(   4) = (   0.2800500   0.2321814   0.8640500  )
         5        O      tau(   5) = (   0.6589000   0.1264397   0.4973833  )
         6        O      tau(   6) = (   0.5610500   0.5074043   0.1307167  )
         7        O      tau(   7) = (   0.0610500   0.3586211   0.2359500  )
         8        O      tau(   8) = (  -0.2199500   0.6338440   0.6026167  )
         9        O      tau(   9) = (   0.1589000   0.7395857   0.9692833  )

     number of k points=    13
                       cart. coord. in units 2pi/alat
        k(    1) = (   0.0000000   0.0000000   0.0000000), wk =   0.0312500
        k(    2) = (   0.0000000   0.0000000   0.2272727), wk =   0.0625000
        k(    3) = (   0.0000000   0.0000000  -0.4545455), wk =   0.0312500
        k(    4) = (   0.0000000   0.2886751   0.0000000), wk =   0.1875000
        k(    5) = (   0.0000000   0.2886751   0.2272727), wk =   0.1875000
        k(    6) = (   0.0000000   0.2886751  -0.4545455), wk =   0.1875000
        k(    7) = (   0.0000000  -0.5773503   0.0000000), wk =   0.0937500
        k(    8) = (   0.0000000  -0.5773503   0.2272727), wk =   0.1875000
        k(    9) = (   0.0000000  -0.5773503  -0.4545455), wk =   0.0937500
        k(   10) = (   0.2500000   0.4330127   0.0000000), wk =   0.1875000
        k(   11) = (   0.2500000   0.4330127   0.2272727), wk =   0.3750000
        k(   12) = (   0.2500000   0.4330127  -0.4545455), wk =   0.1875000
        k(   13) = (   0.0000000   0.2886751  -0.2272727), wk =   0.1875000

     Dense  grid:   118719 G-vectors     FFT dimensions: (  64,  64,  72)

     Estimated max dynamical RAM per process >       5.97 MB

     Estimated total dynamical RAM >     677.51 MB

     Initial potential from superposition of free atoms

     starting charge      45.3753, renormalised to      48.0000
     Starting wfcs are   60 randomized atomic wfcs

     total cpu time spent up to now is        1.2 secs

     per-process dynamical memory:    13.7 Mb

     Self-consistent Calculation

     iteration #  1     ecut=   110.00 Ry     beta= 0.70
     Davidson diagonalization with overlap
     ethr =  1.00E-02,  avg # of iterations =  3.0

     Threshold (ethr) on eigenvalues was too large:
     Diagonalizing with lowered threshold

     Davidson diagonalization with overlap
     ethr =  9.39E-04,  avg # of iterations =  2.0

     negative rho (up, down):  1.469E-03 0.000E+00

     total cpu time spent up to now is        1.6 secs

     total energy              =    -215.79296976 Ry
     estimated scf accuracy    <       0.44717199 Ry

     iteration #  2     ecut=   110.00 Ry     beta= 0.70
     Davidson diagonalization with overlap
     ethr =  9.32E-04,  avg # of iterations =  2.0

     negative rho (up, down):  8.728E-04 0.000E+00

     total cpu time spent up to now is        1.8 secs

     total energy              =    -215.91059834 Ry
     estimated scf accuracy    <       0.13495801 Ry

     iteration #  3     ecut=   110.00 Ry     beta= 0.70
     Davidson diagonalization with overlap
     ethr =  2.81E-04,  avg # of iterations =  2.0

     total cpu time spent up to now is        1.9 secs

     total energy              =    -215.93347784 Ry
     estimated scf accuracy    <       0.00456932 Ry

     iteration #  4     ecut=   110.00 Ry     beta= 0.70
     Davidson diagonalization with overlap
     ethr =  9.52E-06,  avg # of iterations =  3.2

     total cpu time spent up to now is        2.1 secs

     total energy              =    -215.93529099 Ry
     estimated scf accuracy    <       0.00160175 Ry

     iteration #  5     ecut=   110.00 Ry     beta= 0.70
     Davidson diagonalization with overlap
     ethr =  3.34E-06,  avg # of iterations =  2.0

     total cpu time spent up to now is        2.3 secs

     total energy              =    -215.93551543 Ry
     estimated scf accuracy    <       0.00008890 Ry

     iteration #  6     ecut=   110.00 Ry     beta= 0.70
     Davidson diagonalization with overlap
     ethr =  1.85E-07,  avg # of iterations =  3.9

     total cpu time spent up to now is        2.5 secs

     total energy              =    -215.93557172 Ry
     estimated scf accuracy    <       0.00001711 Ry

     iteration #  7     ecut=   110.00 Ry     beta= 0.70
     Davidson diagonalization with overlap
     ethr =  3.57E-08,  avg # of iterations =  2.1

     total cpu time spent up to now is        2.7 secs

     total energy              =    -215.93557437 Ry
     estimated scf accuracy    <       0.00000051 Ry

     iteration #  8     ecut=   110.00 Ry     beta= 0.70
     Davidson diagonalization with overlap
     ethr =  1.06E-09,  avg # of iterations =  4.9

     total cpu time spent up to now is        3.0 secs

     End of self-consistent calculation

          k = 0.0000 0.0000 0.0000 ( 14867 PWs)   bands (ev):

   -16.7726 -15.2341 -15.2341 -14.5903 -14.5445 -14.5445  -5.6921  -5.6921
    -2.9081  -2.8899  -2.7173  -2.7173  -0.3512  -0.3512  -0.0989   0.1545
     1.0849   1.0849   1.1136   1.5933   1.5933   1.9045   2.2692   2.2692

          k = 0.0000 0.0000 0.2273 ( 14830 PWs)   bands (ev):

   -16.6504 -15.7959 -14.7744 -14.5871 -14.5638 -14.5257  -6.4821  -4.6696
    -3.1330  -2.9979  -2.9585  -2.3503  -0.4125  -0.1238  -0.0136   0.3332
     0.8184   0.9727   1.0777   1.1071   1.5193   2.0557   2.3607   2.4873

          k = 0.0000 0.0000-0.4545 ( 14914 PWs)   bands (ev):

   -16.3040 -16.3040 -14.5921 -14.5782 -14.5782 -14.5176  -6.7820  -3.7289
    -3.7289  -3.0781  -3.0781  -2.1562  -0.1137  -0.1137  -0.0472   0.5821
     0.5821   0.7585   0.7585   1.0609   1.3831   2.3721   2.3721   2.4949

          k = 0.0000 0.2887 0.0000 ( 14859 PWs)   bands (ev):

   -16.5943 -15.4417 -15.2081 -14.6287 -14.5779 -14.5589  -5.7643  -5.3132
    -3.0165  -2.9447  -2.8537  -2.4256  -0.5293  -0.2283  -0.0522   0.4068
     0.5679   1.0023   1.0785   1.4997   1.5877   1.7505   2.3398   2.4296

          k = 0.0000 0.2887 0.2273 ( 14861 PWs)   bands (ev):

   -16.4912 -15.7646 -14.9984 -14.6171 -14.5755 -14.5585  -6.1497  -4.7262
    -3.4272  -2.9339  -2.6644  -2.3896  -0.5478  -0.0617  -0.0514   0.1898
     0.5573   1.0788   1.1363   1.2929   1.7234   1.7723   2.1875   2.5510

          k = 0.0000 0.2887-0.4545 ( 14890 PWs)   bands (ev):

   -16.2589 -16.1162 -14.8695 -14.6305 -14.5790 -14.5474  -6.3443  -4.1441
    -3.8138  -2.9080  -2.7961  -2.2706  -0.4106  -0.3944   0.1162   0.3466
     0.5028   1.0110   1.1069   1.2844   1.5066   2.1431   2.1705   2.4328

          k = 0.0000-0.5774 0.0000 ( 14826 PWs)   bands (ev):

   -16.2817 -15.8009 -15.1794 -14.6468 -14.6066 -14.5800  -5.8325  -4.8302
    -3.3586  -2.9151  -2.8949  -2.1189  -0.4705  -0.3019  -0.0956   0.2862
     0.5076   0.8454   0.9278   1.4808   1.5471   1.8004   2.3138   2.5456

          k = 0.0000-0.5774 0.2273 ( 14852 PWs)   bands (ev):

   -16.2481 -15.7843 -15.2479 -14.6504 -14.6092 -14.5695  -5.7621  -4.7736
    -3.6576  -2.8967  -2.6019  -2.2954  -0.5446  -0.4670   0.0721   0.2628
     0.6585   0.8317   1.1450   1.4223   1.6205   1.8639   2.1414   2.4643

          k = 0.0000-0.5774-0.4545 ( 14820 PWs)   bands (ev):

   -16.2108 -15.7668 -15.3165 -14.6718 -14.5906 -14.5668  -5.6855  -4.7149
    -3.8567  -2.7988  -2.5403  -2.4272  -0.6034  -0.5879   0.1554   0.4714
     0.4941   1.0328   1.3161   1.4411   1.7021   1.7580   1.9839   2.3902

          k = 0.2500 0.4330 0.0000 ( 14843 PWs)   bands (ev):

   -16.2906 -15.7753 -15.2055 -14.6433 -14.6032 -14.5776  -5.8621  -4.6957
    -3.6348  -2.8795  -2.7664  -2.1221  -0.4509  -0.2899  -0.1324   0.3988
     0.4677   0.8048   1.0815   1.2248   1.5161   1.9448   2.2751   2.5550

          k = 0.2500 0.4330 0.2273 ( 14844 PWs)   bands (ev):

   -16.2494 -15.7854 -15.2398 -14.6434 -14.6220 -14.5699  -5.7727  -4.6748
    -3.8172  -2.8597  -2.5795  -2.3033  -0.5869  -0.2990  -0.0923   0.3764
     0.6167   0.8269   1.1934   1.3756   1.6031   1.8993   2.1481   2.4269

          k = 0.2500 0.4330-0.4545 ( 14834 PWs)   bands (ev):

   -16.2006 -15.8049 -15.2711 -14.6658 -14.5925 -14.5896  -5.6701  -4.6697
    -3.9606  -2.7042  -2.6209  -2.4250  -0.6442  -0.4207   0.0211   0.4062
     0.6337   0.8630   1.4385   1.5298   1.6434   1.8714   2.0400   2.1945

          k = 0.0000 0.2887-0.2273 ( 14861 PWs)   bands (ev):

   -16.4890 -15.7750 -14.9737 -14.6185 -14.6014 -14.5481  -6.1472  -4.7252
    -3.4260  -2.9153  -2.6425  -2.4530  -0.5872  -0.1163   0.0091   0.3116
     0.6122   0.9644   1.0814   1.3145   1.6618   1.8488   2.2769   2.4692

     highest occupied level (ev):     2.5550

!    total energy              =    -215.93557479 Ry
     estimated scf accuracy    <       0.00000008 Ry

     The total energy is the sum of the following terms:
     one-electron contribution =    -103.42266925 Ry
     hartree contribution      =      77.24925717 Ry
     xc contribution           =     -50.79955910 Ry
     ewald contribution        =    -138.96260361 Ry

     convergence has been achieved in   8 iterations

     Writing all to output data dir ./quartz-scf-us/quartz.save/ :
     XML data file, charge density, pseudopotentials, collected wavefunctions

     init_run     :      0.60s CPU      0.66s WALL (       1 calls)
     electrons    :      1.73s CPU      1.84s WALL (       1 calls)

     Called by init_run:
     wfcinit      :      0.13s CPU      0.15s WALL (       1 calls)
     potinit      :      0.02s CPU      0.03s WALL (       1 calls)
     hinit0       :      0.38s CPU      0.39s WALL (       1 calls)

     Called by electrons:
     c_bands      :      1.38s CPU      1.43s WALL (       9 calls)
     sum_band     :      0.23s CPU      0.23s WALL (       9 calls)
     v_of_rho     :      0.08s CPU      0.09s WALL (       9 calls)
     newd         :      0.03s CPU      0.03s WALL (       9 calls)
     mix_rho      :      0.01s CPU      0.01s WALL (       9 calls)

     Called by c_bands:
     init_us_2    :      0.02s CPU      0.02s WALL (      76 calls)
     cegterg      :      1.32s CPU      1.37s WALL (      36 calls)

     Called by *egterg:
     cdiaghg      :      0.13s CPU      0.14s WALL (     137 calls)
     h_psi        :      1.12s CPU      1.16s WALL (     145 calls)
     s_psi        :      0.04s CPU      0.04s WALL (     145 calls)
     g_psi        :      0.00s CPU      0.00s WALL (     105 calls)

     Called by h_psi:
     h_psi:calbec :      0.06s CPU      0.06s WALL (     145 calls)
     vloc_psi     :      1.01s CPU      1.05s WALL (     145 calls)
     add_vuspsi   :      0.04s CPU      0.04s WALL (     145 calls)

     General routines
     calbec       :      0.07s CPU      0.08s WALL (     181 calls)
     fft          :      0.38s CPU      0.39s WALL (      99 calls)
     ffts         :      0.00s CPU      0.00s WALL (       9 calls)
     fftw         :      1.06s CPU      1.09s WALL (    6514 calls)

     Parallel routines

     PWSCF        :      2.83s CPU      3.25s WALL


   This run was terminated on:  14:30:38   3Feb2026            

=------------------------------------------------------------------------------=
   JOB DONE.
=------------------------------------------------------------------------------=
