
     Program PWSCF v.7.3.1 starts on  3Feb2026 at 14:30:54 

     This program is part of the open-source Quantum ESPRESSO suite
     for quantum simulation of materials; please cite
         "P. Giannozzi et al., J. Phys.:Condens. Matter 21 395502 (2009);
         "P. Giannozzi et al., J. Phys.:Condens. Matter 29 465901 (2017);
         "P. Giannozzi et al., J. Chem. Phys. 152 154105 (2020);
          URL http://www.quantum-espresso.org", 
     in publications or presentations arising from this work. More details at
     http://www.quantum-espresso.org/quote

     Parallel version (MPI), running on   128 processors

     MPI processes distributed on     1 nodes
     241043 MiB available memory on the printing compute node when the environment starts

     Waiting for input...
     Reading input from standard input

     Current dimensions of program PWSCF are:
     Max number of different atomic species (ntypx) = 10
     Max number of k-points (npk) =  40000
     Max angular momentum in pseudopotentials (lmaxx) =  4
     WARNING: atomic wfc #  2 for atom typeSi has zero norm
     WARNING: atomic wfc #  2 for atom typeO has zero norm
     WARNING: atomic wfc #  4 for atom typeO has zero norm
     WARNING: atomic wfc #  5 for atom typeO has zero norm

     K-points division:     npool     =       4
     R & G space division:  proc/nbgrp/npool/nimage =      32
     Subspace diagonalization in iterative solution of the eigenvalue problem:
     a serial algorithm will be used


     Parallelization info
     --------------------
     sticks:   dense  smooth     PW     G-vecs:    dense   smooth      PW
     Min          89      89     24                 4231     4231     604
     Max          90      90     25                 4234     4234     609
     Sum        2857    2857    769               135455   135455   19357

     Using Slab Decomposition



     bravais-lattice index     =            4
     lattice parameter (alat)  =       9.2850  a.u.
     unit-cell volume          =     762.5513 (a.u.)^3
     number of atoms/cell      =            9
     number of atomic types    =            2
     number of electrons       =        48.00
     number of Kohn-Sham states=           24
     kinetic-energy cutoff     =     120.0000  Ry
     charge density cutoff     =     480.0000  Ry
     scf convergence threshold =      1.0E-07
     mixing beta               =       0.7000
     number of iterations used =            8  plain     mixing
     Exchange-correlation=  SLA  PW   PBX  PBC
                           (   1   4   3   4   0   0   0)

     celldm(1)=   9.285000  celldm(2)=   0.000000  celldm(3)=   1.100000
     celldm(4)=   0.000000  celldm(5)=   0.000000  celldm(6)=   0.000000

     crystal axes: (cart. coord. in units of alat)
               a(1) = (   1.000000   0.000000   0.000000 )  
               a(2) = (  -0.500000   0.866025   0.000000 )  
               a(3) = (   0.000000   0.000000   1.100000 )  

     reciprocal axes: (cart. coord. in units 2 pi/alat)
               b(1) = (  1.000000  0.577350 -0.000000 )  
               b(2) = (  0.000000  1.154701  0.000000 )  
               b(3) = (  0.000000 -0.000000  0.909091 )  


     PseudoPot. # 1 for Si read from file:
     ./Si.pbe-van_gipaw.UPF
     MD5 check sum: 907f546cb6949dd03cdbc0a9de4be0c7
     Pseudo is Ultrasoft, Zval =  4.0
     Generated by new atomic code, or converted to UPF format
     Using radial grid of 1141 points,  4 beta functions with: 
                l(1) =   0
                l(2) =   0
                l(3) =   1
                l(4) =   1
     Q(r) pseudized with 0 coefficients 


     PseudoPot. # 2 for O  read from file:
     ./O.pbe-van_gipaw.UPF
     MD5 check sum: 5ce2a047509d4f331db576c963e74b29
     Pseudo is Ultrasoft, Zval =  6.0
     Generated by new atomic code, or converted to UPF format
     Using radial grid of 1095 points,  4 beta functions with: 
                l(1) =   0
                l(2) =   0
                l(3) =   1
                l(4) =   1
     Q(r) pseudized with 0 coefficients 


     atomic species   valence    mass     pseudopotential
     Si                4.00    28.08600     Si( 1.00)
     O                 6.00    16.00000     O ( 1.00)

      6 Sym. Ops. (no inversion) found ( 4 have fractional translation)



   Cartesian axes

     site n.     atom                  positions (alat units)
         1        Si     tau(   1) = (  -0.2349350   0.4069194   0.3666663  )
         2        Si     tau(   2) = (   0.4698700   0.0000000   0.7333330  )
         3        Si     tau(   3) = (   0.2650650   0.4591060   1.0999996  )
         4        O      tau(   4) = (   0.2800500   0.2321814   0.8640500  )
         5        O      tau(   5) = (   0.6589000   0.1264397   0.4973833  )
         6        O      tau(   6) = (   0.5610500   0.5074043   0.1307167  )
         7        O      tau(   7) = (   0.0610500   0.3586211   0.2359500  )
         8        O      tau(   8) = (  -0.2199500   0.6338440   0.6026167  )
         9        O      tau(   9) = (   0.1589000   0.7395857   0.9692833  )

     number of k points=    13
                       cart. coord. in units 2pi/alat
        k(    1) = (   0.0000000   0.0000000   0.0000000), wk =   0.0312500
        k(    2) = (   0.0000000   0.0000000   0.2272727), wk =   0.0625000
        k(    3) = (   0.0000000   0.0000000  -0.4545455), wk =   0.0312500
        k(    4) = (   0.0000000   0.2886751   0.0000000), wk =   0.1875000
        k(    5) = (   0.0000000   0.2886751   0.2272727), wk =   0.1875000
        k(    6) = (   0.0000000   0.2886751  -0.4545455), wk =   0.1875000
        k(    7) = (   0.0000000  -0.5773503   0.0000000), wk =   0.0937500
        k(    8) = (   0.0000000  -0.5773503   0.2272727), wk =   0.1875000
        k(    9) = (   0.0000000  -0.5773503  -0.4545455), wk =   0.0937500
        k(   10) = (   0.2500000   0.4330127   0.0000000), wk =   0.1875000
        k(   11) = (   0.2500000   0.4330127   0.2272727), wk =   0.3750000
        k(   12) = (   0.2500000   0.4330127  -0.4545455), wk =   0.1875000
        k(   13) = (   0.0000000   0.2886751  -0.2272727), wk =   0.1875000

     Dense  grid:   135455 G-vectors     FFT dimensions: (  72,  72,  72)

     Estimated max dynamical RAM per process >       6.80 MB

     Estimated total dynamical RAM >     771.27 MB

     Initial potential from superposition of free atoms

     starting charge      45.3753, renormalised to      48.0000
     Starting wfcs are   60 randomized atomic wfcs

     total cpu time spent up to now is        1.4 secs

     per-process dynamical memory:    14.8 Mb

     Self-consistent Calculation

     iteration #  1     ecut=   120.00 Ry     beta= 0.70
     Davidson diagonalization with overlap
     ethr =  1.00E-02,  avg # of iterations =  3.0

     Threshold (ethr) on eigenvalues was too large:
     Diagonalizing with lowered threshold

     Davidson diagonalization with overlap
     ethr =  9.39E-04,  avg # of iterations =  2.0

     negative rho (up, down):  1.400E-03 0.000E+00

     total cpu time spent up to now is        1.9 secs

     total energy              =    -215.79322508 Ry
     estimated scf accuracy    <       0.44691772 Ry

     iteration #  2     ecut=   120.00 Ry     beta= 0.70
     Davidson diagonalization with overlap
     ethr =  9.31E-04,  avg # of iterations =  2.0

     negative rho (up, down):  8.695E-04 0.000E+00

     total cpu time spent up to now is        2.1 secs

     total energy              =    -215.91066590 Ry
     estimated scf accuracy    <       0.13478424 Ry

     iteration #  3     ecut=   120.00 Ry     beta= 0.70
     Davidson diagonalization with overlap
     ethr =  2.81E-04,  avg # of iterations =  2.0

     total cpu time spent up to now is        2.3 secs

     total energy              =    -215.93352309 Ry
     estimated scf accuracy    <       0.00457046 Ry

     iteration #  4     ecut=   120.00 Ry     beta= 0.70
     Davidson diagonalization with overlap
     ethr =  9.52E-06,  avg # of iterations =  3.2

     total cpu time spent up to now is        2.6 secs

     total energy              =    -215.93535425 Ry
     estimated scf accuracy    <       0.00160927 Ry

     iteration #  5     ecut=   120.00 Ry     beta= 0.70
     Davidson diagonalization with overlap
     ethr =  3.35E-06,  avg # of iterations =  2.0

     total cpu time spent up to now is        2.8 secs

     total energy              =    -215.93558383 Ry
     estimated scf accuracy    <       0.00008835 Ry

     iteration #  6     ecut=   120.00 Ry     beta= 0.70
     Davidson diagonalization with overlap
     ethr =  1.84E-07,  avg # of iterations =  3.9

     total cpu time spent up to now is        3.1 secs

     total energy              =    -215.93564163 Ry
     estimated scf accuracy    <       0.00001686 Ry

     iteration #  7     ecut=   120.00 Ry     beta= 0.70
     Davidson diagonalization with overlap
     ethr =  3.51E-08,  avg # of iterations =  2.2

     total cpu time spent up to now is        3.3 secs

     total energy              =    -215.93564438 Ry
     estimated scf accuracy    <       0.00000054 Ry

     iteration #  8     ecut=   120.00 Ry     beta= 0.70
     Davidson diagonalization with overlap
     ethr =  1.11E-09,  avg # of iterations =  4.8

     total cpu time spent up to now is        3.6 secs

     End of self-consistent calculation

          k = 0.0000 0.0000 0.0000 ( 16883 PWs)   bands (ev):

   -16.7727 -15.2341 -15.2341 -14.5902 -14.5444 -14.5444  -5.6921  -5.6921
    -2.9080  -2.8899  -2.7172  -2.7172  -0.3511  -0.3511  -0.0988   0.1546
     1.0851   1.0851   1.1137   1.5935   1.5935   1.9046   2.2693   2.2693

          k = 0.0000 0.0000 0.2273 ( 16926 PWs)   bands (ev):

   -16.6504 -15.7959 -14.7743 -14.5870 -14.5637 -14.5256  -6.4822  -4.6695
    -3.1330  -2.9978  -2.9585  -2.3503  -0.4124  -0.1237  -0.0134   0.3333
     0.8185   0.9728   1.0778   1.1073   1.5195   2.0558   2.3609   2.4875

          k = 0.0000 0.0000-0.4545 ( 16884 PWs)   bands (ev):

   -16.3040 -16.3040 -14.5920 -14.5781 -14.5781 -14.5175  -6.7821  -3.7289
    -3.7289  -3.0781  -3.0781  -2.1561  -0.1136  -0.1136  -0.0471   0.5823
     0.5823   0.7586   0.7586   1.0611   1.3832   2.3722   2.3722   2.4951

          k = 0.0000 0.2887 0.0000 ( 16912 PWs)   bands (ev):

   -16.5943 -15.4417 -15.2080 -14.6286 -14.5778 -14.5588  -5.7643  -5.3132
    -3.0164  -2.9447  -2.8536  -2.4255  -0.5292  -0.2282  -0.0521   0.4069
     0.5681   1.0024   1.0787   1.4999   1.5878   1.7507   2.3399   2.4297

          k = 0.0000 0.2887 0.2273 ( 16925 PWs)   bands (ev):

   -16.4913 -15.7646 -14.9983 -14.6170 -14.5754 -14.5585  -6.1497  -4.7262
    -3.4272  -2.9339  -2.6643  -2.3895  -0.5477  -0.0616  -0.0513   0.1899
     0.5575   1.0790   1.1364   1.2931   1.7236   1.7724   2.1877   2.5511

          k = 0.0000 0.2887-0.4545 ( 16958 PWs)   bands (ev):

   -16.2590 -16.1162 -14.8694 -14.6304 -14.5790 -14.5473  -6.3443  -4.1441
    -3.8137  -2.9079  -2.7960  -2.2705  -0.4105  -0.3943   0.1163   0.3468
     0.5029   1.0112   1.1070   1.2846   1.5067   2.1432   2.1706   2.4330

          k = 0.0000-0.5774 0.0000 ( 16932 PWs)   bands (ev):

   -16.2818 -15.8009 -15.1793 -14.6467 -14.6065 -14.5799  -5.8325  -4.8302
    -3.3586  -2.9151  -2.8949  -2.1189  -0.4703  -0.3017  -0.0955   0.2863
     0.5078   0.8455   0.9279   1.4810   1.5472   1.8006   2.3140   2.5457

          k = 0.0000-0.5774 0.2273 ( 16944 PWs)   bands (ev):

   -16.2482 -15.7843 -15.2479 -14.6504 -14.6091 -14.5694  -5.7621  -4.7736
    -3.6576  -2.8967  -2.6018  -2.2953  -0.5445  -0.4669   0.0723   0.2629
     0.6586   0.8318   1.1452   1.4224   1.6207   1.8641   2.1416   2.4644

          k = 0.0000-0.5774-0.4545 ( 16964 PWs)   bands (ev):

   -16.2109 -15.7669 -15.3165 -14.6717 -14.5905 -14.5667  -5.6855  -4.7148
    -3.8567  -2.7987  -2.5402  -2.4271  -0.6033  -0.5878   0.1556   0.4714
     0.4943   1.0329   1.3162   1.4413   1.7023   1.7582   1.9840   2.3904

          k = 0.2500 0.4330 0.0000 ( 16930 PWs)   bands (ev):

   -16.2906 -15.7753 -15.2055 -14.6432 -14.6031 -14.5775  -5.8621  -4.6956
    -3.6348  -2.8795  -2.7663  -2.1220  -0.4508  -0.2898  -0.1323   0.3990
     0.4678   0.8050   1.0816   1.2249   1.5162   1.9450   2.2753   2.5552

          k = 0.2500 0.4330 0.2273 ( 16929 PWs)   bands (ev):

   -16.2495 -15.7854 -15.2398 -14.6433 -14.6220 -14.5698  -5.7727  -4.6748
    -3.8172  -2.8596  -2.5795  -2.3032  -0.5868  -0.2989  -0.0922   0.3766
     0.6168   0.8271   1.1935   1.3757   1.6033   1.8994   2.1483   2.4271

          k = 0.2500 0.4330-0.4545 ( 16894 PWs)   bands (ev):

   -16.2006 -15.8049 -15.2711 -14.6657 -14.5924 -14.5895  -5.6702  -4.6696
    -3.9605  -2.7042  -2.6208  -2.4249  -0.6441  -0.4206   0.0213   0.4063
     0.6339   0.8631   1.4387   1.5299   1.6435   1.8716   2.0402   2.1947

          k = 0.0000 0.2887-0.2273 ( 16925 PWs)   bands (ev):

   -16.4891 -15.7750 -14.9736 -14.6184 -14.6013 -14.5480  -6.1473  -4.7251
    -3.4260  -2.9153  -2.6424  -2.4530  -0.5871  -0.1161   0.0092   0.3117
     0.6124   0.9645   1.0816   1.3146   1.6620   1.8490   2.2770   2.4693

     highest occupied level (ev):     2.5552

!    total energy              =    -215.93564485 Ry
     estimated scf accuracy    <       0.00000004 Ry

     The total energy is the sum of the following terms:
     one-electron contribution =    -103.42217958 Ry
     hartree contribution      =      77.24853247 Ry
     xc contribution           =     -50.79939412 Ry
     ewald contribution        =    -138.96260361 Ry

     convergence has been achieved in   8 iterations

     Writing all to output data dir ./quartz-scf-us/quartz.save/ :
     XML data file, charge density, pseudopotentials, collected wavefunctions

     init_run     :      0.83s CPU      0.90s WALL (       1 calls)
     electrons    :      2.08s CPU      2.39s WALL (       1 calls)

     Called by init_run:
     wfcinit      :      0.16s CPU      0.17s WALL (       1 calls)
     potinit      :      0.02s CPU      0.04s WALL (       1 calls)
     hinit0       :      0.58s CPU      0.60s WALL (       1 calls)

     Called by electrons:
     c_bands      :      1.66s CPU      1.75s WALL (       9 calls)
     sum_band     :      0.27s CPU      0.29s WALL (       9 calls)
     v_of_rho     :      0.09s CPU      0.11s WALL (       9 calls)
     newd         :      0.03s CPU      0.03s WALL (       9 calls)
     mix_rho      :      0.01s CPU      0.01s WALL (       9 calls)

     Called by c_bands:
     init_us_2    :      0.02s CPU      0.02s WALL (      76 calls)
     cegterg      :      1.60s CPU      1.68s WALL (      36 calls)

     Called by *egterg:
     cdiaghg      :      0.13s CPU      0.14s WALL (     135 calls)
     h_psi        :      1.42s CPU      1.48s WALL (     143 calls)
     s_psi        :      0.04s CPU      0.05s WALL (     143 calls)
     g_psi        :      0.00s CPU      0.00s WALL (     103 calls)

     Called by h_psi:
     h_psi:calbec :      0.07s CPU      0.07s WALL (     143 calls)
     vloc_psi     :      1.30s CPU      1.36s WALL (     143 calls)
     add_vuspsi   :      0.05s CPU      0.05s WALL (     143 calls)

     General routines
     calbec       :      0.08s CPU      0.08s WALL (     179 calls)
     fft          :      0.59s CPU      0.60s WALL (      99 calls)
     ffts         :      0.00s CPU      0.00s WALL (       9 calls)
     fftw         :      1.35s CPU      1.41s WALL (    6500 calls)

     Parallel routines

     PWSCF        :      3.40s CPU      4.31s WALL


   This run was terminated on:  14:30:59   3Feb2026            

=------------------------------------------------------------------------------=
   JOB DONE.
=------------------------------------------------------------------------------=
