
     Program PWSCF v.7.3.1 starts on  3Feb2026 at 14:31: 9 

     This program is part of the open-source Quantum ESPRESSO suite
     for quantum simulation of materials; please cite
         "P. Giannozzi et al., J. Phys.:Condens. Matter 21 395502 (2009);
         "P. Giannozzi et al., J. Phys.:Condens. Matter 29 465901 (2017);
         "P. Giannozzi et al., J. Chem. Phys. 152 154105 (2020);
          URL http://www.quantum-espresso.org", 
     in publications or presentations arising from this work. More details at
     http://www.quantum-espresso.org/quote

     Parallel version (MPI), running on   128 processors

     MPI processes distributed on     1 nodes
     240998 MiB available memory on the printing compute node when the environment starts

     Waiting for input...
     Reading input from standard input

     Current dimensions of program PWSCF are:
     Max number of different atomic species (ntypx) = 10
     Max number of k-points (npk) =  40000
     Max angular momentum in pseudopotentials (lmaxx) =  4
     WARNING: atomic wfc #  2 for atom typeSi has zero norm
     WARNING: atomic wfc #  2 for atom typeO has zero norm
     WARNING: atomic wfc #  4 for atom typeO has zero norm
     WARNING: atomic wfc #  5 for atom typeO has zero norm

     K-points division:     npool     =       4
     R & G space division:  proc/nbgrp/npool/nimage =      32
     Subspace diagonalization in iterative solution of the eigenvalue problem:
     a serial algorithm will be used


     Parallelization info
     --------------------
     sticks:   dense  smooth     PW     G-vecs:    dense   smooth      PW
     Min          96      96     26                 4766     4766     678
     Max          97      97     27                 4771     4771     683
     Sum        3091    3091    847               152577   152577   21753

     Using Slab Decomposition



     bravais-lattice index     =            4
     lattice parameter (alat)  =       9.2850  a.u.
     unit-cell volume          =     762.5513 (a.u.)^3
     number of atoms/cell      =            9
     number of atomic types    =            2
     number of electrons       =        48.00
     number of Kohn-Sham states=           24
     kinetic-energy cutoff     =     130.0000  Ry
     charge density cutoff     =     520.0000  Ry
     scf convergence threshold =      1.0E-07
     mixing beta               =       0.7000
     number of iterations used =            8  plain     mixing
     Exchange-correlation=  SLA  PW   PBX  PBC
                           (   1   4   3   4   0   0   0)

     celldm(1)=   9.285000  celldm(2)=   0.000000  celldm(3)=   1.100000
     celldm(4)=   0.000000  celldm(5)=   0.000000  celldm(6)=   0.000000

     crystal axes: (cart. coord. in units of alat)
               a(1) = (   1.000000   0.000000   0.000000 )  
               a(2) = (  -0.500000   0.866025   0.000000 )  
               a(3) = (   0.000000   0.000000   1.100000 )  

     reciprocal axes: (cart. coord. in units 2 pi/alat)
               b(1) = (  1.000000  0.577350 -0.000000 )  
               b(2) = (  0.000000  1.154701  0.000000 )  
               b(3) = (  0.000000 -0.000000  0.909091 )  


     PseudoPot. # 1 for Si read from file:
     ./Si.pbe-van_gipaw.UPF
     MD5 check sum: 907f546cb6949dd03cdbc0a9de4be0c7
     Pseudo is Ultrasoft, Zval =  4.0
     Generated by new atomic code, or converted to UPF format
     Using radial grid of 1141 points,  4 beta functions with: 
                l(1) =   0
                l(2) =   0
                l(3) =   1
                l(4) =   1
     Q(r) pseudized with 0 coefficients 


     PseudoPot. # 2 for O  read from file:
     ./O.pbe-van_gipaw.UPF
     MD5 check sum: 5ce2a047509d4f331db576c963e74b29
     Pseudo is Ultrasoft, Zval =  6.0
     Generated by new atomic code, or converted to UPF format
     Using radial grid of 1095 points,  4 beta functions with: 
                l(1) =   0
                l(2) =   0
                l(3) =   1
                l(4) =   1
     Q(r) pseudized with 0 coefficients 


     atomic species   valence    mass     pseudopotential
     Si                4.00    28.08600     Si( 1.00)
     O                 6.00    16.00000     O ( 1.00)

      6 Sym. Ops. (no inversion) found ( 4 have fractional translation)



   Cartesian axes

     site n.     atom                  positions (alat units)
         1        Si     tau(   1) = (  -0.2349350   0.4069194   0.3666663  )
         2        Si     tau(   2) = (   0.4698700   0.0000000   0.7333330  )
         3        Si     tau(   3) = (   0.2650650   0.4591060   1.0999996  )
         4        O      tau(   4) = (   0.2800500   0.2321814   0.8640500  )
         5        O      tau(   5) = (   0.6589000   0.1264397   0.4973833  )
         6        O      tau(   6) = (   0.5610500   0.5074043   0.1307167  )
         7        O      tau(   7) = (   0.0610500   0.3586211   0.2359500  )
         8        O      tau(   8) = (  -0.2199500   0.6338440   0.6026167  )
         9        O      tau(   9) = (   0.1589000   0.7395857   0.9692833  )

     number of k points=    13
                       cart. coord. in units 2pi/alat
        k(    1) = (   0.0000000   0.0000000   0.0000000), wk =   0.0312500
        k(    2) = (   0.0000000   0.0000000   0.2272727), wk =   0.0625000
        k(    3) = (   0.0000000   0.0000000  -0.4545455), wk =   0.0312500
        k(    4) = (   0.0000000   0.2886751   0.0000000), wk =   0.1875000
        k(    5) = (   0.0000000   0.2886751   0.2272727), wk =   0.1875000
        k(    6) = (   0.0000000   0.2886751  -0.4545455), wk =   0.1875000
        k(    7) = (   0.0000000  -0.5773503   0.0000000), wk =   0.0937500
        k(    8) = (   0.0000000  -0.5773503   0.2272727), wk =   0.1875000
        k(    9) = (   0.0000000  -0.5773503  -0.4545455), wk =   0.0937500
        k(   10) = (   0.2500000   0.4330127   0.0000000), wk =   0.1875000
        k(   11) = (   0.2500000   0.4330127   0.2272727), wk =   0.3750000
        k(   12) = (   0.2500000   0.4330127  -0.4545455), wk =   0.1875000
        k(   13) = (   0.0000000   0.2886751  -0.2272727), wk =   0.1875000

     Dense  grid:   152577 G-vectors     FFT dimensions: (  72,  72,  75)

     Estimated max dynamical RAM per process >       7.43 MB

     Estimated total dynamical RAM >     839.26 MB

     Initial potential from superposition of free atoms

     starting charge      45.3753, renormalised to      48.0000
     Starting wfcs are   60 randomized atomic wfcs

     total cpu time spent up to now is        1.3 secs

     per-process dynamical memory:    15.5 Mb

     Self-consistent Calculation

     iteration #  1     ecut=   130.00 Ry     beta= 0.70
     Davidson diagonalization with overlap
     ethr =  1.00E-02,  avg # of iterations =  3.0

     Threshold (ethr) on eigenvalues was too large:
     Diagonalizing with lowered threshold

     Davidson diagonalization with overlap
     ethr =  9.40E-04,  avg # of iterations =  2.0

     negative rho (up, down):  1.392E-03 0.000E+00

     total cpu time spent up to now is        1.8 secs

     total energy              =    -215.79320827 Ry
     estimated scf accuracy    <       0.44694150 Ry

     iteration #  2     ecut=   130.00 Ry     beta= 0.70
     Davidson diagonalization with overlap
     ethr =  9.31E-04,  avg # of iterations =  2.0

     negative rho (up, down):  8.603E-04 0.000E+00

     total cpu time spent up to now is        2.0 secs

     total energy              =    -215.91067282 Ry
     estimated scf accuracy    <       0.13479941 Ry

     iteration #  3     ecut=   130.00 Ry     beta= 0.70
     Davidson diagonalization with overlap
     ethr =  2.81E-04,  avg # of iterations =  2.0

     total cpu time spent up to now is        2.3 secs

     total energy              =    -215.93352801 Ry
     estimated scf accuracy    <       0.00457048 Ry

     iteration #  4     ecut=   130.00 Ry     beta= 0.70
     Davidson diagonalization with overlap
     ethr =  9.52E-06,  avg # of iterations =  3.2

     total cpu time spent up to now is        2.5 secs

     total energy              =    -215.93537110 Ry
     estimated scf accuracy    <       0.00161180 Ry

     iteration #  5     ecut=   130.00 Ry     beta= 0.70
     Davidson diagonalization with overlap
     ethr =  3.36E-06,  avg # of iterations =  2.0

     total cpu time spent up to now is        2.8 secs

     total energy              =    -215.93560347 Ry
     estimated scf accuracy    <       0.00008875 Ry

     iteration #  6     ecut=   130.00 Ry     beta= 0.70
     Davidson diagonalization with overlap
     ethr =  1.85E-07,  avg # of iterations =  4.0

     total cpu time spent up to now is        3.1 secs

     total energy              =    -215.93566355 Ry
     estimated scf accuracy    <       0.00001736 Ry

     iteration #  7     ecut=   130.00 Ry     beta= 0.70
     Davidson diagonalization with overlap
     ethr =  3.62E-08,  avg # of iterations =  2.2

     total cpu time spent up to now is        3.3 secs

     total energy              =    -215.93566634 Ry
     estimated scf accuracy    <       0.00000081 Ry

     iteration #  8     ecut=   130.00 Ry     beta= 0.70
     Davidson diagonalization with overlap
     ethr =  1.68E-09,  avg # of iterations =  4.7

     total cpu time spent up to now is        3.6 secs

     End of self-consistent calculation

          k = 0.0000 0.0000 0.0000 ( 19045 PWs)   bands (ev):

   -16.7729 -15.2343 -15.2343 -14.5903 -14.5445 -14.5445  -5.6922  -5.6922
    -2.9080  -2.8898  -2.7171  -2.7171  -0.3510  -0.3510  -0.0988   0.1546
     1.0851   1.0851   1.1138   1.5935   1.5935   1.9047   2.2694   2.2694

          k = 0.0000 0.0000 0.2273 ( 19111 PWs)   bands (ev):

   -16.6507 -15.7961 -14.7745 -14.5872 -14.5639 -14.5257  -6.4822  -4.6696
    -3.1329  -2.9977  -2.9584  -2.3502  -0.4123  -0.1236  -0.0134   0.3333
     0.8186   0.9728   1.0778   1.1072   1.5195   2.0559   2.3609   2.4876

          k = 0.0000 0.0000-0.4545 ( 19058 PWs)   bands (ev):

   -16.3043 -16.3043 -14.5922 -14.5783 -14.5783 -14.5176  -6.7821  -3.7289
    -3.7289  -3.0780  -3.0780  -2.1561  -0.1135  -0.1135  -0.0470   0.5823
     0.5823   0.7586   0.7586   1.0611   1.3832   2.3723   2.3723   2.4951

          k = 0.0000 0.2887 0.0000 ( 19071 PWs)   bands (ev):

   -16.5946 -15.4419 -15.2082 -14.6287 -14.5779 -14.5589  -5.7644  -5.3132
    -3.0164  -2.9446  -2.8536  -2.4255  -0.5292  -0.2281  -0.0520   0.4070
     0.5681   1.0025   1.0788   1.4999   1.5879   1.7507   2.3400   2.4298

          k = 0.0000 0.2887 0.2273 ( 19076 PWs)   bands (ev):

   -16.4915 -15.7648 -14.9985 -14.6171 -14.5756 -14.5586  -6.1498  -4.7262
    -3.4272  -2.9338  -2.6643  -2.3895  -0.5477  -0.0616  -0.0512   0.1899
     0.5575   1.0790   1.1365   1.2931   1.7236   1.7725   2.1878   2.5512

          k = 0.0000 0.2887-0.4545 ( 19070 PWs)   bands (ev):

   -16.2592 -16.1164 -14.8696 -14.6306 -14.5791 -14.5475  -6.3444  -4.1441
    -3.8137  -2.9079  -2.7960  -2.2705  -0.4104  -0.3942   0.1164   0.3468
     0.5029   1.0112   1.1071   1.2846   1.5067   2.1433   2.1707   2.4330

          k = 0.0000-0.5774 0.0000 ( 19090 PWs)   bands (ev):

   -16.2820 -15.8011 -15.1795 -14.6468 -14.6067 -14.5801  -5.8325  -4.8302
    -3.3586  -2.9150  -2.8948  -2.1189  -0.4703  -0.3017  -0.0955   0.2864
     0.5078   0.8456   0.9280   1.4810   1.5473   1.8007   2.3140   2.5458

          k = 0.0000-0.5774 0.2273 ( 19086 PWs)   bands (ev):

   -16.2484 -15.7845 -15.2480 -14.6505 -14.6092 -14.5695  -5.7622  -4.7736
    -3.6576  -2.8966  -2.6018  -2.2953  -0.5445  -0.4668   0.0723   0.2629
     0.6587   0.8319   1.1452   1.4224   1.6207   1.8642   2.1416   2.4645

          k = 0.0000-0.5774-0.4545 ( 19068 PWs)   bands (ev):

   -16.2111 -15.7671 -15.3167 -14.6719 -14.5906 -14.5668  -5.6855  -4.7148
    -3.8567  -2.7987  -2.5402  -2.4271  -0.6033  -0.5877   0.1556   0.4715
     0.4943   1.0329   1.3163   1.4413   1.7023   1.7582   1.9841   2.3904

          k = 0.2500 0.4330 0.0000 ( 19081 PWs)   bands (ev):

   -16.2909 -15.7756 -15.2057 -14.6434 -14.6032 -14.5777  -5.8622  -4.6956
    -3.6347  -2.8794  -2.7663  -2.1220  -0.4508  -0.2897  -0.1323   0.3990
     0.4679   0.8050   1.0816   1.2250   1.5163   1.9450   2.2753   2.5553

          k = 0.2500 0.4330 0.2273 ( 19109 PWs)   bands (ev):

   -16.2497 -15.7857 -15.2400 -14.6435 -14.6221 -14.5700  -5.7728  -4.6748
    -3.8172  -2.8596  -2.5794  -2.3032  -0.5867  -0.2989  -0.0922   0.3766
     0.6169   0.8271   1.1935   1.3758   1.6033   1.8995   2.1483   2.4271

          k = 0.2500 0.4330-0.4545 ( 19082 PWs)   bands (ev):

   -16.2009 -15.8052 -15.2713 -14.6658 -14.5925 -14.5896  -5.6702  -4.6696
    -3.9605  -2.7041  -2.6208  -2.4249  -0.6440  -0.4206   0.0213   0.4063
     0.6339   0.8631   1.4387   1.5300   1.6436   1.8717   2.0402   2.1947

          k = 0.0000 0.2887-0.2273 ( 19076 PWs)   bands (ev):

   -16.4893 -15.7752 -14.9738 -14.6185 -14.6015 -14.5481  -6.1473  -4.7251
    -3.4259  -2.9152  -2.6424  -2.4529  -0.5871  -0.1161   0.0093   0.3118
     0.6124   0.9646   1.0816   1.3147   1.6620   1.8490   2.2771   2.4694

     highest occupied level (ev):     2.5553

!    total energy              =    -215.93566702 Ry
     estimated scf accuracy    <       0.00000004 Ry

     The total energy is the sum of the following terms:
     one-electron contribution =    -103.42210471 Ry
     hartree contribution      =      77.24835291 Ry
     xc contribution           =     -50.79931161 Ry
     ewald contribution        =    -138.96260361 Ry

     convergence has been achieved in   8 iterations

     Writing all to output data dir ./quartz-scf-us/quartz.save/ :
     XML data file, charge density, pseudopotentials, collected wavefunctions

     init_run     :      0.74s CPU      0.81s WALL (       1 calls)
     electrons    :      2.23s CPU      2.39s WALL (       1 calls)

     Called by init_run:
     wfcinit      :      0.17s CPU      0.18s WALL (       1 calls)
     potinit      :      0.02s CPU      0.04s WALL (       1 calls)
     hinit0       :      0.48s CPU      0.49s WALL (       1 calls)

     Called by electrons:
     c_bands      :      1.78s CPU      1.84s WALL (       9 calls)
     sum_band     :      0.29s CPU      0.31s WALL (       9 calls)
     v_of_rho     :      0.10s CPU      0.11s WALL (       9 calls)
     newd         :      0.03s CPU      0.03s WALL (       9 calls)
     mix_rho      :      0.02s CPU      0.02s WALL (       9 calls)

     Called by c_bands:
     init_us_2    :      0.03s CPU      0.03s WALL (      76 calls)
     cegterg      :      1.71s CPU      1.75s WALL (      36 calls)

     Called by *egterg:
     cdiaghg      :      0.13s CPU      0.14s WALL (     134 calls)
     h_psi        :      1.50s CPU      1.54s WALL (     142 calls)
     s_psi        :      0.05s CPU      0.05s WALL (     142 calls)
     g_psi        :      0.00s CPU      0.00s WALL (     102 calls)

     Called by h_psi:
     h_psi:calbec :      0.07s CPU      0.08s WALL (     142 calls)
     vloc_psi     :      1.37s CPU      1.40s WALL (     142 calls)
     add_vuspsi   :      0.05s CPU      0.05s WALL (     142 calls)

     General routines
     calbec       :      0.09s CPU      0.09s WALL (     178 calls)
     fft          :      0.48s CPU      0.50s WALL (      99 calls)
     ffts         :      0.00s CPU      0.00s WALL (       9 calls)
     fftw         :      1.42s CPU      1.46s WALL (    6484 calls)

     Parallel routines

     PWSCF        :      3.42s CPU      4.11s WALL


   This run was terminated on:  14:31:13   3Feb2026            

=------------------------------------------------------------------------------=
   JOB DONE.
=------------------------------------------------------------------------------=
