
     Program PWSCF v.7.3.1 starts on  3Feb2026 at 14:31:36 

     This program is part of the open-source Quantum ESPRESSO suite
     for quantum simulation of materials; please cite
         "P. Giannozzi et al., J. Phys.:Condens. Matter 21 395502 (2009);
         "P. Giannozzi et al., J. Phys.:Condens. Matter 29 465901 (2017);
         "P. Giannozzi et al., J. Chem. Phys. 152 154105 (2020);
          URL http://www.quantum-espresso.org", 
     in publications or presentations arising from this work. More details at
     http://www.quantum-espresso.org/quote

     Parallel version (MPI), running on   128 processors

     MPI processes distributed on     1 nodes
     240978 MiB available memory on the printing compute node when the environment starts

     Waiting for input...
     Reading input from standard input

     Current dimensions of program PWSCF are:
     Max number of different atomic species (ntypx) = 10
     Max number of k-points (npk) =  40000
     Max angular momentum in pseudopotentials (lmaxx) =  4
     WARNING: atomic wfc #  2 for atom typeSi has zero norm
     WARNING: atomic wfc #  2 for atom typeO has zero norm
     WARNING: atomic wfc #  4 for atom typeO has zero norm
     WARNING: atomic wfc #  5 for atom typeO has zero norm

     K-points division:     npool     =       4
     R & G space division:  proc/nbgrp/npool/nimage =      32
     Subspace diagonalization in iterative solution of the eigenvalue problem:
     a serial algorithm will be used


     Parallelization info
     --------------------
     sticks:   dense  smooth     PW     G-vecs:    dense   smooth      PW
     Min         111     111     29                 5915     5915     825
     Max         112     112     30                 5920     5920     832
     Sum        3571    3571    955               189349   189349   26555

     Using Slab Decomposition



     bravais-lattice index     =            4
     lattice parameter (alat)  =       9.2850  a.u.
     unit-cell volume          =     762.5513 (a.u.)^3
     number of atoms/cell      =            9
     number of atomic types    =            2
     number of electrons       =        48.00
     number of Kohn-Sham states=           24
     kinetic-energy cutoff     =     150.0000  Ry
     charge density cutoff     =     600.0000  Ry
     scf convergence threshold =      1.0E-07
     mixing beta               =       0.7000
     number of iterations used =            8  plain     mixing
     Exchange-correlation=  SLA  PW   PBX  PBC
                           (   1   4   3   4   0   0   0)

     celldm(1)=   9.285000  celldm(2)=   0.000000  celldm(3)=   1.100000
     celldm(4)=   0.000000  celldm(5)=   0.000000  celldm(6)=   0.000000

     crystal axes: (cart. coord. in units of alat)
               a(1) = (   1.000000   0.000000   0.000000 )  
               a(2) = (  -0.500000   0.866025   0.000000 )  
               a(3) = (   0.000000   0.000000   1.100000 )  

     reciprocal axes: (cart. coord. in units 2 pi/alat)
               b(1) = (  1.000000  0.577350 -0.000000 )  
               b(2) = (  0.000000  1.154701  0.000000 )  
               b(3) = (  0.000000 -0.000000  0.909091 )  


     PseudoPot. # 1 for Si read from file:
     ./Si.pbe-van_gipaw.UPF
     MD5 check sum: 907f546cb6949dd03cdbc0a9de4be0c7
     Pseudo is Ultrasoft, Zval =  4.0
     Generated by new atomic code, or converted to UPF format
     Using radial grid of 1141 points,  4 beta functions with: 
                l(1) =   0
                l(2) =   0
                l(3) =   1
                l(4) =   1
     Q(r) pseudized with 0 coefficients 


     PseudoPot. # 2 for O  read from file:
     ./O.pbe-van_gipaw.UPF
     MD5 check sum: 5ce2a047509d4f331db576c963e74b29
     Pseudo is Ultrasoft, Zval =  6.0
     Generated by new atomic code, or converted to UPF format
     Using radial grid of 1095 points,  4 beta functions with: 
                l(1) =   0
                l(2) =   0
                l(3) =   1
                l(4) =   1
     Q(r) pseudized with 0 coefficients 


     atomic species   valence    mass     pseudopotential
     Si                4.00    28.08600     Si( 1.00)
     O                 6.00    16.00000     O ( 1.00)

      6 Sym. Ops. (no inversion) found ( 4 have fractional translation)



   Cartesian axes

     site n.     atom                  positions (alat units)
         1        Si     tau(   1) = (  -0.2349350   0.4069194   0.3666663  )
         2        Si     tau(   2) = (   0.4698700   0.0000000   0.7333330  )
         3        Si     tau(   3) = (   0.2650650   0.4591060   1.0999996  )
         4        O      tau(   4) = (   0.2800500   0.2321814   0.8640500  )
         5        O      tau(   5) = (   0.6589000   0.1264397   0.4973833  )
         6        O      tau(   6) = (   0.5610500   0.5074043   0.1307167  )
         7        O      tau(   7) = (   0.0610500   0.3586211   0.2359500  )
         8        O      tau(   8) = (  -0.2199500   0.6338440   0.6026167  )
         9        O      tau(   9) = (   0.1589000   0.7395857   0.9692833  )

     number of k points=    13
                       cart. coord. in units 2pi/alat
        k(    1) = (   0.0000000   0.0000000   0.0000000), wk =   0.0312500
        k(    2) = (   0.0000000   0.0000000   0.2272727), wk =   0.0625000
        k(    3) = (   0.0000000   0.0000000  -0.4545455), wk =   0.0312500
        k(    4) = (   0.0000000   0.2886751   0.0000000), wk =   0.1875000
        k(    5) = (   0.0000000   0.2886751   0.2272727), wk =   0.1875000
        k(    6) = (   0.0000000   0.2886751  -0.4545455), wk =   0.1875000
        k(    7) = (   0.0000000  -0.5773503   0.0000000), wk =   0.0937500
        k(    8) = (   0.0000000  -0.5773503   0.2272727), wk =   0.1875000
        k(    9) = (   0.0000000  -0.5773503  -0.4545455), wk =   0.0937500
        k(   10) = (   0.2500000   0.4330127   0.0000000), wk =   0.1875000
        k(   11) = (   0.2500000   0.4330127   0.2272727), wk =   0.3750000
        k(   12) = (   0.2500000   0.4330127  -0.4545455), wk =   0.1875000
        k(   13) = (   0.0000000   0.2886751  -0.2272727), wk =   0.1875000

     Dense  grid:   189349 G-vectors     FFT dimensions: (  75,  75,  81)

     Estimated max dynamical RAM per process >       8.84 MB

     Estimated total dynamical RAM >     993.34 MB

     Initial potential from superposition of free atoms

     starting charge      45.3753, renormalised to      48.0000
     Starting wfcs are   60 randomized atomic wfcs

     total cpu time spent up to now is        1.1 secs

     per-process dynamical memory:    16.4 Mb

     Self-consistent Calculation

     iteration #  1     ecut=   150.00 Ry     beta= 0.70
     Davidson diagonalization with overlap
     ethr =  1.00E-02,  avg # of iterations =  3.0

     Threshold (ethr) on eigenvalues was too large:
     Diagonalizing with lowered threshold

     Davidson diagonalization with overlap
     ethr =  9.40E-04,  avg # of iterations =  2.0

     negative rho (up, down):  1.372E-03 0.000E+00

     total cpu time spent up to now is        1.7 secs

     total energy              =    -215.79318050 Ry
     estimated scf accuracy    <       0.44707146 Ry

     iteration #  2     ecut=   150.00 Ry     beta= 0.70
     Davidson diagonalization with overlap
     ethr =  9.31E-04,  avg # of iterations =  2.0

     negative rho (up, down):  8.498E-04 0.000E+00

     total cpu time spent up to now is        2.0 secs

     total energy              =    -215.91072842 Ry
     estimated scf accuracy    <       0.13487266 Ry

     iteration #  3     ecut=   150.00 Ry     beta= 0.70
     Davidson diagonalization with overlap
     ethr =  2.81E-04,  avg # of iterations =  2.0

     total cpu time spent up to now is        2.4 secs

     total energy              =    -215.93357643 Ry
     estimated scf accuracy    <       0.00457223 Ry

     iteration #  4     ecut=   150.00 Ry     beta= 0.70
     Davidson diagonalization with overlap
     ethr =  9.53E-06,  avg # of iterations =  3.2

     total cpu time spent up to now is        2.7 secs

     total energy              =    -215.93543311 Ry
     estimated scf accuracy    <       0.00161952 Ry

     iteration #  5     ecut=   150.00 Ry     beta= 0.70
     Davidson diagonalization with overlap
     ethr =  3.37E-06,  avg # of iterations =  2.0

     total cpu time spent up to now is        3.0 secs

     total energy              =    -215.93566543 Ry
     estimated scf accuracy    <       0.00008974 Ry

     iteration #  6     ecut=   150.00 Ry     beta= 0.70
     Davidson diagonalization with overlap
     ethr =  1.87E-07,  avg # of iterations =  4.2

     total cpu time spent up to now is        3.4 secs

     total energy              =    -215.93572861 Ry
     estimated scf accuracy    <       0.00001986 Ry

     iteration #  7     ecut=   150.00 Ry     beta= 0.70
     Davidson diagonalization with overlap
     ethr =  4.14E-08,  avg # of iterations =  2.1

     total cpu time spent up to now is        3.7 secs

     total energy              =    -215.93573206 Ry
     estimated scf accuracy    <       0.00000080 Ry

     iteration #  8     ecut=   150.00 Ry     beta= 0.70
     Davidson diagonalization with overlap
     ethr =  1.67E-09,  avg # of iterations =  4.8

     total cpu time spent up to now is        4.1 secs

     End of self-consistent calculation

          k = 0.0000 0.0000 0.0000 ( 23595 PWs)   bands (ev):

   -16.7730 -15.2342 -15.2342 -14.5902 -14.5444 -14.5444  -5.6922  -5.6922
    -2.9080  -2.8898  -2.7171  -2.7171  -0.3510  -0.3510  -0.0987   0.1547
     1.0852   1.0852   1.1138   1.5936   1.5936   1.9048   2.2695   2.2695

          k = 0.0000 0.0000 0.2273 ( 23602 PWs)   bands (ev):

   -16.6508 -15.7961 -14.7744 -14.5871 -14.5637 -14.5256  -6.4823  -4.6696
    -3.1329  -2.9977  -2.9584  -2.3502  -0.4122  -0.1236  -0.0133   0.3334
     0.8186   0.9729   1.0779   1.1074   1.5196   2.0559   2.3610   2.4876

          k = 0.0000 0.0000-0.4545 ( 23668 PWs)   bands (ev):

   -16.3043 -16.3043 -14.5921 -14.5781 -14.5781 -14.5175  -6.7822  -3.7288
    -3.7288  -3.0780  -3.0780  -2.1560  -0.1134  -0.1134  -0.0470   0.5824
     0.5824   0.7587   0.7587   1.0612   1.3833   2.3724   2.3724   2.4952

          k = 0.0000 0.2887 0.0000 ( 23633 PWs)   bands (ev):

   -16.5946 -15.4419 -15.2082 -14.6286 -14.5778 -14.5588  -5.7644  -5.3133
    -3.0163  -2.9446  -2.8536  -2.4255  -0.5291  -0.2280  -0.0520   0.4070
     0.5682   1.0025   1.0788   1.5000   1.5880   1.7508   2.3400   2.4299

          k = 0.0000 0.2887 0.2273 ( 23656 PWs)   bands (ev):

   -16.4916 -15.7648 -14.9984 -14.6170 -14.5755 -14.5585  -6.1498  -4.7262
    -3.4271  -2.9338  -2.6643  -2.3894  -0.5476  -0.0615  -0.0511   0.1900
     0.5576   1.0791   1.1366   1.2932   1.7237   1.7725   2.1878   2.5513

          k = 0.0000 0.2887-0.4545 ( 23660 PWs)   bands (ev):

   -16.2592 -16.1165 -14.8695 -14.6305 -14.5790 -14.5474  -6.3444  -4.1440
    -3.8137  -2.9078  -2.7959  -2.2705  -0.4103  -0.3942   0.1164   0.3469
     0.5030   1.0113   1.1071   1.2847   1.5068   2.1434   2.1708   2.4331

          k = 0.0000-0.5774 0.0000 ( 23646 PWs)   bands (ev):

   -16.2821 -15.8011 -15.1795 -14.6467 -14.6066 -14.5799  -5.8325  -4.8302
    -3.3586  -2.9150  -2.8948  -2.1188  -0.4703  -0.3016  -0.0954   0.2864
     0.5079   0.8457   0.9281   1.4811   1.5473   1.8007   2.3141   2.5459

          k = 0.0000-0.5774 0.2273 ( 23680 PWs)   bands (ev):

   -16.2484 -15.7845 -15.2480 -14.6504 -14.6091 -14.5694  -5.7622  -4.7736
    -3.6575  -2.8966  -2.6018  -2.2953  -0.5444  -0.4667   0.0723   0.2630
     0.6587   0.8319   1.1453   1.4225   1.6208   1.8642   2.1417   2.4646

          k = 0.0000-0.5774-0.4545 ( 23716 PWs)   bands (ev):

   -16.2111 -15.7671 -15.3166 -14.6718 -14.5905 -14.5667  -5.6855  -4.7148
    -3.8567  -2.7987  -2.5402  -2.4270  -0.6032  -0.5877   0.1557   0.4716
     0.4944   1.0330   1.3164   1.4414   1.7024   1.7583   1.9842   2.3905

          k = 0.2500 0.4330 0.0000 ( 23658 PWs)   bands (ev):

   -16.2909 -15.7756 -15.2056 -14.6433 -14.6031 -14.5776  -5.8622  -4.6956
    -3.6347  -2.8794  -2.7663  -2.1220  -0.4507  -0.2897  -0.1322   0.3991
     0.4679   0.8051   1.0817   1.2250   1.5163   1.9451   2.2754   2.5553

          k = 0.2500 0.4330 0.2273 ( 23669 PWs)   bands (ev):

   -16.2497 -15.7857 -15.2399 -14.6434 -14.6220 -14.5698  -5.7728  -4.6748
    -3.8171  -2.8595  -2.5794  -2.3031  -0.5867  -0.2988  -0.0921   0.3767
     0.6170   0.8272   1.1936   1.3758   1.6034   1.8995   2.1484   2.4272

          k = 0.2500 0.4330-0.4545 ( 23686 PWs)   bands (ev):

   -16.2009 -15.8052 -15.2712 -14.6657 -14.5924 -14.5895  -5.6702  -4.6696
    -3.9605  -2.7041  -2.6207  -2.4248  -0.6440  -0.4205   0.0214   0.4064
     0.6340   0.8632   1.4388   1.5300   1.6437   1.8717   2.0403   2.1948

          k = 0.0000 0.2887-0.2273 ( 23656 PWs)   bands (ev):

   -16.4894 -15.7752 -14.9737 -14.6184 -14.6014 -14.5480  -6.1474  -4.7251
    -3.4259  -2.9152  -2.6423  -2.4529  -0.5870  -0.1160   0.0093   0.3118
     0.6125   0.9647   1.0817   1.3147   1.6621   1.8491   2.2772   2.4695

     highest occupied level (ev):     2.5553

!    total energy              =    -215.93573288 Ry
     estimated scf accuracy    <       0.00000002 Ry

     The total energy is the sum of the following terms:
     one-electron contribution =    -103.42190822 Ry
     hartree contribution      =      77.24803577 Ry
     xc contribution           =     -50.79925681 Ry
     ewald contribution        =    -138.96260361 Ry

     convergence has been achieved in   8 iterations

     Writing all to output data dir ./quartz-scf-us/quartz.save/ :
     XML data file, charge density, pseudopotentials, collected wavefunctions

     init_run     :      0.49s CPU      0.58s WALL (       1 calls)
     electrons    :      2.95s CPU      3.18s WALL (       1 calls)

     Called by init_run:
     wfcinit      :      0.20s CPU      0.23s WALL (       1 calls)
     potinit      :      0.01s CPU      0.04s WALL (       1 calls)
     hinit0       :      0.18s CPU      0.20s WALL (       1 calls)

     Called by electrons:
     c_bands      :      2.38s CPU      2.45s WALL (       9 calls)
     sum_band     :      0.40s CPU      0.41s WALL (       9 calls)
     v_of_rho     :      0.11s CPU      0.13s WALL (       9 calls)
     newd         :      0.03s CPU      0.04s WALL (       9 calls)
     mix_rho      :      0.02s CPU      0.02s WALL (       9 calls)

     Called by c_bands:
     init_us_2    :      0.03s CPU      0.04s WALL (      76 calls)
     cegterg      :      2.29s CPU      2.33s WALL (      36 calls)

     Called by *egterg:
     cdiaghg      :      0.14s CPU      0.14s WALL (     136 calls)
     h_psi        :      2.05s CPU      2.11s WALL (     144 calls)
     s_psi        :      0.06s CPU      0.06s WALL (     144 calls)
     g_psi        :      0.01s CPU      0.01s WALL (     104 calls)

     Called by h_psi:
     h_psi:calbec :      0.09s CPU      0.10s WALL (     144 calls)
     vloc_psi     :      1.88s CPU      1.93s WALL (     144 calls)
     add_vuspsi   :      0.06s CPU      0.07s WALL (     144 calls)

     General routines
     calbec       :      0.11s CPU      0.12s WALL (     180 calls)
     fft          :      0.19s CPU      0.21s WALL (      99 calls)
     ffts         :      0.01s CPU      0.01s WALL (       9 calls)
     fftw         :      1.98s CPU      2.03s WALL (    6484 calls)

     Parallel routines

     PWSCF        :      3.91s CPU      4.56s WALL


   This run was terminated on:  14:31:41   3Feb2026            

=------------------------------------------------------------------------------=
   JOB DONE.
=------------------------------------------------------------------------------=
