
     Program PWSCF v.7.3.1 starts on  3Feb2026 at 14:29: 2 

     This program is part of the open-source Quantum ESPRESSO suite
     for quantum simulation of materials; please cite
         "P. Giannozzi et al., J. Phys.:Condens. Matter 21 395502 (2009);
         "P. Giannozzi et al., J. Phys.:Condens. Matter 29 465901 (2017);
         "P. Giannozzi et al., J. Chem. Phys. 152 154105 (2020);
          URL http://www.quantum-espresso.org", 
     in publications or presentations arising from this work. More details at
     http://www.quantum-espresso.org/quote

     Parallel version (MPI), running on   128 processors

     MPI processes distributed on     1 nodes
     241210 MiB available memory on the printing compute node when the environment starts

     Waiting for input...
     Reading input from standard input

     Current dimensions of program PWSCF are:
     Max number of different atomic species (ntypx) = 10
     Max number of k-points (npk) =  40000
     Max angular momentum in pseudopotentials (lmaxx) =  4
     WARNING: atomic wfc #  2 for atom typeSi has zero norm
     WARNING: atomic wfc #  2 for atom typeO has zero norm
     WARNING: atomic wfc #  4 for atom typeO has zero norm
     WARNING: atomic wfc #  5 for atom typeO has zero norm

     K-points division:     npool     =       8
     R & G space division:  proc/nbgrp/npool/nimage =      16
     Subspace diagonalization in iterative solution of the eigenvalue problem:
     a serial algorithm will be used


     Parallelization info
     --------------------
     sticks:   dense  smooth     PW     G-vecs:    dense   smooth      PW
     Min          29      29      9                  573      573      97
     Max          30      30     10                  576      576      98
     Sum         475     475    151                 9203     9203    1559

     Using Slab Decomposition



     bravais-lattice index     =            4
     lattice parameter (alat)  =       9.2850  a.u.
     unit-cell volume          =     762.5513 (a.u.)^3
     number of atoms/cell      =            9
     number of atomic types    =            2
     number of electrons       =        48.00
     number of Kohn-Sham states=           24
     kinetic-energy cutoff     =      20.0000  Ry
     charge density cutoff     =      80.0000  Ry
     scf convergence threshold =      1.0E-07
     mixing beta               =       0.7000
     number of iterations used =            8  plain     mixing
     Exchange-correlation=  SLA  PW   PBX  PBC
                           (   1   4   3   4   0   0   0)

     celldm(1)=   9.285000  celldm(2)=   0.000000  celldm(3)=   1.100000
     celldm(4)=   0.000000  celldm(5)=   0.000000  celldm(6)=   0.000000

     crystal axes: (cart. coord. in units of alat)
               a(1) = (   1.000000   0.000000   0.000000 )  
               a(2) = (  -0.500000   0.866025   0.000000 )  
               a(3) = (   0.000000   0.000000   1.100000 )  

     reciprocal axes: (cart. coord. in units 2 pi/alat)
               b(1) = (  1.000000  0.577350 -0.000000 )  
               b(2) = (  0.000000  1.154701  0.000000 )  
               b(3) = (  0.000000 -0.000000  0.909091 )  


     PseudoPot. # 1 for Si read from file:
     ./Si.pbe-van_gipaw.UPF
     MD5 check sum: 907f546cb6949dd03cdbc0a9de4be0c7
     Pseudo is Ultrasoft, Zval =  4.0
     Generated by new atomic code, or converted to UPF format
     Using radial grid of 1141 points,  4 beta functions with: 
                l(1) =   0
                l(2) =   0
                l(3) =   1
                l(4) =   1
     Q(r) pseudized with 0 coefficients 


     PseudoPot. # 2 for O  read from file:
     ./O.pbe-van_gipaw.UPF
     MD5 check sum: 5ce2a047509d4f331db576c963e74b29
     Pseudo is Ultrasoft, Zval =  6.0
     Generated by new atomic code, or converted to UPF format
     Using radial grid of 1095 points,  4 beta functions with: 
                l(1) =   0
                l(2) =   0
                l(3) =   1
                l(4) =   1
     Q(r) pseudized with 0 coefficients 


     atomic species   valence    mass     pseudopotential
     Si                4.00    28.08600     Si( 1.00)
     O                 6.00    16.00000     O ( 1.00)

      6 Sym. Ops. (no inversion) found ( 4 have fractional translation)



   Cartesian axes

     site n.     atom                  positions (alat units)
         1        Si     tau(   1) = (  -0.2349350   0.4069194   0.3666663  )
         2        Si     tau(   2) = (   0.4698700   0.0000000   0.7333330  )
         3        Si     tau(   3) = (   0.2650650   0.4591060   1.0999996  )
         4        O      tau(   4) = (   0.2800500   0.2321814   0.8640500  )
         5        O      tau(   5) = (   0.6589000   0.1264397   0.4973833  )
         6        O      tau(   6) = (   0.5610500   0.5074043   0.1307167  )
         7        O      tau(   7) = (   0.0610500   0.3586211   0.2359500  )
         8        O      tau(   8) = (  -0.2199500   0.6338440   0.6026167  )
         9        O      tau(   9) = (   0.1589000   0.7395857   0.9692833  )

     number of k points=    13
                       cart. coord. in units 2pi/alat
        k(    1) = (   0.0000000   0.0000000   0.0000000), wk =   0.0312500
        k(    2) = (   0.0000000   0.0000000   0.2272727), wk =   0.0625000
        k(    3) = (   0.0000000   0.0000000  -0.4545455), wk =   0.0312500
        k(    4) = (   0.0000000   0.2886751   0.0000000), wk =   0.1875000
        k(    5) = (   0.0000000   0.2886751   0.2272727), wk =   0.1875000
        k(    6) = (   0.0000000   0.2886751  -0.4545455), wk =   0.1875000
        k(    7) = (   0.0000000  -0.5773503   0.0000000), wk =   0.0937500
        k(    8) = (   0.0000000  -0.5773503   0.2272727), wk =   0.1875000
        k(    9) = (   0.0000000  -0.5773503  -0.4545455), wk =   0.0937500
        k(   10) = (   0.2500000   0.4330127   0.0000000), wk =   0.1875000
        k(   11) = (   0.2500000   0.4330127   0.2272727), wk =   0.3750000
        k(   12) = (   0.2500000   0.4330127  -0.4545455), wk =   0.1875000
        k(   13) = (   0.0000000   0.2886751  -0.2272727), wk =   0.1875000

     Dense  grid:     9203 G-vectors     FFT dimensions: (  27,  27,  30)

     Estimated max dynamical RAM per process >       1.22 MB

     Estimated total dynamical RAM >     139.93 MB

     Initial potential from superposition of free atoms

     starting charge      45.3753, renormalised to      48.0000

     negative rho (up, down):  1.297E-03 0.000E+00
     Starting wfcs are   60 randomized atomic wfcs

     total cpu time spent up to now is        0.9 secs

     per-process dynamical memory:     9.4 Mb

     Self-consistent Calculation

     iteration #  1     ecut=    20.00 Ry     beta= 0.70
     Davidson diagonalization with overlap
     ethr =  1.00E-02,  avg # of iterations =  3.0

     Threshold (ethr) on eigenvalues was too large:
     Diagonalizing with lowered threshold

     Davidson diagonalization with overlap
     ethr =  8.78E-04,  avg # of iterations =  2.0

     negative rho (up, down):  4.531E-03 0.000E+00

     total cpu time spent up to now is        1.0 secs

     total energy              =    -215.74275641 Ry
     estimated scf accuracy    <       0.42198126 Ry

     iteration #  2     ecut=    20.00 Ry     beta= 0.70
     Davidson diagonalization with overlap
     ethr =  8.79E-04,  avg # of iterations =  2.0

     negative rho (up, down):  2.813E-03 0.000E+00

     total cpu time spent up to now is        1.0 secs

     total energy              =    -215.83588972 Ry
     estimated scf accuracy    <       0.11346796 Ry

     iteration #  3     ecut=    20.00 Ry     beta= 0.70
     Davidson diagonalization with overlap
     ethr =  2.36E-04,  avg # of iterations =  2.0

     negative rho (up, down):  3.109E-03 0.000E+00

     total cpu time spent up to now is        1.0 secs

     total energy              =    -215.85556000 Ry
     estimated scf accuracy    <       0.00427232 Ry

     iteration #  4     ecut=    20.00 Ry     beta= 0.70
     Davidson diagonalization with overlap
     ethr =  8.90E-06,  avg # of iterations =  2.4

     negative rho (up, down):  3.137E-03 0.000E+00

     total cpu time spent up to now is        1.0 secs

     total energy              =    -215.85625684 Ry
     estimated scf accuracy    <       0.00088921 Ry

     iteration #  5     ecut=    20.00 Ry     beta= 0.70
     Davidson diagonalization with overlap
     ethr =  1.85E-06,  avg # of iterations =  2.0

     negative rho (up, down):  3.139E-03 0.000E+00

     total cpu time spent up to now is        1.1 secs

     total energy              =    -215.85635807 Ry
     estimated scf accuracy    <       0.00006035 Ry

     iteration #  6     ecut=    20.00 Ry     beta= 0.70
     Davidson diagonalization with overlap
     ethr =  1.26E-07,  avg # of iterations =  3.9

     negative rho (up, down):  3.135E-03 0.000E+00

     total cpu time spent up to now is        1.1 secs

     total energy              =    -215.85638685 Ry
     estimated scf accuracy    <       0.00001189 Ry

     iteration #  7     ecut=    20.00 Ry     beta= 0.70
     Davidson diagonalization with overlap
     ethr =  2.48E-08,  avg # of iterations =  2.0

     negative rho (up, down):  3.134E-03 0.000E+00

     total cpu time spent up to now is        1.1 secs

     total energy              =    -215.85638810 Ry
     estimated scf accuracy    <       0.00000087 Ry

     iteration #  8     ecut=    20.00 Ry     beta= 0.70
     Davidson diagonalization with overlap
     ethr =  1.81E-09,  avg # of iterations =  3.5

     negative rho (up, down):  3.135E-03 0.000E+00

     total cpu time spent up to now is        1.2 secs

     End of self-consistent calculation

          k = 0.0000 0.0000 0.0000 (  1155 PWs)   bands (ev):

   -16.8493 -15.3229 -15.3229 -14.6873 -14.6409 -14.6409  -5.7493  -5.7493
    -2.9896  -2.9595  -2.7914  -2.7914  -0.4266  -0.4266  -0.1832   0.0841
     1.0061   1.0061   1.0261   1.5216   1.5216   1.8220   2.1888   2.1888

          k = 0.0000 0.0000 0.2273 (  1161 PWs)   bands (ev):

   -16.7275 -15.8792 -14.8688 -14.6846 -14.6606 -14.6218  -6.5371  -4.7351
    -3.2129  -3.0641  -3.0335  -2.4298  -0.4942  -0.1999  -0.0924   0.2549
     0.7366   0.8887   0.9998   1.0235   1.4466   1.9728   2.2791   2.4102

          k = 0.0000 0.0000-0.4545 (  1178 PWs)   bands (ev):

   -16.3837 -16.3837 -14.6898 -14.6760 -14.6760 -14.6138  -6.8355  -3.8102
    -3.8102  -3.1494  -3.1494  -2.2501  -0.1922  -0.1922  -0.1086   0.4761
     0.4761   0.6675   0.6676   0.9819   1.2846   2.2922   2.2922   2.4016

          k = 0.0000 0.2887 0.0000 (  1155 PWs)   bands (ev):

   -16.6716 -15.5278 -15.2965 -14.7260 -14.6747 -14.6557  -5.8232  -5.3726
    -3.0928  -3.0185  -2.9290  -2.5021  -0.6071  -0.3051  -0.1222   0.3375
     0.4779   0.9222   0.9993   1.4269   1.5147   1.6757   2.2650   2.3516

          k = 0.0000 0.2887 0.2273 (  1154 PWs)   bands (ev):

   -16.5691 -15.8474 -15.0901 -14.7144 -14.6725 -14.6552  -6.2050  -4.7909
    -3.4954  -3.0157  -2.7388  -2.4714  -0.6315  -0.1343  -0.1164   0.1034
     0.4815   0.9961   1.0623   1.2274   1.6483   1.6940   2.1114   2.4806

          k = 0.0000 0.2887-0.4545 (  1148 PWs)   bands (ev):

   -16.3374 -16.1970 -14.9629 -14.7277 -14.6759 -14.6441  -6.3967  -4.2114
    -3.8812  -2.9827  -2.8700  -2.3536  -0.4932  -0.4763   0.0495   0.2624
     0.4350   0.9363   1.0406   1.2206   1.4297   2.0671   2.0955   2.3602

          k = 0.0000-0.5774 0.0000 (  1150 PWs)   bands (ev):

   -16.3602 -15.8845 -15.2674 -14.7440 -14.7037 -14.6774  -5.8917  -4.8926
    -3.4335  -2.9876  -2.9667  -2.1946  -0.5513  -0.3759  -0.1853   0.2027
     0.4377   0.7748   0.8656   1.4189   1.4695   1.7351   2.2501   2.4770

          k = 0.0000-0.5774 0.2273 (  1150 PWs)   bands (ev):

   -16.3261 -15.8677 -15.3365 -14.7478 -14.7061 -14.6669  -5.8205  -4.8383
    -3.7269  -2.9752  -2.6815  -2.3720  -0.6280  -0.5436  -0.0162   0.1963
     0.5942   0.7649   1.0753   1.3516   1.5508   1.7896   2.0689   2.3893

          k = 0.0000-0.5774-0.4545 (  1140 PWs)   bands (ev):

   -16.2880 -15.8499 -15.4058 -14.7692 -14.6873 -14.6644  -5.7389  -4.7816
    -3.9255  -2.8781  -2.6153  -2.5025  -0.6816  -0.6669   0.0756   0.4112
     0.4307   0.9673   1.2545   1.3735   1.6278   1.6905   1.9119   2.3137

          k = 0.2500 0.4330 0.0000 (  1157 PWs)   bands (ev):

   -16.3694 -15.8578 -15.2950 -14.7406 -14.7005 -14.6746  -5.9195  -4.7599
    -3.7038  -2.9562  -2.8417  -2.2071  -0.5311  -0.3720  -0.2143   0.3188
     0.3913   0.7292   1.0122   1.1462   1.4444   1.8834   2.2035   2.4762

          k = 0.2500 0.4330 0.2273 (  1149 PWs)   bands (ev):

   -16.3277 -15.8680 -15.3290 -14.7409 -14.7192 -14.6671  -5.8309  -4.7390
    -3.8858  -2.9357  -2.6573  -2.3833  -0.6652  -0.3792  -0.1803   0.3047
     0.5525   0.7613   1.1228   1.3025   1.5303   1.8288   2.0788   2.3540

          k = 0.2500 0.4330-0.4545 (  1146 PWs)   bands (ev):

   -16.2780 -15.8881 -15.3600 -14.7633 -14.6896 -14.6868  -5.7280  -4.7349
    -4.0294  -2.7826  -2.6979  -2.5030  -0.7282  -0.5016  -0.0644   0.3434
     0.5843   0.7990   1.3641   1.4579   1.5731   1.7979   1.9620   2.1261

          k = 0.0000 0.2887-0.2273 (  1154 PWs)   bands (ev):

   -16.5668 -15.8579 -15.0654 -14.7158 -14.6984 -14.6448  -6.2031  -4.7916
    -3.4956  -2.9936  -2.7158  -2.5366  -0.6720  -0.1889  -0.0618   0.2199
     0.5394   0.8959   1.0026   1.2445   1.5909   1.7696   2.1968   2.3974

     highest occupied level (ev):     2.4806

!    total energy              =    -215.85638841 Ry
     estimated scf accuracy    <       0.00000003 Ry

     The total energy is the sum of the following terms:
     one-electron contribution =    -102.96959733 Ry
     hartree contribution      =      76.90134802 Ry
     xc contribution           =     -50.82553547 Ry
     ewald contribution        =    -138.96260363 Ry

     convergence has been achieved in   8 iterations

     Writing all to output data dir ./quartz-scf-us/quartz.save/ :
     XML data file, charge density, pseudopotentials, collected wavefunctions

     init_run     :      0.17s CPU      0.21s WALL (       1 calls)
     electrons    :      0.25s CPU      0.33s WALL (       1 calls)

     Called by init_run:
     wfcinit      :      0.02s CPU      0.03s WALL (       1 calls)
     potinit      :      0.01s CPU      0.02s WALL (       1 calls)
     hinit0       :      0.12s CPU      0.13s WALL (       1 calls)

     Called by electrons:
     c_bands      :      0.19s CPU      0.23s WALL (       9 calls)
     sum_band     :      0.03s CPU      0.04s WALL (       9 calls)
     v_of_rho     :      0.01s CPU      0.02s WALL (       9 calls)
     newd         :      0.00s CPU      0.01s WALL (       9 calls)
     mix_rho      :      0.00s CPU      0.00s WALL (       9 calls)

     Called by c_bands:
     init_us_2    :      0.00s CPU      0.00s WALL (      38 calls)
     cegterg      :      0.17s CPU      0.21s WALL (      18 calls)

     Called by *egterg:
     cdiaghg      :      0.05s CPU      0.06s WALL (      66 calls)
     h_psi        :      0.12s CPU      0.15s WALL (      70 calls)
     s_psi        :      0.00s CPU      0.00s WALL (      70 calls)
     g_psi        :      0.00s CPU      0.00s WALL (      50 calls)

     Called by h_psi:
     h_psi:calbec :      0.01s CPU      0.01s WALL (      70 calls)
     vloc_psi     :      0.11s CPU      0.13s WALL (      70 calls)
     add_vuspsi   :      0.00s CPU      0.00s WALL (      70 calls)

     General routines
     calbec       :      0.01s CPU      0.01s WALL (      88 calls)
     fft          :      0.10s CPU      0.11s WALL (      99 calls)
     ffts         :      0.00s CPU      0.00s WALL (       9 calls)
     fftw         :      0.12s CPU      0.14s WALL (    3148 calls)

     Parallel routines

     PWSCF        :      0.89s CPU      1.29s WALL


   This run was terminated on:  14:29: 4   3Feb2026            

=------------------------------------------------------------------------------=
   JOB DONE.
=------------------------------------------------------------------------------=
