
     Program PWSCF v.7.3.1 starts on  3Feb2026 at 14:33: 8 

     This program is part of the open-source Quantum ESPRESSO suite
     for quantum simulation of materials; please cite
         "P. Giannozzi et al., J. Phys.:Condens. Matter 21 395502 (2009);
         "P. Giannozzi et al., J. Phys.:Condens. Matter 29 465901 (2017);
         "P. Giannozzi et al., J. Chem. Phys. 152 154105 (2020);
          URL http://www.quantum-espresso.org", 
     in publications or presentations arising from this work. More details at
     http://www.quantum-espresso.org/quote

     Parallel version (MPI), running on   128 processors

     MPI processes distributed on     1 nodes
     240850 MiB available memory on the printing compute node when the environment starts

     Waiting for input...
     Reading input from standard input

     Current dimensions of program PWSCF are:
     Max number of different atomic species (ntypx) = 10
     Max number of k-points (npk) =  40000
     Max angular momentum in pseudopotentials (lmaxx) =  4
     WARNING: atomic wfc #  2 for atom typeSi has zero norm
     WARNING: atomic wfc #  2 for atom typeO has zero norm
     WARNING: atomic wfc #  4 for atom typeO has zero norm
     WARNING: atomic wfc #  5 for atom typeO has zero norm

     K-points division:     npool     =       4
     R & G space division:  proc/nbgrp/npool/nimage =      32
     Subspace diagonalization in iterative solution of the eigenvalue problem:
     a serial algorithm will be used


     Parallelization info
     --------------------
     sticks:   dense  smooth     PW     G-vecs:    dense   smooth      PW
     Min         148     148     40                 9098     9098    1260
     Max         149     149     41                 9105     9105    1266
     Sum        4753    4753   1285               291223   291223   40427

     Using Slab Decomposition



     bravais-lattice index     =            4
     lattice parameter (alat)  =       9.2850  a.u.
     unit-cell volume          =     762.5513 (a.u.)^3
     number of atoms/cell      =            9
     number of atomic types    =            2
     number of electrons       =        48.00
     number of Kohn-Sham states=           24
     kinetic-energy cutoff     =     200.0000  Ry
     charge density cutoff     =     800.0000  Ry
     scf convergence threshold =      1.0E-07
     mixing beta               =       0.7000
     number of iterations used =            8  plain     mixing
     Exchange-correlation=  SLA  PW   PBX  PBC
                           (   1   4   3   4   0   0   0)

     celldm(1)=   9.285000  celldm(2)=   0.000000  celldm(3)=   1.100000
     celldm(4)=   0.000000  celldm(5)=   0.000000  celldm(6)=   0.000000

     crystal axes: (cart. coord. in units of alat)
               a(1) = (   1.000000   0.000000   0.000000 )  
               a(2) = (  -0.500000   0.866025   0.000000 )  
               a(3) = (   0.000000   0.000000   1.100000 )  

     reciprocal axes: (cart. coord. in units 2 pi/alat)
               b(1) = (  1.000000  0.577350 -0.000000 )  
               b(2) = (  0.000000  1.154701  0.000000 )  
               b(3) = (  0.000000 -0.000000  0.909091 )  


     PseudoPot. # 1 for Si read from file:
     ./Si.pbe-van_gipaw.UPF
     MD5 check sum: 907f546cb6949dd03cdbc0a9de4be0c7
     Pseudo is Ultrasoft, Zval =  4.0
     Generated by new atomic code, or converted to UPF format
     Using radial grid of 1141 points,  4 beta functions with: 
                l(1) =   0
                l(2) =   0
                l(3) =   1
                l(4) =   1
     Q(r) pseudized with 0 coefficients 


     PseudoPot. # 2 for O  read from file:
     ./O.pbe-van_gipaw.UPF
     MD5 check sum: 5ce2a047509d4f331db576c963e74b29
     Pseudo is Ultrasoft, Zval =  6.0
     Generated by new atomic code, or converted to UPF format
     Using radial grid of 1095 points,  4 beta functions with: 
                l(1) =   0
                l(2) =   0
                l(3) =   1
                l(4) =   1
     Q(r) pseudized with 0 coefficients 


     atomic species   valence    mass     pseudopotential
     Si                4.00    28.08600     Si( 1.00)
     O                 6.00    16.00000     O ( 1.00)

      6 Sym. Ops. (no inversion) found ( 4 have fractional translation)



   Cartesian axes

     site n.     atom                  positions (alat units)
         1        Si     tau(   1) = (  -0.2349350   0.4069194   0.3666663  )
         2        Si     tau(   2) = (   0.4698700   0.0000000   0.7333330  )
         3        Si     tau(   3) = (   0.2650650   0.4591060   1.0999996  )
         4        O      tau(   4) = (   0.2800500   0.2321814   0.8640500  )
         5        O      tau(   5) = (   0.6589000   0.1264397   0.4973833  )
         6        O      tau(   6) = (   0.5610500   0.5074043   0.1307167  )
         7        O      tau(   7) = (   0.0610500   0.3586211   0.2359500  )
         8        O      tau(   8) = (  -0.2199500   0.6338440   0.6026167  )
         9        O      tau(   9) = (   0.1589000   0.7395857   0.9692833  )

     number of k points=    13
                       cart. coord. in units 2pi/alat
        k(    1) = (   0.0000000   0.0000000   0.0000000), wk =   0.0312500
        k(    2) = (   0.0000000   0.0000000   0.2272727), wk =   0.0625000
        k(    3) = (   0.0000000   0.0000000  -0.4545455), wk =   0.0312500
        k(    4) = (   0.0000000   0.2886751   0.0000000), wk =   0.1875000
        k(    5) = (   0.0000000   0.2886751   0.2272727), wk =   0.1875000
        k(    6) = (   0.0000000   0.2886751  -0.4545455), wk =   0.1875000
        k(    7) = (   0.0000000  -0.5773503   0.0000000), wk =   0.0937500
        k(    8) = (   0.0000000  -0.5773503   0.2272727), wk =   0.1875000
        k(    9) = (   0.0000000  -0.5773503  -0.4545455), wk =   0.0937500
        k(   10) = (   0.2500000   0.4330127   0.0000000), wk =   0.1875000
        k(   11) = (   0.2500000   0.4330127   0.2272727), wk =   0.3750000
        k(   12) = (   0.2500000   0.4330127  -0.4545455), wk =   0.1875000
        k(   13) = (   0.0000000   0.2886751  -0.2272727), wk =   0.1875000

     Dense  grid:   291223 G-vectors     FFT dimensions: (  90,  90,  96)

     Estimated max dynamical RAM per process >      12.99 MB

     Estimated total dynamical RAM >       1.42 GB

     Initial potential from superposition of free atoms

     starting charge      45.3753, renormalised to      48.0000
     Starting wfcs are   60 randomized atomic wfcs

     total cpu time spent up to now is        1.5 secs

     per-process dynamical memory:    20.1 Mb

     Self-consistent Calculation

     iteration #  1     ecut=   200.00 Ry     beta= 0.70
     Davidson diagonalization with overlap
     ethr =  1.00E-02,  avg # of iterations =  3.0

     Threshold (ethr) on eigenvalues was too large:
     Diagonalizing with lowered threshold

     Davidson diagonalization with overlap
     ethr =  9.41E-04,  avg # of iterations =  2.0

     negative rho (up, down):  1.353E-03 0.000E+00

     total cpu time spent up to now is        2.3 secs

     total energy              =    -215.79308991 Ry
     estimated scf accuracy    <       0.44717361 Ry

     iteration #  2     ecut=   200.00 Ry     beta= 0.70
     Davidson diagonalization with overlap
     ethr =  9.32E-04,  avg # of iterations =  2.0

     negative rho (up, down):  8.124E-04 0.000E+00

     total cpu time spent up to now is        2.7 secs

     total energy              =    -215.91078563 Ry
     estimated scf accuracy    <       0.13498477 Ry

     iteration #  3     ecut=   200.00 Ry     beta= 0.70
     Davidson diagonalization with overlap
     ethr =  2.81E-04,  avg # of iterations =  2.0

     total cpu time spent up to now is        3.1 secs

     total energy              =    -215.93363004 Ry
     estimated scf accuracy    <       0.00457414 Ry

     iteration #  4     ecut=   200.00 Ry     beta= 0.70
     Davidson diagonalization with overlap
     ethr =  9.53E-06,  avg # of iterations =  3.2

     total cpu time spent up to now is        3.5 secs

     total energy              =    -215.93548606 Ry
     estimated scf accuracy    <       0.00162531 Ry

     iteration #  5     ecut=   200.00 Ry     beta= 0.70
     Davidson diagonalization with overlap
     ethr =  3.39E-06,  avg # of iterations =  2.0

     total cpu time spent up to now is        3.9 secs

     total energy              =    -215.93571549 Ry
     estimated scf accuracy    <       0.00009222 Ry

     iteration #  6     ecut=   200.00 Ry     beta= 0.70
     Davidson diagonalization with overlap
     ethr =  1.92E-07,  avg # of iterations =  3.9

     total cpu time spent up to now is        4.4 secs

     total energy              =    -215.93578017 Ry
     estimated scf accuracy    <       0.00002091 Ry

     iteration #  7     ecut=   200.00 Ry     beta= 0.70
     Davidson diagonalization with overlap
     ethr =  4.36E-08,  avg # of iterations =  2.1

     total cpu time spent up to now is        4.8 secs

     total energy              =    -215.93578394 Ry
     estimated scf accuracy    <       0.00000100 Ry

     iteration #  8     ecut=   200.00 Ry     beta= 0.70
     Davidson diagonalization with overlap
     ethr =  2.08E-09,  avg # of iterations =  5.0

     total cpu time spent up to now is        5.3 secs

     End of self-consistent calculation

          k = 0.0000 0.0000 0.0000 ( 36321 PWs)   bands (ev):

   -16.7731 -15.2342 -15.2342 -14.5902 -14.5444 -14.5444  -5.6923  -5.6923
    -2.9080  -2.8898  -2.7172  -2.7172  -0.3510  -0.3510  -0.0988   0.1546
     1.0851   1.0851   1.1137   1.5935   1.5935   1.9047   2.2693   2.2694

          k = 0.0000 0.0000 0.2273 ( 36388 PWs)   bands (ev):

   -16.6508 -15.7961 -14.7744 -14.5870 -14.5637 -14.5256  -6.4824  -4.6696
    -3.1329  -2.9978  -2.9584  -2.3502  -0.4123  -0.1237  -0.0134   0.3333
     0.8185   0.9728   1.0778   1.1073   1.5195   2.0558   2.3609   2.4875

          k = 0.0000 0.0000-0.4545 ( 36514 PWs)   bands (ev):

   -16.3044 -16.3044 -14.5920 -14.5781 -14.5781 -14.5175  -6.7823  -3.7289
    -3.7289  -3.0780  -3.0780  -2.1561  -0.1135  -0.1135  -0.0471   0.5823
     0.5823   0.7586   0.7586   1.0611   1.3832   2.3723   2.3723   2.4951

          k = 0.0000 0.2887 0.0000 ( 36418 PWs)   bands (ev):

   -16.5947 -15.4419 -15.2082 -14.6286 -14.5778 -14.5588  -5.7645  -5.3133
    -3.0164  -2.9447  -2.8536  -2.4255  -0.5292  -0.2281  -0.0520   0.4070
     0.5681   1.0024   1.0787   1.4999   1.5879   1.7507   2.3399   2.4297

          k = 0.0000 0.2887 0.2273 ( 36413 PWs)   bands (ev):

   -16.4916 -15.7648 -14.9984 -14.6170 -14.5754 -14.5585  -6.1499  -4.7262
    -3.4272  -2.9338  -2.6643  -2.3895  -0.5477  -0.0616  -0.0512   0.1899
     0.5575   1.0790   1.1365   1.2931   1.7236   1.7724   2.1877   2.5511

          k = 0.0000 0.2887-0.4545 ( 36438 PWs)   bands (ev):

   -16.2593 -16.1165 -14.8695 -14.6304 -14.5790 -14.5474  -6.3445  -4.1441
    -3.8137  -2.9079  -2.7960  -2.2705  -0.4104  -0.3942   0.1164   0.3468
     0.5029   1.0112   1.1070   1.2846   1.5067   2.1433   2.1707   2.4330

          k = 0.0000-0.5774 0.0000 ( 36412 PWs)   bands (ev):

   -16.2821 -15.8011 -15.1795 -14.6467 -14.6065 -14.5799  -5.8326  -4.8302
    -3.3586  -2.9150  -2.8948  -2.1189  -0.4703  -0.3017  -0.0955   0.2864
     0.5078   0.8456   0.9279   1.4810   1.5472   1.8006   2.3140   2.5457

          k = 0.0000-0.5774 0.2273 ( 36462 PWs)   bands (ev):

   -16.2485 -15.7845 -15.2480 -14.6504 -14.6091 -14.5694  -5.7623  -4.7736
    -3.6576  -2.8966  -2.6018  -2.2953  -0.5445  -0.4668   0.0723   0.2629
     0.6587   0.8318   1.1452   1.4224   1.6207   1.8641   2.1416   2.4644

          k = 0.0000-0.5774-0.4545 ( 36384 PWs)   bands (ev):

   -16.2112 -15.7671 -15.3166 -14.6717 -14.5905 -14.5667  -5.6856  -4.7149
    -3.8567  -2.7987  -2.5402  -2.4271  -0.6033  -0.5877   0.1556   0.4715
     0.4943   1.0329   1.3163   1.4413   1.7023   1.7582   1.9841   2.3904

          k = 0.2500 0.4330 0.0000 ( 36441 PWs)   bands (ev):

   -16.2909 -15.7756 -15.2056 -14.6432 -14.6031 -14.5775  -5.8623  -4.6957
    -3.6348  -2.8794  -2.7663  -2.1220  -0.4508  -0.2897  -0.1323   0.3990
     0.4678   0.8050   1.0816   1.2249   1.5162   1.9450   2.2753   2.5552

          k = 0.2500 0.4330 0.2273 ( 36432 PWs)   bands (ev):

   -16.2498 -15.7857 -15.2399 -14.6434 -14.6220 -14.5698  -5.7729  -4.6748
    -3.8172  -2.8596  -2.5794  -2.3032  -0.5868  -0.2989  -0.0922   0.3766
     0.6169   0.8271   1.1935   1.3757   1.6033   1.8994   2.1483   2.4271

          k = 0.2500 0.4330-0.4545 ( 36430 PWs)   bands (ev):

   -16.2010 -15.8052 -15.2712 -14.6657 -14.5924 -14.5895  -5.6703  -4.6697
    -3.9605  -2.7041  -2.6208  -2.4249  -0.6440  -0.4206   0.0213   0.4063
     0.6339   0.8631   1.4387   1.5299   1.6436   1.8716   2.0402   2.1947

          k = 0.0000 0.2887-0.2273 ( 36413 PWs)   bands (ev):

   -16.4894 -15.7753 -14.9737 -14.6184 -14.6013 -14.5480  -6.1474  -4.7252
    -3.4259  -2.9152  -2.6424  -2.4530  -0.5871  -0.1161   0.0093   0.3118
     0.6124   0.9646   1.0816   1.3146   1.6620   1.8490   2.2770   2.4693

     highest occupied level (ev):     2.5552

!    total energy              =    -215.93578512 Ry
     estimated scf accuracy    <       0.00000004 Ry

     The total energy is the sum of the following terms:
     one-electron contribution =    -103.42206430 Ry
     hartree contribution      =      77.24829058 Ry
     xc contribution           =     -50.79940779 Ry
     ewald contribution        =    -138.96260361 Ry

     convergence has been achieved in   8 iterations

     Writing all to output data dir ./quartz-scf-us/quartz.save/ :
     XML data file, charge density, pseudopotentials, collected wavefunctions

     init_run     :      0.92s CPU      1.00s WALL (       1 calls)
     electrons    :      3.64s CPU      3.88s WALL (       1 calls)

     Called by init_run:
     wfcinit      :      0.26s CPU      0.28s WALL (       1 calls)
     potinit      :      0.04s CPU      0.05s WALL (       1 calls)
     hinit0       :      0.46s CPU      0.47s WALL (       1 calls)

     Called by electrons:
     c_bands      :      2.90s CPU      2.95s WALL (       9 calls)
     sum_band     :      0.49s CPU      0.51s WALL (       9 calls)
     v_of_rho     :      0.18s CPU      0.19s WALL (       9 calls)
     newd         :      0.03s CPU      0.04s WALL (       9 calls)
     mix_rho      :      0.03s CPU      0.03s WALL (       9 calls)

     Called by c_bands:
     init_us_2    :      0.06s CPU      0.06s WALL (      76 calls)
     cegterg      :      2.80s CPU      2.84s WALL (      36 calls)

     Called by *egterg:
     cdiaghg      :      0.13s CPU      0.14s WALL (     136 calls)
     h_psi        :      2.45s CPU      2.48s WALL (     144 calls)
     s_psi        :      0.09s CPU      0.09s WALL (     144 calls)
     g_psi        :      0.01s CPU      0.01s WALL (     104 calls)

     Called by h_psi:
     h_psi:calbec :      0.17s CPU      0.17s WALL (     144 calls)
     vloc_psi     :      2.17s CPU      2.19s WALL (     144 calls)
     add_vuspsi   :      0.10s CPU      0.10s WALL (     144 calls)

     General routines
     calbec       :      0.20s CPU      0.20s WALL (     180 calls)
     fft          :      0.49s CPU      0.49s WALL (      99 calls)
     ffts         :      0.01s CPU      0.01s WALL (       9 calls)
     fftw         :      2.21s CPU      2.23s WALL (    6480 calls)

     Parallel routines

     PWSCF        :      5.12s CPU      5.98s WALL


   This run was terminated on:  14:33:14   3Feb2026            

=------------------------------------------------------------------------------=
   JOB DONE.
=------------------------------------------------------------------------------=
