
     Program PWSCF v.7.3.1 starts on  3Feb2026 at 14:29:11 

     This program is part of the open-source Quantum ESPRESSO suite
     for quantum simulation of materials; please cite
         "P. Giannozzi et al., J. Phys.:Condens. Matter 21 395502 (2009);
         "P. Giannozzi et al., J. Phys.:Condens. Matter 29 465901 (2017);
         "P. Giannozzi et al., J. Chem. Phys. 152 154105 (2020);
          URL http://www.quantum-espresso.org", 
     in publications or presentations arising from this work. More details at
     http://www.quantum-espresso.org/quote

     Parallel version (MPI), running on   128 processors

     MPI processes distributed on     1 nodes
     241138 MiB available memory on the printing compute node when the environment starts

     Waiting for input...
     Reading input from standard input

     Current dimensions of program PWSCF are:
     Max number of different atomic species (ntypx) = 10
     Max number of k-points (npk) =  40000
     Max angular momentum in pseudopotentials (lmaxx) =  4
     WARNING: atomic wfc #  2 for atom typeSi has zero norm
     WARNING: atomic wfc #  2 for atom typeO has zero norm
     WARNING: atomic wfc #  4 for atom typeO has zero norm
     WARNING: atomic wfc #  5 for atom typeO has zero norm

     K-points division:     npool     =       8
     R & G space division:  proc/nbgrp/npool/nimage =      16
     Subspace diagonalization in iterative solution of the eigenvalue problem:
     a serial algorithm will be used


     Parallelization info
     --------------------
     sticks:   dense  smooth     PW     G-vecs:    dense   smooth      PW
     Min          44      44     13                 1055     1055     169
     Max          47      47     14                 1056     1056     172
     Sum         721     721    211                16883    16883    2725

     Using Slab Decomposition



     bravais-lattice index     =            4
     lattice parameter (alat)  =       9.2850  a.u.
     unit-cell volume          =     762.5513 (a.u.)^3
     number of atoms/cell      =            9
     number of atomic types    =            2
     number of electrons       =        48.00
     number of Kohn-Sham states=           24
     kinetic-energy cutoff     =      30.0000  Ry
     charge density cutoff     =     120.0000  Ry
     scf convergence threshold =      1.0E-07
     mixing beta               =       0.7000
     number of iterations used =            8  plain     mixing
     Exchange-correlation=  SLA  PW   PBX  PBC
                           (   1   4   3   4   0   0   0)

     celldm(1)=   9.285000  celldm(2)=   0.000000  celldm(3)=   1.100000
     celldm(4)=   0.000000  celldm(5)=   0.000000  celldm(6)=   0.000000

     crystal axes: (cart. coord. in units of alat)
               a(1) = (   1.000000   0.000000   0.000000 )  
               a(2) = (  -0.500000   0.866025   0.000000 )  
               a(3) = (   0.000000   0.000000   1.100000 )  

     reciprocal axes: (cart. coord. in units 2 pi/alat)
               b(1) = (  1.000000  0.577350 -0.000000 )  
               b(2) = (  0.000000  1.154701  0.000000 )  
               b(3) = (  0.000000 -0.000000  0.909091 )  


     PseudoPot. # 1 for Si read from file:
     ./Si.pbe-van_gipaw.UPF
     MD5 check sum: 907f546cb6949dd03cdbc0a9de4be0c7
     Pseudo is Ultrasoft, Zval =  4.0
     Generated by new atomic code, or converted to UPF format
     Using radial grid of 1141 points,  4 beta functions with: 
                l(1) =   0
                l(2) =   0
                l(3) =   1
                l(4) =   1
     Q(r) pseudized with 0 coefficients 


     PseudoPot. # 2 for O  read from file:
     ./O.pbe-van_gipaw.UPF
     MD5 check sum: 5ce2a047509d4f331db576c963e74b29
     Pseudo is Ultrasoft, Zval =  6.0
     Generated by new atomic code, or converted to UPF format
     Using radial grid of 1095 points,  4 beta functions with: 
                l(1) =   0
                l(2) =   0
                l(3) =   1
                l(4) =   1
     Q(r) pseudized with 0 coefficients 


     atomic species   valence    mass     pseudopotential
     Si                4.00    28.08600     Si( 1.00)
     O                 6.00    16.00000     O ( 1.00)

      6 Sym. Ops. (no inversion) found ( 4 have fractional translation)



   Cartesian axes

     site n.     atom                  positions (alat units)
         1        Si     tau(   1) = (  -0.2349350   0.4069194   0.3666663  )
         2        Si     tau(   2) = (   0.4698700   0.0000000   0.7333330  )
         3        Si     tau(   3) = (   0.2650650   0.4591060   1.0999996  )
         4        O      tau(   4) = (   0.2800500   0.2321814   0.8640500  )
         5        O      tau(   5) = (   0.6589000   0.1264397   0.4973833  )
         6        O      tau(   6) = (   0.5610500   0.5074043   0.1307167  )
         7        O      tau(   7) = (   0.0610500   0.3586211   0.2359500  )
         8        O      tau(   8) = (  -0.2199500   0.6338440   0.6026167  )
         9        O      tau(   9) = (   0.1589000   0.7395857   0.9692833  )

     number of k points=    13
                       cart. coord. in units 2pi/alat
        k(    1) = (   0.0000000   0.0000000   0.0000000), wk =   0.0312500
        k(    2) = (   0.0000000   0.0000000   0.2272727), wk =   0.0625000
        k(    3) = (   0.0000000   0.0000000  -0.4545455), wk =   0.0312500
        k(    4) = (   0.0000000   0.2886751   0.0000000), wk =   0.1875000
        k(    5) = (   0.0000000   0.2886751   0.2272727), wk =   0.1875000
        k(    6) = (   0.0000000   0.2886751  -0.4545455), wk =   0.1875000
        k(    7) = (   0.0000000  -0.5773503   0.0000000), wk =   0.0937500
        k(    8) = (   0.0000000  -0.5773503   0.2272727), wk =   0.1875000
        k(    9) = (   0.0000000  -0.5773503  -0.4545455), wk =   0.0937500
        k(   10) = (   0.2500000   0.4330127   0.0000000), wk =   0.1875000
        k(   11) = (   0.2500000   0.4330127   0.2272727), wk =   0.3750000
        k(   12) = (   0.2500000   0.4330127  -0.4545455), wk =   0.1875000
        k(   13) = (   0.0000000   0.2886751  -0.2272727), wk =   0.1875000

     Dense  grid:    16883 G-vectors     FFT dimensions: (  36,  36,  36)

     Estimated max dynamical RAM per process >       1.95 MB

     Estimated total dynamical RAM >     221.14 MB

     Initial potential from superposition of free atoms

     starting charge      45.3753, renormalised to      48.0000
     Starting wfcs are   60 randomized atomic wfcs

     total cpu time spent up to now is        0.9 secs

     per-process dynamical memory:    10.1 Mb

     Self-consistent Calculation

     iteration #  1     ecut=    30.00 Ry     beta= 0.70
     Davidson diagonalization with overlap
     ethr =  1.00E-02,  avg # of iterations =  3.0

     Threshold (ethr) on eigenvalues was too large:
     Diagonalizing with lowered threshold

     Davidson diagonalization with overlap
     ethr =  9.49E-04,  avg # of iterations =  2.0

     negative rho (up, down):  4.951E-04 0.000E+00

     total cpu time spent up to now is        1.0 secs

     total energy              =    -215.78180201 Ry
     estimated scf accuracy    <       0.45511467 Ry

     iteration #  2     ecut=    30.00 Ry     beta= 0.70
     Davidson diagonalization with overlap
     ethr =  9.48E-04,  avg # of iterations =  2.0

     negative rho (up, down):  1.683E-04 0.000E+00

     total cpu time spent up to now is        1.0 secs

     total energy              =    -215.90232813 Ry
     estimated scf accuracy    <       0.14157885 Ry

     iteration #  3     ecut=    30.00 Ry     beta= 0.70
     Davidson diagonalization with overlap
     ethr =  2.95E-04,  avg # of iterations =  2.0

     total cpu time spent up to now is        1.1 secs

     total energy              =    -215.92571044 Ry
     estimated scf accuracy    <       0.00465201 Ry

     iteration #  4     ecut=    30.00 Ry     beta= 0.70
     Davidson diagonalization with overlap
     ethr =  9.69E-06,  avg # of iterations =  3.2

     total cpu time spent up to now is        1.1 secs

     total energy              =    -215.92754680 Ry
     estimated scf accuracy    <       0.00164199 Ry

     iteration #  5     ecut=    30.00 Ry     beta= 0.70
     Davidson diagonalization with overlap
     ethr =  3.42E-06,  avg # of iterations =  2.0

     total cpu time spent up to now is        1.2 secs

     total energy              =    -215.92772723 Ry
     estimated scf accuracy    <       0.00011141 Ry

     iteration #  6     ecut=    30.00 Ry     beta= 0.70
     Davidson diagonalization with overlap
     ethr =  2.32E-07,  avg # of iterations =  4.4

     total cpu time spent up to now is        1.2 secs

     total energy              =    -215.92778730 Ry
     estimated scf accuracy    <       0.00003663 Ry

     iteration #  7     ecut=    30.00 Ry     beta= 0.70
     Davidson diagonalization with overlap
     ethr =  7.63E-08,  avg # of iterations =  2.0

     total cpu time spent up to now is        1.3 secs

     total energy              =    -215.92779116 Ry
     estimated scf accuracy    <       0.00000172 Ry

     iteration #  8     ecut=    30.00 Ry     beta= 0.70
     Davidson diagonalization with overlap
     ethr =  3.59E-09,  avg # of iterations =  4.2

     total cpu time spent up to now is        1.3 secs

     total energy              =    -215.92779195 Ry
     estimated scf accuracy    <       0.00000016 Ry

     iteration #  9     ecut=    30.00 Ry     beta= 0.70
     Davidson diagonalization with overlap
     ethr =  3.42E-10,  avg # of iterations =  3.3

     total cpu time spent up to now is        1.4 secs

     End of self-consistent calculation

          k = 0.0000 0.0000 0.0000 (  2099 PWs)   bands (ev):

   -16.7623 -15.2220 -15.2220 -14.5779 -14.5317 -14.5316  -5.6829  -5.6828
    -2.8982  -2.8798  -2.7077  -2.7077  -0.3448  -0.3448  -0.0919   0.1645
     1.0957   1.0958   1.1223   1.6017   1.6017   1.9121   2.2761   2.2761

          k = 0.0000 0.0000 0.2273 (  2088 PWs)   bands (ev):

   -16.6399 -15.7840 -14.7618 -14.5746 -14.5510 -14.5125  -6.4732  -4.6600
    -3.1231  -2.9884  -2.9485  -2.3404  -0.4059  -0.1170  -0.0056   0.3433
     0.8254   0.9824   1.0883   1.1155   1.5275   2.0632   2.3689   2.4944

          k = 0.0000 0.0000-0.4545 (  2082 PWs)   bands (ev):

   -16.2929 -16.2929 -14.5791 -14.5656 -14.5656 -14.5044  -6.7731  -3.7191
    -3.7191  -3.0685  -3.0685  -2.1461  -0.1053  -0.1053  -0.0404   0.5883
     0.5883   0.7684   0.7684   1.0714   1.3915   2.3794   2.3794   2.5035

          k = 0.0000 0.2887 0.0000 (  2092 PWs)   bands (ev):

   -16.5836 -15.4297 -15.1959 -14.6162 -14.5652 -14.5461  -5.7550  -5.3038
    -3.0068  -2.9352  -2.8437  -2.4156  -0.5227  -0.2222  -0.0440   0.4164
     0.5759   1.0119   1.0870   1.5086   1.5960   1.7588   2.3476   2.4372

          k = 0.0000 0.2887 0.2273 (  2117 PWs)   bands (ev):

   -16.4806 -15.7531 -14.9862 -14.6046 -14.5629 -14.5457  -6.1408  -4.7166
    -3.4178  -2.9241  -2.6546  -2.3798  -0.5415  -0.0536  -0.0441   0.1975
     0.5656   1.0871   1.1454   1.3027   1.7316   1.7805   2.1951   2.5590

          k = 0.0000 0.2887-0.4545 (  2122 PWs)   bands (ev):

   -16.2480 -16.1051 -14.8573 -14.6181 -14.5664 -14.5347  -6.3355  -4.1346
    -3.8040  -2.8985  -2.7863  -2.2608  -0.4031  -0.3875   0.1233   0.3544
     0.5114   1.0194   1.1154   1.2944   1.5151   2.1510   2.1782   2.4411

          k = 0.0000-0.5774 0.0000 (  2122 PWs)   bands (ev):

   -16.2710 -15.7896 -15.1671 -14.6344 -14.5941 -14.5674  -5.8233  -4.8209
    -3.3486  -2.9053  -2.8857  -2.1085  -0.4639  -0.2939  -0.0908   0.2940
     0.5165   0.8529   0.9370   1.4908   1.5550   1.8081   2.3231   2.5536

          k = 0.0000-0.5774 0.2273 (  2118 PWs)   bands (ev):

   -16.2372 -15.7730 -15.2359 -14.6380 -14.5965 -14.5569  -5.7531  -4.7641
    -3.6477  -2.8872  -2.5923  -2.2854  -0.5381  -0.4599   0.0785   0.2713
     0.6674   0.8395   1.1533   1.4308   1.6296   1.8721   2.1506   2.4722

          k = 0.0000-0.5774-0.4545 (  2112 PWs)   bands (ev):

   -16.1996 -15.7554 -15.3047 -14.6595 -14.5778 -14.5542  -5.6764  -4.7050
    -3.8467  -2.7898  -2.5305  -2.4177  -0.5967  -0.5813   0.1638   0.4791
     0.5032   1.0402   1.3239   1.4496   1.7107   1.7678   1.9925   2.3983

          k = 0.2500 0.4330 0.0000 (  2124 PWs)   bands (ev):

   -16.2798 -15.7639 -15.1936 -14.6308 -14.5907 -14.5650  -5.8530  -4.6862
    -3.6252  -2.8701  -2.7565  -2.1118  -0.4438  -0.2839  -0.1257   0.4062
     0.4764   0.8136   1.0894   1.2336   1.5244   1.9537   2.2832   2.5637

          k = 0.2500 0.4330 0.2273 (  2124 PWs)   bands (ev):

   -16.2385 -15.7740 -15.2279 -14.6310 -14.6095 -14.5572  -5.7636  -4.6653
    -3.8075  -2.8502  -2.5700  -2.2934  -0.5801  -0.2919  -0.0858   0.3843
     0.6258   0.8352   1.2020   1.3835   1.6118   1.9082   2.1560   2.4355

          k = 0.2500 0.4330-0.4545 (  2128 PWs)   bands (ev):

   -16.1896 -15.7936 -15.2594 -14.6534 -14.5799 -14.5770  -5.6611  -4.6602
    -3.9506  -2.6950  -2.6112  -2.4156  -0.6373  -0.4140   0.0289   0.4137
     0.6436   0.8705   1.4470   1.5384   1.6520   1.8806   2.0476   2.2029

          k = 0.0000 0.2887-0.2273 (  2117 PWs)   bands (ev):

   -16.4784 -15.7636 -14.9615 -14.6060 -14.5889 -14.5353  -6.1382  -4.7156
    -3.4165  -2.9055  -2.6328  -2.4433  -0.5807  -0.1083   0.0161   0.3192
     0.6212   0.9734   1.0905   1.3231   1.6706   1.8564   2.2850   2.4770

     highest occupied level (ev):     2.5637

!    total energy              =    -215.92779200 Ry
     estimated scf accuracy    <          5.8E-10 Ry

     The total energy is the sum of the following terms:
     one-electron contribution =    -103.43615780 Ry
     hartree contribution      =      77.27473322 Ry
     xc contribution           =     -50.80376380 Ry
     ewald contribution        =    -138.96260362 Ry

     convergence has been achieved in   9 iterations

     Writing all to output data dir ./quartz-scf-us/quartz.save/ :
     XML data file, charge density, pseudopotentials, collected wavefunctions

     init_run     :      0.35s CPU      0.39s WALL (       1 calls)
     electrons    :      0.43s CPU      0.49s WALL (       1 calls)

     Called by init_run:
     wfcinit      :      0.03s CPU      0.04s WALL (       1 calls)
     potinit      :      0.01s CPU      0.02s WALL (       1 calls)
     hinit0       :      0.28s CPU      0.29s WALL (       1 calls)

     Called by electrons:
     c_bands      :      0.34s CPU      0.35s WALL (      10 calls)
     sum_band     :      0.05s CPU      0.07s WALL (      10 calls)
     v_of_rho     :      0.03s CPU      0.04s WALL (      10 calls)
     newd         :      0.01s CPU      0.01s WALL (      10 calls)
     mix_rho      :      0.00s CPU      0.00s WALL (      10 calls)

     Called by c_bands:
     init_us_2    :      0.00s CPU      0.00s WALL (      42 calls)
     cegterg      :      0.31s CPU      0.33s WALL (      20 calls)

     Called by *egterg:
     cdiaghg      :      0.07s CPU      0.07s WALL (      73 calls)
     h_psi        :      0.24s CPU      0.25s WALL (      77 calls)
     s_psi        :      0.01s CPU      0.01s WALL (      77 calls)
     g_psi        :      0.00s CPU      0.00s WALL (      55 calls)

     Called by h_psi:
     h_psi:calbec :      0.02s CPU      0.02s WALL (      77 calls)
     vloc_psi     :      0.22s CPU      0.23s WALL (      77 calls)
     add_vuspsi   :      0.01s CPU      0.01s WALL (      77 calls)

     General routines
     calbec       :      0.02s CPU      0.02s WALL (      97 calls)
     fft          :      0.27s CPU      0.27s WALL (     110 calls)
     ffts         :      0.00s CPU      0.00s WALL (      10 calls)
     fftw         :      0.23s CPU      0.24s WALL (    3536 calls)

     Parallel routines

     PWSCF        :      1.22s CPU      1.46s WALL


   This run was terminated on:  14:29:12   3Feb2026            

=------------------------------------------------------------------------------=
   JOB DONE.
=------------------------------------------------------------------------------=
