
     Program PWSCF v.7.3.1 starts on  3Feb2026 at 14:29:19 

     This program is part of the open-source Quantum ESPRESSO suite
     for quantum simulation of materials; please cite
         "P. Giannozzi et al., J. Phys.:Condens. Matter 21 395502 (2009);
         "P. Giannozzi et al., J. Phys.:Condens. Matter 29 465901 (2017);
         "P. Giannozzi et al., J. Chem. Phys. 152 154105 (2020);
          URL http://www.quantum-espresso.org", 
     in publications or presentations arising from this work. More details at
     http://www.quantum-espresso.org/quote

     Parallel version (MPI), running on   128 processors

     MPI processes distributed on     1 nodes
     241131 MiB available memory on the printing compute node when the environment starts

     Waiting for input...
     Reading input from standard input

     Current dimensions of program PWSCF are:
     Max number of different atomic species (ntypx) = 10
     Max number of k-points (npk) =  40000
     Max angular momentum in pseudopotentials (lmaxx) =  4
     WARNING: atomic wfc #  2 for atom typeSi has zero norm
     WARNING: atomic wfc #  2 for atom typeO has zero norm
     WARNING: atomic wfc #  4 for atom typeO has zero norm
     WARNING: atomic wfc #  5 for atom typeO has zero norm

     K-points division:     npool     =       8
     R & G space division:  proc/nbgrp/npool/nimage =      16
     Subspace diagonalization in iterative solution of the eigenvalue problem:
     a serial algorithm will be used


     Parallelization info
     --------------------
     sticks:   dense  smooth     PW     G-vecs:    dense   smooth      PW
     Min          59      59     17                 1633     1633     253
     Max          60      60     19                 1638     1638     254
     Sum         955     955    283                26171    26171    4049

     Using Slab Decomposition



     bravais-lattice index     =            4
     lattice parameter (alat)  =       9.2850  a.u.
     unit-cell volume          =     762.5513 (a.u.)^3
     number of atoms/cell      =            9
     number of atomic types    =            2
     number of electrons       =        48.00
     number of Kohn-Sham states=           24
     kinetic-energy cutoff     =      40.0000  Ry
     charge density cutoff     =     160.0000  Ry
     scf convergence threshold =      1.0E-07
     mixing beta               =       0.7000
     number of iterations used =            8  plain     mixing
     Exchange-correlation=  SLA  PW   PBX  PBC
                           (   1   4   3   4   0   0   0)

     celldm(1)=   9.285000  celldm(2)=   0.000000  celldm(3)=   1.100000
     celldm(4)=   0.000000  celldm(5)=   0.000000  celldm(6)=   0.000000

     crystal axes: (cart. coord. in units of alat)
               a(1) = (   1.000000   0.000000   0.000000 )  
               a(2) = (  -0.500000   0.866025   0.000000 )  
               a(3) = (   0.000000   0.000000   1.100000 )  

     reciprocal axes: (cart. coord. in units 2 pi/alat)
               b(1) = (  1.000000  0.577350 -0.000000 )  
               b(2) = (  0.000000  1.154701  0.000000 )  
               b(3) = (  0.000000 -0.000000  0.909091 )  


     PseudoPot. # 1 for Si read from file:
     ./Si.pbe-van_gipaw.UPF
     MD5 check sum: 907f546cb6949dd03cdbc0a9de4be0c7
     Pseudo is Ultrasoft, Zval =  4.0
     Generated by new atomic code, or converted to UPF format
     Using radial grid of 1141 points,  4 beta functions with: 
                l(1) =   0
                l(2) =   0
                l(3) =   1
                l(4) =   1
     Q(r) pseudized with 0 coefficients 


     PseudoPot. # 2 for O  read from file:
     ./O.pbe-van_gipaw.UPF
     MD5 check sum: 5ce2a047509d4f331db576c963e74b29
     Pseudo is Ultrasoft, Zval =  6.0
     Generated by new atomic code, or converted to UPF format
     Using radial grid of 1095 points,  4 beta functions with: 
                l(1) =   0
                l(2) =   0
                l(3) =   1
                l(4) =   1
     Q(r) pseudized with 0 coefficients 


     atomic species   valence    mass     pseudopotential
     Si                4.00    28.08600     Si( 1.00)
     O                 6.00    16.00000     O ( 1.00)

      6 Sym. Ops. (no inversion) found ( 4 have fractional translation)



   Cartesian axes

     site n.     atom                  positions (alat units)
         1        Si     tau(   1) = (  -0.2349350   0.4069194   0.3666663  )
         2        Si     tau(   2) = (   0.4698700   0.0000000   0.7333330  )
         3        Si     tau(   3) = (   0.2650650   0.4591060   1.0999996  )
         4        O      tau(   4) = (   0.2800500   0.2321814   0.8640500  )
         5        O      tau(   5) = (   0.6589000   0.1264397   0.4973833  )
         6        O      tau(   6) = (   0.5610500   0.5074043   0.1307167  )
         7        O      tau(   7) = (   0.0610500   0.3586211   0.2359500  )
         8        O      tau(   8) = (  -0.2199500   0.6338440   0.6026167  )
         9        O      tau(   9) = (   0.1589000   0.7395857   0.9692833  )

     number of k points=    13
                       cart. coord. in units 2pi/alat
        k(    1) = (   0.0000000   0.0000000   0.0000000), wk =   0.0312500
        k(    2) = (   0.0000000   0.0000000   0.2272727), wk =   0.0625000
        k(    3) = (   0.0000000   0.0000000  -0.4545455), wk =   0.0312500
        k(    4) = (   0.0000000   0.2886751   0.0000000), wk =   0.1875000
        k(    5) = (   0.0000000   0.2886751   0.2272727), wk =   0.1875000
        k(    6) = (   0.0000000   0.2886751  -0.4545455), wk =   0.1875000
        k(    7) = (   0.0000000  -0.5773503   0.0000000), wk =   0.0937500
        k(    8) = (   0.0000000  -0.5773503   0.2272727), wk =   0.1875000
        k(    9) = (   0.0000000  -0.5773503  -0.4545455), wk =   0.0937500
        k(   10) = (   0.2500000   0.4330127   0.0000000), wk =   0.1875000
        k(   11) = (   0.2500000   0.4330127   0.2272727), wk =   0.3750000
        k(   12) = (   0.2500000   0.4330127  -0.4545455), wk =   0.1875000
        k(   13) = (   0.0000000   0.2886751  -0.2272727), wk =   0.1875000

     Dense  grid:    26171 G-vectors     FFT dimensions: (  40,  40,  45)

     Estimated max dynamical RAM per process >       2.67 MB

     Estimated total dynamical RAM >     296.33 MB

     Initial potential from superposition of free atoms

     starting charge      45.3753, renormalised to      48.0000
     Starting wfcs are   60 randomized atomic wfcs

     total cpu time spent up to now is        0.9 secs

     per-process dynamical memory:    10.6 Mb

     Self-consistent Calculation

     iteration #  1     ecut=    40.00 Ry     beta= 0.70
     Davidson diagonalization with overlap
     ethr =  1.00E-02,  avg # of iterations =  3.0

     Threshold (ethr) on eigenvalues was too large:
     Diagonalizing with lowered threshold

     Davidson diagonalization with overlap
     ethr =  9.34E-04,  avg # of iterations =  2.0

     negative rho (up, down):  1.229E-03 0.000E+00

     total cpu time spent up to now is        1.0 secs

     total energy              =    -215.78605973 Ry
     estimated scf accuracy    <       0.44770407 Ry

     iteration #  2     ecut=    40.00 Ry     beta= 0.70
     Davidson diagonalization with overlap
     ethr =  9.33E-04,  avg # of iterations =  2.0

     negative rho (up, down):  7.072E-04 0.000E+00

     total cpu time spent up to now is        1.1 secs

     total energy              =    -215.90363814 Ry
     estimated scf accuracy    <       0.13664274 Ry

     iteration #  3     ecut=    40.00 Ry     beta= 0.70
     Davidson diagonalization with overlap
     ethr =  2.85E-04,  avg # of iterations =  2.0

     total cpu time spent up to now is        1.1 secs

     total energy              =    -215.92688908 Ry
     estimated scf accuracy    <       0.00459332 Ry

     iteration #  4     ecut=    40.00 Ry     beta= 0.70
     Davidson diagonalization with overlap
     ethr =  9.57E-06,  avg # of iterations =  3.2

     total cpu time spent up to now is        1.2 secs

     total energy              =    -215.92859088 Ry
     estimated scf accuracy    <       0.00158947 Ry

     iteration #  5     ecut=    40.00 Ry     beta= 0.70
     Davidson diagonalization with overlap
     ethr =  3.31E-06,  avg # of iterations =  2.0

     total cpu time spent up to now is        1.3 secs

     total energy              =    -215.92880172 Ry
     estimated scf accuracy    <       0.00007770 Ry

     iteration #  6     ecut=    40.00 Ry     beta= 0.70
     Davidson diagonalization with overlap
     ethr =  1.62E-07,  avg # of iterations =  4.6

     total cpu time spent up to now is        1.3 secs

     total energy              =    -215.92885226 Ry
     estimated scf accuracy    <       0.00003229 Ry

     iteration #  7     ecut=    40.00 Ry     beta= 0.70
     Davidson diagonalization with overlap
     ethr =  6.73E-08,  avg # of iterations =  2.0

     total cpu time spent up to now is        1.4 secs

     total energy              =    -215.92885575 Ry
     estimated scf accuracy    <       0.00000126 Ry

     iteration #  8     ecut=    40.00 Ry     beta= 0.70
     Davidson diagonalization with overlap
     ethr =  2.63E-09,  avg # of iterations =  4.7

     total cpu time spent up to now is        1.4 secs

     total energy              =    -215.92885645 Ry
     estimated scf accuracy    <       0.00000017 Ry

     iteration #  9     ecut=    40.00 Ry     beta= 0.70
     Davidson diagonalization with overlap
     ethr =  3.61E-10,  avg # of iterations =  2.3

     total cpu time spent up to now is        1.5 secs

     End of self-consistent calculation

          k = 0.0000 0.0000 0.0000 (  3273 PWs)   bands (ev):

   -16.7719 -15.2330 -15.2330 -14.5891 -14.5432 -14.5432  -5.6904  -5.6904
    -2.9052  -2.8873  -2.7147  -2.7147  -0.3493  -0.3493  -0.0968   0.1566
     1.0877   1.0877   1.1160   1.5962   1.5962   1.9074   2.2717   2.2717

          k = 0.0000 0.0000 0.2273 (  3249 PWs)   bands (ev):

   -16.6496 -15.7949 -14.7732 -14.5859 -14.5626 -14.5244  -6.4806  -4.6673
    -3.1302  -2.9954  -2.9559  -2.3475  -0.4106  -0.1217  -0.0114   0.3358
     0.8206   0.9754   1.0801   1.1098   1.5226   2.0587   2.3633   2.4902

          k = 0.0000 0.0000-0.4545 (  3296 PWs)   bands (ev):

   -16.3032 -16.3032 -14.5909 -14.5770 -14.5770 -14.5163  -6.7807  -3.7264
    -3.7264  -3.0759  -3.0758  -2.1534  -0.1116  -0.1116  -0.0454   0.5841
     0.5841   0.7611   0.7611   1.0631   1.3863   2.3750   2.3750   2.4973

          k = 0.0000 0.2887 0.0000 (  3268 PWs)   bands (ev):

   -16.5935 -15.4407 -15.2070 -14.6275 -14.5766 -14.5577  -5.7626  -5.3114
    -3.0139  -2.9420  -2.8510  -2.4227  -0.5275  -0.2263  -0.0501   0.4092
     0.5705   1.0051   1.0809   1.5024   1.5905   1.7533   2.3424   2.4322

          k = 0.0000 0.2887 0.2273 (  3250 PWs)   bands (ev):

   -16.4904 -15.7636 -14.9973 -14.6159 -14.5743 -14.5573  -6.1481  -4.7240
    -3.4247  -2.9313  -2.6614  -2.3866  -0.5459  -0.0595  -0.0493   0.1921
     0.5599   1.0815   1.1389   1.2955   1.7262   1.7753   2.1901   2.5538

          k = 0.0000 0.2887-0.4545 (  3262 PWs)   bands (ev):

   -16.2580 -16.1153 -14.8683 -14.6293 -14.5778 -14.5462  -6.3428  -4.1418
    -3.8113  -2.9055  -2.7934  -2.2675  -0.4086  -0.3925   0.1183   0.3491
     0.5052   1.0135   1.1095   1.2871   1.5096   2.1458   2.1733   2.4356

          k = 0.0000-0.5774 0.0000 (  3282 PWs)   bands (ev):

   -16.2809 -15.8000 -15.1783 -14.6456 -14.6054 -14.5788  -5.8309  -4.8284
    -3.3560  -2.9125  -2.8922  -2.1156  -0.4684  -0.2998  -0.0938   0.2886
     0.5100   0.8475   0.9303   1.4834   1.5499   1.8029   2.3166   2.5483

          k = 0.0000-0.5774 0.2273 (  3264 PWs)   bands (ev):

   -16.2473 -15.7834 -15.2468 -14.6493 -14.6079 -14.5682  -5.7605  -4.7716
    -3.6550  -2.8942  -2.5989  -2.2923  -0.5426  -0.4650   0.0742   0.2651
     0.6609   0.8341   1.1475   1.4249   1.6233   1.8664   2.1442   2.4670

          k = 0.0000-0.5774-0.4545 (  3252 PWs)   bands (ev):

   -16.2099 -15.7659 -15.3155 -14.6706 -14.5894 -14.5655  -5.6838  -4.7127
    -3.8543  -2.7964  -2.5373  -2.4239  -0.6013  -0.5859   0.1580   0.4737
     0.4963   1.0353   1.3185   1.4438   1.7047   1.7611   1.9865   2.3930

          k = 0.2500 0.4330 0.0000 (  3253 PWs)   bands (ev):

   -16.2897 -15.7744 -15.2044 -14.6421 -14.6020 -14.5764  -5.8604  -4.6937
    -3.6324  -2.8766  -2.7635  -2.1188  -0.4488  -0.2879  -0.1302   0.4011
     0.4701   0.8076   1.0841   1.2273   1.5187   1.9475   2.2779   2.5578

          k = 0.2500 0.4330 0.2273 (  3259 PWs)   bands (ev):

   -16.2486 -15.7845 -15.2388 -14.6422 -14.6208 -14.5687  -5.7710  -4.6727
    -3.8149  -2.8570  -2.5764  -2.3003  -0.5850  -0.2968  -0.0901   0.3788
     0.6191   0.8294   1.1960   1.3782   1.6058   1.9020   2.1507   2.4296

          k = 0.2500 0.4330-0.4545 (  3240 PWs)   bands (ev):

   -16.1997 -15.8040 -15.2701 -14.6646 -14.5912 -14.5883  -5.6684  -4.6675
    -3.9582  -2.7016  -2.6180  -2.4218  -0.6423  -0.4185   0.0238   0.4084
     0.6362   0.8654   1.4412   1.5326   1.6462   1.8742   2.0427   2.1971

          k = 0.0000 0.2887-0.2273 (  3250 PWs)   bands (ev):

   -16.4882 -15.7741 -14.9726 -14.6173 -14.6002 -14.5468  -6.1457  -4.7229
    -3.4235  -2.9127  -2.6395  -2.4502  -0.5853  -0.1141   0.0112   0.3140
     0.6148   0.9669   1.0843   1.3170   1.6648   1.8516   2.2795   2.4721

     highest occupied level (ev):     2.5578

!    total energy              =    -215.92885649 Ry
     estimated scf accuracy    <          5.8E-10 Ry

     The total energy is the sum of the following terms:
     one-electron contribution =    -103.41547803 Ry
     hartree contribution      =      77.24623079 Ry
     xc contribution           =     -50.79700410 Ry
     ewald contribution        =    -138.96260514 Ry

     convergence has been achieved in   9 iterations

     Writing all to output data dir ./quartz-scf-us/quartz.save/ :
     XML data file, charge density, pseudopotentials, collected wavefunctions

     init_run     :      0.36s CPU      0.39s WALL (       1 calls)
     electrons    :      0.52s CPU      0.57s WALL (       1 calls)

     Called by init_run:
     wfcinit      :      0.04s CPU      0.05s WALL (       1 calls)
     potinit      :      0.02s CPU      0.03s WALL (       1 calls)
     hinit0       :      0.28s CPU      0.28s WALL (       1 calls)

     Called by electrons:
     c_bands      :      0.38s CPU      0.41s WALL (      10 calls)
     sum_band     :      0.07s CPU      0.07s WALL (      10 calls)
     v_of_rho     :      0.04s CPU      0.04s WALL (      10 calls)
     newd         :      0.01s CPU      0.01s WALL (      10 calls)
     mix_rho      :      0.01s CPU      0.01s WALL (      10 calls)

     Called by c_bands:
     init_us_2    :      0.00s CPU      0.01s WALL (      42 calls)
     cegterg      :      0.36s CPU      0.39s WALL (      20 calls)

     Called by *egterg:
     cdiaghg      :      0.07s CPU      0.07s WALL (      75 calls)
     h_psi        :      0.28s CPU      0.30s WALL (      79 calls)
     s_psi        :      0.01s CPU      0.01s WALL (      79 calls)
     g_psi        :      0.00s CPU      0.00s WALL (      57 calls)

     Called by h_psi:
     h_psi:calbec :      0.02s CPU      0.02s WALL (      79 calls)
     vloc_psi     :      0.25s CPU      0.27s WALL (      79 calls)
     add_vuspsi   :      0.01s CPU      0.01s WALL (      79 calls)

     General routines
     calbec       :      0.02s CPU      0.02s WALL (      99 calls)
     fft          :      0.26s CPU      0.26s WALL (     110 calls)
     ffts         :      0.00s CPU      0.00s WALL (      10 calls)
     fftw         :      0.26s CPU      0.28s WALL (    3552 calls)

     Parallel routines

     PWSCF        :      1.35s CPU      1.58s WALL


   This run was terminated on:  14:29:21   3Feb2026            

=------------------------------------------------------------------------------=
   JOB DONE.
=------------------------------------------------------------------------------=
