
     Program PWSCF v.7.3.1 starts on  3Feb2026 at 14:29:27 

     This program is part of the open-source Quantum ESPRESSO suite
     for quantum simulation of materials; please cite
         "P. Giannozzi et al., J. Phys.:Condens. Matter 21 395502 (2009);
         "P. Giannozzi et al., J. Phys.:Condens. Matter 29 465901 (2017);
         "P. Giannozzi et al., J. Chem. Phys. 152 154105 (2020);
          URL http://www.quantum-espresso.org", 
     in publications or presentations arising from this work. More details at
     http://www.quantum-espresso.org/quote

     Parallel version (MPI), running on   128 processors

     MPI processes distributed on     1 nodes
     241157 MiB available memory on the printing compute node when the environment starts

     Waiting for input...
     Reading input from standard input

     Current dimensions of program PWSCF are:
     Max number of different atomic species (ntypx) = 10
     Max number of k-points (npk) =  40000
     Max angular momentum in pseudopotentials (lmaxx) =  4
     WARNING: atomic wfc #  2 for atom typeSi has zero norm
     WARNING: atomic wfc #  2 for atom typeO has zero norm
     WARNING: atomic wfc #  4 for atom typeO has zero norm
     WARNING: atomic wfc #  5 for atom typeO has zero norm

     K-points division:     npool     =       8
     R & G space division:  proc/nbgrp/npool/nimage =      16
     Subspace diagonalization in iterative solution of the eigenvalue problem:
     a serial algorithm will be used


     Parallelization info
     --------------------
     sticks:   dense  smooth     PW     G-vecs:    dense   smooth      PW
     Min          74      74     21                 2270     2270     349
     Max          76      76     22                 2271     2271     352
     Sum        1189    1189    349                36321    36321    5617

     Using Slab Decomposition



     bravais-lattice index     =            4
     lattice parameter (alat)  =       9.2850  a.u.
     unit-cell volume          =     762.5513 (a.u.)^3
     number of atoms/cell      =            9
     number of atomic types    =            2
     number of electrons       =        48.00
     number of Kohn-Sham states=           24
     kinetic-energy cutoff     =      50.0000  Ry
     charge density cutoff     =     200.0000  Ry
     scf convergence threshold =      1.0E-07
     mixing beta               =       0.7000
     number of iterations used =            8  plain     mixing
     Exchange-correlation=  SLA  PW   PBX  PBC
                           (   1   4   3   4   0   0   0)

     celldm(1)=   9.285000  celldm(2)=   0.000000  celldm(3)=   1.100000
     celldm(4)=   0.000000  celldm(5)=   0.000000  celldm(6)=   0.000000

     crystal axes: (cart. coord. in units of alat)
               a(1) = (   1.000000   0.000000   0.000000 )  
               a(2) = (  -0.500000   0.866025   0.000000 )  
               a(3) = (   0.000000   0.000000   1.100000 )  

     reciprocal axes: (cart. coord. in units 2 pi/alat)
               b(1) = (  1.000000  0.577350 -0.000000 )  
               b(2) = (  0.000000  1.154701  0.000000 )  
               b(3) = (  0.000000 -0.000000  0.909091 )  


     PseudoPot. # 1 for Si read from file:
     ./Si.pbe-van_gipaw.UPF
     MD5 check sum: 907f546cb6949dd03cdbc0a9de4be0c7
     Pseudo is Ultrasoft, Zval =  4.0
     Generated by new atomic code, or converted to UPF format
     Using radial grid of 1141 points,  4 beta functions with: 
                l(1) =   0
                l(2) =   0
                l(3) =   1
                l(4) =   1
     Q(r) pseudized with 0 coefficients 


     PseudoPot. # 2 for O  read from file:
     ./O.pbe-van_gipaw.UPF
     MD5 check sum: 5ce2a047509d4f331db576c963e74b29
     Pseudo is Ultrasoft, Zval =  6.0
     Generated by new atomic code, or converted to UPF format
     Using radial grid of 1095 points,  4 beta functions with: 
                l(1) =   0
                l(2) =   0
                l(3) =   1
                l(4) =   1
     Q(r) pseudized with 0 coefficients 


     atomic species   valence    mass     pseudopotential
     Si                4.00    28.08600     Si( 1.00)
     O                 6.00    16.00000     O ( 1.00)

      6 Sym. Ops. (no inversion) found ( 4 have fractional translation)



   Cartesian axes

     site n.     atom                  positions (alat units)
         1        Si     tau(   1) = (  -0.2349350   0.4069194   0.3666663  )
         2        Si     tau(   2) = (   0.4698700   0.0000000   0.7333330  )
         3        Si     tau(   3) = (   0.2650650   0.4591060   1.0999996  )
         4        O      tau(   4) = (   0.2800500   0.2321814   0.8640500  )
         5        O      tau(   5) = (   0.6589000   0.1264397   0.4973833  )
         6        O      tau(   6) = (   0.5610500   0.5074043   0.1307167  )
         7        O      tau(   7) = (   0.0610500   0.3586211   0.2359500  )
         8        O      tau(   8) = (  -0.2199500   0.6338440   0.6026167  )
         9        O      tau(   9) = (   0.1589000   0.7395857   0.9692833  )

     number of k points=    13
                       cart. coord. in units 2pi/alat
        k(    1) = (   0.0000000   0.0000000   0.0000000), wk =   0.0312500
        k(    2) = (   0.0000000   0.0000000   0.2272727), wk =   0.0625000
        k(    3) = (   0.0000000   0.0000000  -0.4545455), wk =   0.0312500
        k(    4) = (   0.0000000   0.2886751   0.0000000), wk =   0.1875000
        k(    5) = (   0.0000000   0.2886751   0.2272727), wk =   0.1875000
        k(    6) = (   0.0000000   0.2886751  -0.4545455), wk =   0.1875000
        k(    7) = (   0.0000000  -0.5773503   0.0000000), wk =   0.0937500
        k(    8) = (   0.0000000  -0.5773503   0.2272727), wk =   0.1875000
        k(    9) = (   0.0000000  -0.5773503  -0.4545455), wk =   0.0937500
        k(   10) = (   0.2500000   0.4330127   0.0000000), wk =   0.1875000
        k(   11) = (   0.2500000   0.4330127   0.2272727), wk =   0.3750000
        k(   12) = (   0.2500000   0.4330127  -0.4545455), wk =   0.1875000
        k(   13) = (   0.0000000   0.2886751  -0.2272727), wk =   0.1875000

     Dense  grid:    36321 G-vectors     FFT dimensions: (  45,  45,  45)

     Estimated max dynamical RAM per process >       3.46 MB

     Estimated total dynamical RAM >     380.75 MB

     Initial potential from superposition of free atoms

     starting charge      45.3753, renormalised to      48.0000
     Starting wfcs are   60 randomized atomic wfcs

     total cpu time spent up to now is        0.8 secs

     per-process dynamical memory:    11.2 Mb

     Self-consistent Calculation

     iteration #  1     ecut=    50.00 Ry     beta= 0.70
     Davidson diagonalization with overlap
     ethr =  1.00E-02,  avg # of iterations =  3.0

     Threshold (ethr) on eigenvalues was too large:
     Diagonalizing with lowered threshold

     Davidson diagonalization with overlap
     ethr =  9.36E-04,  avg # of iterations =  2.0

     negative rho (up, down):  1.425E-03 0.000E+00

     total cpu time spent up to now is        0.9 secs

     total energy              =    -215.79145004 Ry
     estimated scf accuracy    <       0.44781683 Ry

     iteration #  2     ecut=    50.00 Ry     beta= 0.70
     Davidson diagonalization with overlap
     ethr =  9.33E-04,  avg # of iterations =  2.0

     negative rho (up, down):  8.014E-04 0.000E+00

     total cpu time spent up to now is        1.0 secs

     total energy              =    -215.90880488 Ry
     estimated scf accuracy    <       0.13586065 Ry

     iteration #  3     ecut=    50.00 Ry     beta= 0.70
     Davidson diagonalization with overlap
     ethr =  2.83E-04,  avg # of iterations =  2.0

     total cpu time spent up to now is        1.1 secs

     total energy              =    -215.93199665 Ry
     estimated scf accuracy    <       0.00457006 Ry

     iteration #  4     ecut=    50.00 Ry     beta= 0.70
     Davidson diagonalization with overlap
     ethr =  9.52E-06,  avg # of iterations =  3.2

     total cpu time spent up to now is        1.1 secs

     total energy              =    -215.93375823 Ry
     estimated scf accuracy    <       0.00155249 Ry

     iteration #  5     ecut=    50.00 Ry     beta= 0.70
     Davidson diagonalization with overlap
     ethr =  3.23E-06,  avg # of iterations =  2.0

     total cpu time spent up to now is        1.2 secs

     total energy              =    -215.93397077 Ry
     estimated scf accuracy    <       0.00007563 Ry

     iteration #  6     ecut=    50.00 Ry     beta= 0.70
     Davidson diagonalization with overlap
     ethr =  1.58E-07,  avg # of iterations =  4.5

     total cpu time spent up to now is        1.3 secs

     total energy              =    -215.93402016 Ry
     estimated scf accuracy    <       0.00002147 Ry

     iteration #  7     ecut=    50.00 Ry     beta= 0.70
     Davidson diagonalization with overlap
     ethr =  4.47E-08,  avg # of iterations =  2.0

     total cpu time spent up to now is        1.4 secs

     total energy              =    -215.93402279 Ry
     estimated scf accuracy    <       0.00000066 Ry

     iteration #  8     ecut=    50.00 Ry     beta= 0.70
     Davidson diagonalization with overlap
     ethr =  1.37E-09,  avg # of iterations =  5.0

     total cpu time spent up to now is        1.4 secs

     total energy              =    -215.93402323 Ry
     estimated scf accuracy    <       0.00000019 Ry

     iteration #  9     ecut=    50.00 Ry     beta= 0.70
     Davidson diagonalization with overlap
     ethr =  4.04E-10,  avg # of iterations =  2.0

     total cpu time spent up to now is        1.5 secs

     End of self-consistent calculation

          k = 0.0000 0.0000 0.0000 (  4571 PWs)   bands (ev):

   -16.7713 -15.2327 -15.2327 -14.5888 -14.5430 -14.5430  -5.6912  -5.6912
    -2.9070  -2.8891  -2.7166  -2.7166  -0.3505  -0.3505  -0.0977   0.1556
     1.0861   1.0861   1.1139   1.5945   1.5945   1.9056   2.2702   2.2702

          k = 0.0000 0.0000 0.2273 (  4601 PWs)   bands (ev):

   -16.6491 -15.7945 -14.7730 -14.5857 -14.5623 -14.5241  -6.4813  -4.6686
    -3.1320  -2.9972  -2.9577  -2.3496  -0.4119  -0.1231  -0.0124   0.3343
     0.8188   0.9739   1.0786   1.1082   1.5204   2.0567   2.3620   2.4883

          k = 0.0000 0.0000-0.4545 (  4558 PWs)   bands (ev):

   -16.3027 -16.3027 -14.5906 -14.5767 -14.5767 -14.5161  -6.7812  -3.7278
    -3.7278  -3.0774  -3.0774  -2.1554  -0.1130  -0.1130  -0.0465   0.5831
     0.5831   0.7597   0.7597   1.0618   1.3842   2.3731   2.3731   2.4962

          k = 0.0000 0.2887 0.0000 (  4580 PWs)   bands (ev):

   -16.5930 -15.4403 -15.2067 -14.6272 -14.5764 -14.5574  -5.7634  -5.3123
    -3.0156  -2.9438  -2.8529  -2.4247  -0.5285  -0.2275  -0.0511   0.4078
     0.5690   1.0032   1.0792   1.5008   1.5888   1.7516   2.3408   2.4306

          k = 0.0000 0.2887 0.2273 (  4550 PWs)   bands (ev):

   -16.4899 -15.7632 -14.9969 -14.6156 -14.5740 -14.5570  -6.1488  -4.7252
    -3.4264  -2.9331  -2.6634  -2.3888  -0.5471  -0.0608  -0.0505   0.1907
     0.5584   1.0800   1.1371   1.2939   1.7245   1.7734   2.1885   2.5521

          k = 0.0000 0.2887-0.4545 (  4540 PWs)   bands (ev):

   -16.2576 -16.1148 -14.8680 -14.6291 -14.5775 -14.5459  -6.3434  -4.1431
    -3.8128  -2.9072  -2.7952  -2.2697  -0.4098  -0.3936   0.1170   0.3478
     0.5040   1.0121   1.1079   1.2853   1.5077   2.1441   2.1715   2.4340

          k = 0.0000-0.5774 0.0000 (  4528 PWs)   bands (ev):

   -16.2804 -15.7995 -15.1779 -14.6453 -14.6051 -14.5785  -5.8316  -4.8293
    -3.3576  -2.9144  -2.8939  -2.1179  -0.4695  -0.3009  -0.0948   0.2871
     0.5085   0.8461   0.9288   1.4819   1.5483   1.8013   2.3149   2.5467

          k = 0.0000-0.5774 0.2273 (  4552 PWs)   bands (ev):

   -16.2468 -15.7829 -15.2465 -14.6490 -14.6077 -14.5680  -5.7613  -4.7727
    -3.6567  -2.8960  -2.6009  -2.2944  -0.5437  -0.4662   0.0731   0.2636
     0.6595   0.8326   1.1458   1.4233   1.6217   1.8648   2.1425   2.4654

          k = 0.0000-0.5774-0.4545 (  4536 PWs)   bands (ev):

   -16.2095 -15.7655 -15.3151 -14.6703 -14.5891 -14.5653  -5.6846  -4.7140
    -3.8558  -2.7981  -2.5393  -2.4261  -0.6026  -0.5871   0.1566   0.4721
     0.4952   1.0337   1.3169   1.4422   1.7031   1.7592   1.9848   2.3914

          k = 0.2500 0.4330 0.0000 (  4544 PWs)   bands (ev):

   -16.2893 -15.7740 -15.2041 -14.6418 -14.6017 -14.5761  -5.8612  -4.6948
    -3.6339  -2.8785  -2.7655  -2.1212  -0.4500  -0.2890  -0.1314   0.3997
     0.4685   0.8058   1.0824   1.2257   1.5172   1.9458   2.2761   2.5562

          k = 0.2500 0.4330 0.2273 (  4546 PWs)   bands (ev):

   -16.2481 -15.7841 -15.2384 -14.6420 -14.6206 -14.5684  -5.7719  -4.6739
    -3.8164  -2.8589  -2.5785  -2.3024  -0.5861  -0.2980  -0.0913   0.3773
     0.6177   0.8278   1.1944   1.3765   1.6042   1.9003   2.1491   2.4280

          k = 0.2500 0.4330-0.4545 (  4542 PWs)   bands (ev):

   -16.1993 -15.8036 -15.2697 -14.6643 -14.5910 -14.5881  -5.6693  -4.6687
    -3.9597  -2.7034  -2.6200  -2.4239  -0.6435  -0.4198   0.0223   0.4069
     0.6348   0.8638   1.4395   1.5308   1.6444   1.8724   2.0410   2.1956

          k = 0.0000 0.2887-0.2273 (  4550 PWs)   bands (ev):

   -16.4877 -15.7737 -14.9722 -14.6170 -14.5999 -14.5466  -6.1464  -4.7242
    -3.4251  -2.9146  -2.6415  -2.4522  -0.5865  -0.1152   0.0099   0.3126
     0.6133   0.9654   1.0825   1.3153   1.6629   1.8499   2.2781   2.4702

     highest occupied level (ev):     2.5562

!    total energy              =    -215.93402327 Ry
     estimated scf accuracy    <          2.2E-09 Ry

     The total energy is the sum of the following terms:
     one-electron contribution =    -103.41894794 Ry
     hartree contribution      =      77.24741840 Ry
     xc contribution           =     -50.79989008 Ry
     ewald contribution        =    -138.96260365 Ry

     convergence has been achieved in   9 iterations

     Writing all to output data dir ./quartz-scf-us/quartz.save/ :
     XML data file, charge density, pseudopotentials, collected wavefunctions

     init_run     :      0.24s CPU      0.28s WALL (       1 calls)
     electrons    :      0.65s CPU      0.75s WALL (       1 calls)

     Called by init_run:
     wfcinit      :      0.05s CPU      0.06s WALL (       1 calls)
     potinit      :      0.02s CPU      0.03s WALL (       1 calls)
     hinit0       :      0.15s CPU      0.16s WALL (       1 calls)

     Called by electrons:
     c_bands      :      0.50s CPU      0.54s WALL (      10 calls)
     sum_band     :      0.08s CPU      0.10s WALL (      10 calls)
     v_of_rho     :      0.05s CPU      0.05s WALL (      10 calls)
     newd         :      0.01s CPU      0.01s WALL (      10 calls)
     mix_rho      :      0.01s CPU      0.01s WALL (      10 calls)

     Called by c_bands:
     init_us_2    :      0.01s CPU      0.01s WALL (      42 calls)
     cegterg      :      0.48s CPU      0.52s WALL (      20 calls)

     Called by *egterg:
     cdiaghg      :      0.07s CPU      0.07s WALL (      74 calls)
     h_psi        :      0.38s CPU      0.42s WALL (      78 calls)
     s_psi        :      0.01s CPU      0.01s WALL (      78 calls)
     g_psi        :      0.00s CPU      0.00s WALL (      56 calls)

     Called by h_psi:
     h_psi:calbec :      0.02s CPU      0.02s WALL (      78 calls)
     vloc_psi     :      0.34s CPU      0.38s WALL (      78 calls)
     add_vuspsi   :      0.02s CPU      0.02s WALL (      78 calls)

     General routines
     calbec       :      0.03s CPU      0.03s WALL (      98 calls)
     fft          :      0.13s CPU      0.14s WALL (     110 calls)
     ffts         :      0.00s CPU      0.00s WALL (      10 calls)
     fftw         :      0.37s CPU      0.40s WALL (    3556 calls)

     Parallel routines

     PWSCF        :      1.32s CPU      1.61s WALL


   This run was terminated on:  14:29:29   3Feb2026            

=------------------------------------------------------------------------------=
   JOB DONE.
=------------------------------------------------------------------------------=
