
     Program PWSCF v.7.3.1 starts on  3Feb2026 at 14:29:37 

     This program is part of the open-source Quantum ESPRESSO suite
     for quantum simulation of materials; please cite
         "P. Giannozzi et al., J. Phys.:Condens. Matter 21 395502 (2009);
         "P. Giannozzi et al., J. Phys.:Condens. Matter 29 465901 (2017);
         "P. Giannozzi et al., J. Chem. Phys. 152 154105 (2020);
          URL http://www.quantum-espresso.org", 
     in publications or presentations arising from this work. More details at
     http://www.quantum-espresso.org/quote

     Parallel version (MPI), running on   128 processors

     MPI processes distributed on     1 nodes
     241097 MiB available memory on the printing compute node when the environment starts

     Waiting for input...
     Reading input from standard input

     Current dimensions of program PWSCF are:
     Max number of different atomic species (ntypx) = 10
     Max number of k-points (npk) =  40000
     Max angular momentum in pseudopotentials (lmaxx) =  4
     WARNING: atomic wfc #  2 for atom typeSi has zero norm
     WARNING: atomic wfc #  2 for atom typeO has zero norm
     WARNING: atomic wfc #  4 for atom typeO has zero norm
     WARNING: atomic wfc #  5 for atom typeO has zero norm

     K-points division:     npool     =       8
     R & G space division:  proc/nbgrp/npool/nimage =      16
     Subspace diagonalization in iterative solution of the eigenvalue problem:
     a serial algorithm will be used


     Parallelization info
     --------------------
     sticks:   dense  smooth     PW     G-vecs:    dense   smooth      PW
     Min          88      88     25                 2984     2984     447
     Max          89      89     26                 2989     2989     449
     Sum        1417    1417    409                47775    47775    7167

     Using Slab Decomposition



     bravais-lattice index     =            4
     lattice parameter (alat)  =       9.2850  a.u.
     unit-cell volume          =     762.5513 (a.u.)^3
     number of atoms/cell      =            9
     number of atomic types    =            2
     number of electrons       =        48.00
     number of Kohn-Sham states=           24
     kinetic-energy cutoff     =      60.0000  Ry
     charge density cutoff     =     240.0000  Ry
     scf convergence threshold =      1.0E-07
     mixing beta               =       0.7000
     number of iterations used =            8  plain     mixing
     Exchange-correlation=  SLA  PW   PBX  PBC
                           (   1   4   3   4   0   0   0)

     celldm(1)=   9.285000  celldm(2)=   0.000000  celldm(3)=   1.100000
     celldm(4)=   0.000000  celldm(5)=   0.000000  celldm(6)=   0.000000

     crystal axes: (cart. coord. in units of alat)
               a(1) = (   1.000000   0.000000   0.000000 )  
               a(2) = (  -0.500000   0.866025   0.000000 )  
               a(3) = (   0.000000   0.000000   1.100000 )  

     reciprocal axes: (cart. coord. in units 2 pi/alat)
               b(1) = (  1.000000  0.577350 -0.000000 )  
               b(2) = (  0.000000  1.154701  0.000000 )  
               b(3) = (  0.000000 -0.000000  0.909091 )  


     PseudoPot. # 1 for Si read from file:
     ./Si.pbe-van_gipaw.UPF
     MD5 check sum: 907f546cb6949dd03cdbc0a9de4be0c7
     Pseudo is Ultrasoft, Zval =  4.0
     Generated by new atomic code, or converted to UPF format
     Using radial grid of 1141 points,  4 beta functions with: 
                l(1) =   0
                l(2) =   0
                l(3) =   1
                l(4) =   1
     Q(r) pseudized with 0 coefficients 


     PseudoPot. # 2 for O  read from file:
     ./O.pbe-van_gipaw.UPF
     MD5 check sum: 5ce2a047509d4f331db576c963e74b29
     Pseudo is Ultrasoft, Zval =  6.0
     Generated by new atomic code, or converted to UPF format
     Using radial grid of 1095 points,  4 beta functions with: 
                l(1) =   0
                l(2) =   0
                l(3) =   1
                l(4) =   1
     Q(r) pseudized with 0 coefficients 


     atomic species   valence    mass     pseudopotential
     Si                4.00    28.08600     Si( 1.00)
     O                 6.00    16.00000     O ( 1.00)

      6 Sym. Ops. (no inversion) found ( 4 have fractional translation)



   Cartesian axes

     site n.     atom                  positions (alat units)
         1        Si     tau(   1) = (  -0.2349350   0.4069194   0.3666663  )
         2        Si     tau(   2) = (   0.4698700   0.0000000   0.7333330  )
         3        Si     tau(   3) = (   0.2650650   0.4591060   1.0999996  )
         4        O      tau(   4) = (   0.2800500   0.2321814   0.8640500  )
         5        O      tau(   5) = (   0.6589000   0.1264397   0.4973833  )
         6        O      tau(   6) = (   0.5610500   0.5074043   0.1307167  )
         7        O      tau(   7) = (   0.0610500   0.3586211   0.2359500  )
         8        O      tau(   8) = (  -0.2199500   0.6338440   0.6026167  )
         9        O      tau(   9) = (   0.1589000   0.7395857   0.9692833  )

     number of k points=    13
                       cart. coord. in units 2pi/alat
        k(    1) = (   0.0000000   0.0000000   0.0000000), wk =   0.0312500
        k(    2) = (   0.0000000   0.0000000   0.2272727), wk =   0.0625000
        k(    3) = (   0.0000000   0.0000000  -0.4545455), wk =   0.0312500
        k(    4) = (   0.0000000   0.2886751   0.0000000), wk =   0.1875000
        k(    5) = (   0.0000000   0.2886751   0.2272727), wk =   0.1875000
        k(    6) = (   0.0000000   0.2886751  -0.4545455), wk =   0.1875000
        k(    7) = (   0.0000000  -0.5773503   0.0000000), wk =   0.0937500
        k(    8) = (   0.0000000  -0.5773503   0.2272727), wk =   0.1875000
        k(    9) = (   0.0000000  -0.5773503  -0.4545455), wk =   0.0937500
        k(   10) = (   0.2500000   0.4330127   0.0000000), wk =   0.1875000
        k(   11) = (   0.2500000   0.4330127   0.2272727), wk =   0.3750000
        k(   12) = (   0.2500000   0.4330127  -0.4545455), wk =   0.1875000
        k(   13) = (   0.0000000   0.2886751  -0.2272727), wk =   0.1875000

     Dense  grid:    47775 G-vectors     FFT dimensions: (  45,  45,  54)

     Estimated max dynamical RAM per process >       4.38 MB

     Estimated total dynamical RAM >     478.47 MB

     Initial potential from superposition of free atoms

     starting charge      45.3753, renormalised to      48.0000
     Starting wfcs are   60 randomized atomic wfcs

     total cpu time spent up to now is        0.8 secs

     per-process dynamical memory:    12.1 Mb

     Self-consistent Calculation

     iteration #  1     ecut=    60.00 Ry     beta= 0.70
     Davidson diagonalization with overlap
     ethr =  1.00E-02,  avg # of iterations =  3.0

     Threshold (ethr) on eigenvalues was too large:
     Diagonalizing with lowered threshold

     Davidson diagonalization with overlap
     ethr =  9.36E-04,  avg # of iterations =  2.0

     negative rho (up, down):  1.516E-03 0.000E+00

     total cpu time spent up to now is        1.0 secs

     total energy              =    -215.79178772 Ry
     estimated scf accuracy    <       0.44767091 Ry

     iteration #  2     ecut=    60.00 Ry     beta= 0.70
     Davidson diagonalization with overlap
     ethr =  9.33E-04,  avg # of iterations =  2.0

     negative rho (up, down):  8.416E-04 0.000E+00

     total cpu time spent up to now is        1.1 secs

     total energy              =    -215.90939773 Ry
     estimated scf accuracy    <       0.13541555 Ry

     iteration #  3     ecut=    60.00 Ry     beta= 0.70
     Davidson diagonalization with overlap
     ethr =  2.82E-04,  avg # of iterations =  2.0

     total cpu time spent up to now is        1.2 secs

     total energy              =    -215.93245566 Ry
     estimated scf accuracy    <       0.00456894 Ry

     iteration #  4     ecut=    60.00 Ry     beta= 0.70
     Davidson diagonalization with overlap
     ethr =  9.52E-06,  avg # of iterations =  3.2

     total cpu time spent up to now is        1.3 secs

     total energy              =    -215.93419151 Ry
     estimated scf accuracy    <       0.00155253 Ry

     iteration #  5     ecut=    60.00 Ry     beta= 0.70
     Davidson diagonalization with overlap
     ethr =  3.23E-06,  avg # of iterations =  2.0

     total cpu time spent up to now is        1.3 secs

     total energy              =    -215.93440173 Ry
     estimated scf accuracy    <       0.00007751 Ry

     iteration #  6     ecut=    60.00 Ry     beta= 0.70
     Davidson diagonalization with overlap
     ethr =  1.61E-07,  avg # of iterations =  4.3

     total cpu time spent up to now is        1.4 secs

     total energy              =    -215.93445204 Ry
     estimated scf accuracy    <       0.00002021 Ry

     iteration #  7     ecut=    60.00 Ry     beta= 0.70
     Davidson diagonalization with overlap
     ethr =  4.21E-08,  avg # of iterations =  2.0

     total cpu time spent up to now is        1.5 secs

     total energy              =    -215.93445508 Ry
     estimated scf accuracy    <       0.00000033 Ry

     iteration #  8     ecut=    60.00 Ry     beta= 0.70
     Davidson diagonalization with overlap
     ethr =  6.78E-10,  avg # of iterations =  5.2

     total cpu time spent up to now is        1.6 secs

     total energy              =    -215.93445539 Ry
     estimated scf accuracy    <       0.00000019 Ry

     iteration #  9     ecut=    60.00 Ry     beta= 0.70
     Davidson diagonalization with overlap
     ethr =  4.04E-10,  avg # of iterations =  2.0

     total cpu time spent up to now is        1.7 secs

     End of self-consistent calculation

          k = 0.0000 0.0000 0.0000 (  5989 PWs)   bands (ev):

   -16.7716 -15.2330 -15.2330 -14.5892 -14.5433 -14.5433  -5.6913  -5.6912
    -2.9071  -2.8890  -2.7164  -2.7164  -0.3504  -0.3504  -0.0979   0.1555
     1.0861   1.0861   1.1143   1.5944   1.5944   1.9057   2.2703   2.2703

          k = 0.0000 0.0000 0.2273 (  6019 PWs)   bands (ev):

   -16.6493 -15.7948 -14.7733 -14.5860 -14.5626 -14.5245  -6.4813  -4.6686
    -3.1321  -2.9971  -2.9576  -2.3495  -0.4117  -0.1229  -0.0125   0.3342
     0.8191   0.9739   1.0786   1.1081   1.5204   2.0568   2.3620   2.4884

          k = 0.0000 0.0000-0.4545 (  5990 PWs)   bands (ev):

   -16.3030 -16.3029 -14.5910 -14.5770 -14.5770 -14.5164  -6.7812  -3.7279
    -3.7279  -3.0773  -3.0773  -2.1553  -0.1128  -0.1128  -0.0463   0.5831
     0.5831   0.7596   0.7596   1.0618   1.3842   2.3732   2.3733   2.4962

          k = 0.0000 0.2887 0.0000 (  5992 PWs)   bands (ev):

   -16.5932 -15.4406 -15.2069 -14.6275 -14.5767 -14.5577  -5.7635  -5.3123
    -3.0156  -2.9438  -2.8528  -2.4247  -0.5285  -0.2274  -0.0512   0.4078
     0.5689   1.0033   1.0794   1.5007   1.5888   1.7517   2.3409   2.4307

          k = 0.0000 0.2887 0.2273 (  5996 PWs)   bands (ev):

   -16.4902 -15.7635 -14.9972 -14.6159 -14.5744 -14.5574  -6.1489  -4.7253
    -3.4264  -2.9330  -2.6634  -2.3887  -0.5470  -0.0608  -0.0505   0.1907
     0.5584   1.0799   1.1372   1.2939   1.7245   1.7734   2.1886   2.5522

          k = 0.0000 0.2887-0.4545 (  6002 PWs)   bands (ev):

   -16.2578 -16.1151 -14.8683 -14.6294 -14.5779 -14.5463  -6.3435  -4.1432
    -3.8128  -2.9071  -2.7952  -2.2696  -0.4098  -0.3936   0.1171   0.3477
     0.5038   1.0120   1.1080   1.2853   1.5076   2.1442   2.1716   2.4340

          k = 0.0000-0.5774 0.0000 (  5976 PWs)   bands (ev):

   -16.2807 -15.7998 -15.1782 -14.6456 -14.6055 -14.5788  -5.8316  -4.8293
    -3.3577  -2.9143  -2.8940  -2.1179  -0.4695  -0.3009  -0.0947   0.2871
     0.5086   0.8463   0.9288   1.4818   1.5483   1.8014   2.3149   2.5467

          k = 0.0000-0.5774 0.2273 (  5982 PWs)   bands (ev):

   -16.2471 -15.7832 -15.2468 -14.6493 -14.6080 -14.5683  -5.7613  -4.7727
    -3.6567  -2.8959  -2.6009  -2.2944  -0.5438  -0.4661   0.0731   0.2637
     0.6595   0.8326   1.1460   1.4233   1.6216   1.8650   2.1425   2.4654

          k = 0.0000-0.5774-0.4545 (  5956 PWs)   bands (ev):

   -16.2097 -15.7657 -15.3154 -14.6707 -14.5894 -14.5656  -5.6846  -4.7140
    -3.8558  -2.7980  -2.5393  -2.4261  -0.6026  -0.5870   0.1565   0.4723
     0.4951   1.0338   1.3171   1.4421   1.7031   1.7591   1.9849   2.3915

          k = 0.2500 0.4330 0.0000 (  6001 PWs)   bands (ev):

   -16.2895 -15.7742 -15.2044 -14.6422 -14.6020 -14.5765  -5.8613  -4.6948
    -3.6339  -2.8786  -2.7655  -2.1211  -0.4500  -0.2890  -0.1315   0.3997
     0.4686   0.8058   1.0824   1.2258   1.5172   1.9458   2.2762   2.5562

          k = 0.2500 0.4330 0.2273 (  5975 PWs)   bands (ev):

   -16.2484 -15.7843 -15.2387 -14.6423 -14.6209 -14.5687  -5.7719  -4.6739
    -3.8163  -2.8588  -2.5785  -2.3023  -0.5861  -0.2981  -0.0913   0.3774
     0.6177   0.8279   1.1944   1.3766   1.6042   1.9003   2.1492   2.4281

          k = 0.2500 0.4330-0.4545 (  5964 PWs)   bands (ev):

   -16.1995 -15.8038 -15.2700 -14.6646 -14.5913 -14.5884  -5.6693  -4.6688
    -3.9597  -2.7034  -2.6199  -2.4240  -0.6434  -0.4198   0.0222   0.4071
     0.6348   0.8639   1.4395   1.5308   1.6444   1.8725   2.0411   2.1957

          k = 0.0000 0.2887-0.2273 (  5996 PWs)   bands (ev):

   -16.4880 -15.7739 -14.9726 -14.6173 -14.6003 -14.5469  -6.1464  -4.7243
    -3.4251  -2.9145  -2.6415  -2.4522  -0.5864  -0.1153   0.0100   0.3125
     0.6133   0.9655   1.0824   1.3154   1.6628   1.8500   2.2781   2.4703

     highest occupied level (ev):     2.5562

!    total energy              =    -215.93445544 Ry
     estimated scf accuracy    <          6.2E-09 Ry

     The total energy is the sum of the following terms:
     one-electron contribution =    -103.41941090 Ry
     hartree contribution      =      77.24715466 Ry
     xc contribution           =     -50.79959558 Ry
     ewald contribution        =    -138.96260362 Ry

     convergence has been achieved in   9 iterations

     Writing all to output data dir ./quartz-scf-us/quartz.save/ :
     XML data file, charge density, pseudopotentials, collected wavefunctions

     init_run     :      0.30s CPU      0.34s WALL (       1 calls)
     electrons    :      0.87s CPU      0.94s WALL (       1 calls)

     Called by init_run:
     wfcinit      :      0.06s CPU      0.06s WALL (       1 calls)
     potinit      :      0.02s CPU      0.02s WALL (       1 calls)
     hinit0       :      0.18s CPU      0.20s WALL (       1 calls)

     Called by electrons:
     c_bands      :      0.65s CPU      0.69s WALL (      10 calls)
     sum_band     :      0.12s CPU      0.12s WALL (      10 calls)
     v_of_rho     :      0.06s CPU      0.06s WALL (      10 calls)
     newd         :      0.02s CPU      0.02s WALL (      10 calls)
     mix_rho      :      0.01s CPU      0.01s WALL (      10 calls)

     Called by c_bands:
     init_us_2    :      0.01s CPU      0.01s WALL (      42 calls)
     cegterg      :      0.63s CPU      0.66s WALL (      20 calls)

     Called by *egterg:
     cdiaghg      :      0.07s CPU      0.07s WALL (      75 calls)
     h_psi        :      0.53s CPU      0.55s WALL (      79 calls)
     s_psi        :      0.02s CPU      0.02s WALL (      79 calls)
     g_psi        :      0.00s CPU      0.00s WALL (      57 calls)

     Called by h_psi:
     h_psi:calbec :      0.03s CPU      0.03s WALL (      79 calls)
     vloc_psi     :      0.48s CPU      0.50s WALL (      79 calls)
     add_vuspsi   :      0.02s CPU      0.02s WALL (      79 calls)

     General routines
     calbec       :      0.03s CPU      0.04s WALL (      99 calls)
     fft          :      0.18s CPU      0.18s WALL (     110 calls)
     ffts         :      0.00s CPU      0.00s WALL (      10 calls)
     fftw         :      0.51s CPU      0.53s WALL (    3610 calls)

     Parallel routines

     PWSCF        :      1.60s CPU      1.86s WALL


   This run was terminated on:  14:29:38   3Feb2026            

=------------------------------------------------------------------------------=
   JOB DONE.
=------------------------------------------------------------------------------=
