
     Program PWSCF v.7.3.1 starts on  3Feb2026 at 14:29:46 

     This program is part of the open-source Quantum ESPRESSO suite
     for quantum simulation of materials; please cite
         "P. Giannozzi et al., J. Phys.:Condens. Matter 21 395502 (2009);
         "P. Giannozzi et al., J. Phys.:Condens. Matter 29 465901 (2017);
         "P. Giannozzi et al., J. Chem. Phys. 152 154105 (2020);
          URL http://www.quantum-espresso.org", 
     in publications or presentations arising from this work. More details at
     http://www.quantum-espresso.org/quote

     Parallel version (MPI), running on   128 processors

     MPI processes distributed on     1 nodes
     241076 MiB available memory on the printing compute node when the environment starts

     Waiting for input...
     Reading input from standard input

     Current dimensions of program PWSCF are:
     Max number of different atomic species (ntypx) = 10
     Max number of k-points (npk) =  40000
     Max angular momentum in pseudopotentials (lmaxx) =  4
     WARNING: atomic wfc #  2 for atom typeSi has zero norm
     WARNING: atomic wfc #  2 for atom typeO has zero norm
     WARNING: atomic wfc #  4 for atom typeO has zero norm
     WARNING: atomic wfc #  5 for atom typeO has zero norm

     K-points division:     npool     =       8
     R & G space division:  proc/nbgrp/npool/nimage =      16
     Subspace diagonalization in iterative solution of the eigenvalue problem:
     a serial algorithm will be used


     Parallelization info
     --------------------
     sticks:   dense  smooth     PW     G-vecs:    dense   smooth      PW
     Min         103     103     28                 3769     3769     559
     Max         104     104     29                 3776     3776     561
     Sum        1663    1663    463                60361    60361    8963

     Using Slab Decomposition



     bravais-lattice index     =            4
     lattice parameter (alat)  =       9.2850  a.u.
     unit-cell volume          =     762.5513 (a.u.)^3
     number of atoms/cell      =            9
     number of atomic types    =            2
     number of electrons       =        48.00
     number of Kohn-Sham states=           24
     kinetic-energy cutoff     =      70.0000  Ry
     charge density cutoff     =     280.0000  Ry
     scf convergence threshold =      1.0E-07
     mixing beta               =       0.7000
     number of iterations used =            8  plain     mixing
     Exchange-correlation=  SLA  PW   PBX  PBC
                           (   1   4   3   4   0   0   0)

     celldm(1)=   9.285000  celldm(2)=   0.000000  celldm(3)=   1.100000
     celldm(4)=   0.000000  celldm(5)=   0.000000  celldm(6)=   0.000000

     crystal axes: (cart. coord. in units of alat)
               a(1) = (   1.000000   0.000000   0.000000 )  
               a(2) = (  -0.500000   0.866025   0.000000 )  
               a(3) = (   0.000000   0.000000   1.100000 )  

     reciprocal axes: (cart. coord. in units 2 pi/alat)
               b(1) = (  1.000000  0.577350 -0.000000 )  
               b(2) = (  0.000000  1.154701  0.000000 )  
               b(3) = (  0.000000 -0.000000  0.909091 )  


     PseudoPot. # 1 for Si read from file:
     ./Si.pbe-van_gipaw.UPF
     MD5 check sum: 907f546cb6949dd03cdbc0a9de4be0c7
     Pseudo is Ultrasoft, Zval =  4.0
     Generated by new atomic code, or converted to UPF format
     Using radial grid of 1141 points,  4 beta functions with: 
                l(1) =   0
                l(2) =   0
                l(3) =   1
                l(4) =   1
     Q(r) pseudized with 0 coefficients 


     PseudoPot. # 2 for O  read from file:
     ./O.pbe-van_gipaw.UPF
     MD5 check sum: 5ce2a047509d4f331db576c963e74b29
     Pseudo is Ultrasoft, Zval =  6.0
     Generated by new atomic code, or converted to UPF format
     Using radial grid of 1095 points,  4 beta functions with: 
                l(1) =   0
                l(2) =   0
                l(3) =   1
                l(4) =   1
     Q(r) pseudized with 0 coefficients 


     atomic species   valence    mass     pseudopotential
     Si                4.00    28.08600     Si( 1.00)
     O                 6.00    16.00000     O ( 1.00)

      6 Sym. Ops. (no inversion) found ( 4 have fractional translation)



   Cartesian axes

     site n.     atom                  positions (alat units)
         1        Si     tau(   1) = (  -0.2349350   0.4069194   0.3666663  )
         2        Si     tau(   2) = (   0.4698700   0.0000000   0.7333330  )
         3        Si     tau(   3) = (   0.2650650   0.4591060   1.0999996  )
         4        O      tau(   4) = (   0.2800500   0.2321814   0.8640500  )
         5        O      tau(   5) = (   0.6589000   0.1264397   0.4973833  )
         6        O      tau(   6) = (   0.5610500   0.5074043   0.1307167  )
         7        O      tau(   7) = (   0.0610500   0.3586211   0.2359500  )
         8        O      tau(   8) = (  -0.2199500   0.6338440   0.6026167  )
         9        O      tau(   9) = (   0.1589000   0.7395857   0.9692833  )

     number of k points=    13
                       cart. coord. in units 2pi/alat
        k(    1) = (   0.0000000   0.0000000   0.0000000), wk =   0.0312500
        k(    2) = (   0.0000000   0.0000000   0.2272727), wk =   0.0625000
        k(    3) = (   0.0000000   0.0000000  -0.4545455), wk =   0.0312500
        k(    4) = (   0.0000000   0.2886751   0.0000000), wk =   0.1875000
        k(    5) = (   0.0000000   0.2886751   0.2272727), wk =   0.1875000
        k(    6) = (   0.0000000   0.2886751  -0.4545455), wk =   0.1875000
        k(    7) = (   0.0000000  -0.5773503   0.0000000), wk =   0.0937500
        k(    8) = (   0.0000000  -0.5773503   0.2272727), wk =   0.1875000
        k(    9) = (   0.0000000  -0.5773503  -0.4545455), wk =   0.0937500
        k(   10) = (   0.2500000   0.4330127   0.0000000), wk =   0.1875000
        k(   11) = (   0.2500000   0.4330127   0.2272727), wk =   0.3750000
        k(   12) = (   0.2500000   0.4330127  -0.4545455), wk =   0.1875000
        k(   13) = (   0.0000000   0.2886751  -0.2272727), wk =   0.1875000

     Dense  grid:    60361 G-vectors     FFT dimensions: (  50,  50,  60)

     Estimated max dynamical RAM per process >       5.34 MB

     Estimated total dynamical RAM >     580.43 MB

     Initial potential from superposition of free atoms

     starting charge      45.3753, renormalised to      48.0000
     Starting wfcs are   60 randomized atomic wfcs

     total cpu time spent up to now is        1.0 secs

     per-process dynamical memory:    13.0 Mb

     Self-consistent Calculation

     iteration #  1     ecut=    70.00 Ry     beta= 0.70
     Davidson diagonalization with overlap
     ethr =  1.00E-02,  avg # of iterations =  3.0

     Threshold (ethr) on eigenvalues was too large:
     Diagonalizing with lowered threshold

     Davidson diagonalization with overlap
     ethr =  9.37E-04,  avg # of iterations =  2.0

     negative rho (up, down):  1.450E-03 0.000E+00

     total cpu time spent up to now is        1.2 secs

     total energy              =    -215.79242527 Ry
     estimated scf accuracy    <       0.44736485 Ry

     iteration #  2     ecut=    70.00 Ry     beta= 0.70
     Davidson diagonalization with overlap
     ethr =  9.32E-04,  avg # of iterations =  2.0

     negative rho (up, down):  8.786E-04 0.000E+00

     total cpu time spent up to now is        1.3 secs

     total energy              =    -215.90981710 Ry
     estimated scf accuracy    <       0.13502108 Ry

     iteration #  3     ecut=    70.00 Ry     beta= 0.70
     Davidson diagonalization with overlap
     ethr =  2.81E-04,  avg # of iterations =  2.0

     total cpu time spent up to now is        1.3 secs

     total energy              =    -215.93280789 Ry
     estimated scf accuracy    <       0.00457078 Ry

     iteration #  4     ecut=    70.00 Ry     beta= 0.70
     Davidson diagonalization with overlap
     ethr =  9.52E-06,  avg # of iterations =  3.2

     total cpu time spent up to now is        1.4 secs

     total energy              =    -215.93460525 Ry
     estimated scf accuracy    <       0.00157224 Ry

     iteration #  5     ecut=    70.00 Ry     beta= 0.70
     Davidson diagonalization with overlap
     ethr =  3.28E-06,  avg # of iterations =  2.0

     total cpu time spent up to now is        1.5 secs

     total energy              =    -215.93482232 Ry
     estimated scf accuracy    <       0.00007781 Ry

     iteration #  6     ecut=    70.00 Ry     beta= 0.70
     Davidson diagonalization with overlap
     ethr =  1.62E-07,  avg # of iterations =  4.5

     total cpu time spent up to now is        1.6 secs

     total energy              =    -215.93487431 Ry
     estimated scf accuracy    <       0.00001864 Ry

     iteration #  7     ecut=    70.00 Ry     beta= 0.70
     Davidson diagonalization with overlap
     ethr =  3.88E-08,  avg # of iterations =  2.0

     total cpu time spent up to now is        1.7 secs

     End of self-consistent calculation

          k = 0.0000 0.0000 0.0000 (  7647 PWs)   bands (ev):

   -16.7722 -15.2337 -15.2337 -14.5899 -14.5441 -14.5441  -5.6917  -5.6917
    -2.9077  -2.8894  -2.7167  -2.7167  -0.3506  -0.3506  -0.0984   0.1549
     1.0854   1.0854   1.1144   1.5939   1.5939   1.9051   2.2698   2.2698

          k = 0.0000 0.0000 0.2273 (  7593 PWs)   bands (ev):

   -16.6499 -15.7955 -14.7740 -14.5867 -14.5634 -14.5252  -6.4817  -4.6691
    -3.1326  -2.9973  -2.9580  -2.3497  -0.4119  -0.1233  -0.0130   0.3337
     0.8191   0.9731   1.0782   1.1076   1.5199   2.0563   2.3614   2.4881

          k = 0.0000 0.0000-0.4545 (  7516 PWs)   bands (ev):

   -16.3036 -16.3036 -14.5917 -14.5778 -14.5778 -14.5172  -6.7816  -3.7285
    -3.7285  -3.0776  -3.0776  -2.1555  -0.1130  -0.1130  -0.0466   0.5827
     0.5827   0.7589   0.7589   1.0614   1.3836   2.3728   2.3728   2.4955

          k = 0.0000 0.2887 0.0000 (  7553 PWs)   bands (ev):

   -16.5938 -15.4413 -15.2076 -14.6283 -14.5775 -14.5585  -5.7639  -5.3128
    -3.0159  -2.9443  -2.8531  -2.4251  -0.5288  -0.2277  -0.0517   0.4074
     0.5684   1.0029   1.0792   1.5004   1.5883   1.7511   2.3405   2.4303

          k = 0.0000 0.2887 0.2273 (  7558 PWs)   bands (ev):

   -16.4908 -15.7642 -14.9979 -14.6167 -14.5751 -14.5581  -6.1492  -4.7257
    -3.4268  -2.9334  -2.6639  -2.3890  -0.5473  -0.0612  -0.0508   0.1903
     0.5578   1.0793   1.1370   1.2935   1.7240   1.7728   2.1883   2.5517

          k = 0.0000 0.2887-0.4545 (  7530 PWs)   bands (ev):

   -16.2585 -16.1157 -14.8690 -14.6301 -14.5786 -14.5470  -6.3438  -4.1437
    -3.8133  -2.9074  -2.7955  -2.2700  -0.4100  -0.3939   0.1168   0.3471
     0.5033   1.0116   1.1075   1.2850   1.5071   2.1438   2.1712   2.4335

          k = 0.0000-0.5774 0.0000 (  7506 PWs)   bands (ev):

   -16.2813 -15.8005 -15.1789 -14.6464 -14.6062 -14.5796  -5.8320  -4.8297
    -3.3581  -2.9146  -2.8945  -2.1184  -0.4700  -0.3013  -0.0951   0.2868
     0.5082   0.8460   0.9284   1.4815   1.5476   1.8011   2.3145   2.5463

          k = 0.0000-0.5774 0.2273 (  7526 PWs)   bands (ev):

   -16.2477 -15.7839 -15.2475 -14.6500 -14.6087 -14.5691  -5.7617  -4.7731
    -3.6571  -2.8962  -2.6014  -2.2949  -0.5442  -0.4664   0.0726   0.2633
     0.6590   0.8322   1.1457   1.4228   1.6212   1.8647   2.1421   2.4650

          k = 0.0000-0.5774-0.4545 (  7560 PWs)   bands (ev):

   -16.2104 -15.7664 -15.3161 -14.6714 -14.5902 -14.5664  -5.6850  -4.7144
    -3.8563  -2.7982  -2.5398  -2.4267  -0.6030  -0.5874   0.1559   0.4719
     0.4946   1.0333   1.3168   1.4417   1.7028   1.7586   1.9846   2.3909

          k = 0.2500 0.4330 0.0000 (  7552 PWs)   bands (ev):

   -16.2901 -15.7749 -15.2051 -14.6429 -14.6028 -14.5772  -5.8617  -4.6952
    -3.6343  -2.8791  -2.7659  -2.1215  -0.4505  -0.2894  -0.1320   0.3994
     0.4683   0.8054   1.0820   1.2254   1.5166   1.9455   2.2758   2.5558

          k = 0.2500 0.4330 0.2273 (  7538 PWs)   bands (ev):

   -16.2490 -15.7850 -15.2394 -14.6430 -14.6216 -14.5695  -5.7723  -4.6743
    -3.8167  -2.8592  -2.5791  -2.3027  -0.5864  -0.2985  -0.0918   0.3770
     0.6173   0.8275   1.1939   1.3762   1.6037   1.8999   2.1488   2.4276

          k = 0.2500 0.4330-0.4545 (  7556 PWs)   bands (ev):

   -16.2002 -15.8045 -15.2707 -14.6654 -14.5921 -14.5892  -5.6697  -4.6692
    -3.9601  -2.7037  -2.6203  -2.4245  -0.6436  -0.4203   0.0216   0.4067
     0.6343   0.8635   1.4391   1.5304   1.6440   1.8721   2.0407   2.1952

          k = 0.0000 0.2887-0.2273 (  7558 PWs)   bands (ev):

   -16.4886 -15.7746 -14.9733 -14.6180 -14.6010 -14.5477  -6.1468  -4.7247
    -3.4255  -2.9148  -2.6420  -2.4525  -0.5867  -0.1157   0.0096   0.3122
     0.6128   0.9650   1.0819   1.3151   1.6624   1.8495   2.2775   2.4699

     highest occupied level (ev):     2.5558

!    total energy              =    -215.93487783 Ry
     estimated scf accuracy    <       0.00000006 Ry

     The total energy is the sum of the following terms:
     one-electron contribution =    -103.41787864 Ry
     hartree contribution      =      77.24370542 Ry
     xc contribution           =     -50.79810100 Ry
     ewald contribution        =    -138.96260361 Ry

     convergence has been achieved in   7 iterations

     Writing all to output data dir ./quartz-scf-us/quartz.save/ :
     XML data file, charge density, pseudopotentials, collected wavefunctions

     init_run     :      0.43s CPU      0.47s WALL (       1 calls)
     electrons    :      0.76s CPU      0.81s WALL (       1 calls)

     Called by init_run:
     wfcinit      :      0.06s CPU      0.07s WALL (       1 calls)
     potinit      :      0.02s CPU      0.03s WALL (       1 calls)
     hinit0       :      0.30s CPU      0.31s WALL (       1 calls)

     Called by electrons:
     c_bands      :      0.55s CPU      0.57s WALL (       8 calls)
     sum_band     :      0.10s CPU      0.11s WALL (       8 calls)
     v_of_rho     :      0.06s CPU      0.06s WALL (       8 calls)
     newd         :      0.02s CPU      0.02s WALL (       8 calls)
     mix_rho      :      0.01s CPU      0.01s WALL (       8 calls)

     Called by c_bands:
     init_us_2    :      0.01s CPU      0.01s WALL (      34 calls)
     cegterg      :      0.52s CPU      0.53s WALL (      16 calls)

     Called by *egterg:
     cdiaghg      :      0.05s CPU      0.06s WALL (      56 calls)
     h_psi        :      0.44s CPU      0.46s WALL (      60 calls)
     s_psi        :      0.02s CPU      0.02s WALL (      60 calls)
     g_psi        :      0.00s CPU      0.00s WALL (      42 calls)

     Called by h_psi:
     h_psi:calbec :      0.02s CPU      0.03s WALL (      60 calls)
     vloc_psi     :      0.40s CPU      0.41s WALL (      60 calls)
     add_vuspsi   :      0.02s CPU      0.02s WALL (      60 calls)

     General routines
     calbec       :      0.03s CPU      0.03s WALL (      76 calls)
     fft          :      0.28s CPU      0.29s WALL (      88 calls)
     ffts         :      0.00s CPU      0.00s WALL (       8 calls)
     fftw         :      0.41s CPU      0.42s WALL (    2842 calls)

     Parallel routines

     PWSCF        :      1.62s CPU      1.86s WALL


   This run was terminated on:  14:29:48   3Feb2026            

=------------------------------------------------------------------------------=
   JOB DONE.
=------------------------------------------------------------------------------=
