
     Program PWSCF v.7.3.1 starts on  3Feb2026 at 14:29:56 

     This program is part of the open-source Quantum ESPRESSO suite
     for quantum simulation of materials; please cite
         "P. Giannozzi et al., J. Phys.:Condens. Matter 21 395502 (2009);
         "P. Giannozzi et al., J. Phys.:Condens. Matter 29 465901 (2017);
         "P. Giannozzi et al., J. Chem. Phys. 152 154105 (2020);
          URL http://www.quantum-espresso.org", 
     in publications or presentations arising from this work. More details at
     http://www.quantum-espresso.org/quote

     Parallel version (MPI), running on   128 processors

     MPI processes distributed on     1 nodes
     240992 MiB available memory on the printing compute node when the environment starts

     Waiting for input...
     Reading input from standard input

     Current dimensions of program PWSCF are:
     Max number of different atomic species (ntypx) = 10
     Max number of k-points (npk) =  40000
     Max angular momentum in pseudopotentials (lmaxx) =  4
     WARNING: atomic wfc #  2 for atom typeSi has zero norm
     WARNING: atomic wfc #  2 for atom typeO has zero norm
     WARNING: atomic wfc #  4 for atom typeO has zero norm
     WARNING: atomic wfc #  5 for atom typeO has zero norm

     K-points division:     npool     =       8
     R & G space division:  proc/nbgrp/npool/nimage =      16
     Subspace diagonalization in iterative solution of the eigenvalue problem:
     a serial algorithm will be used


     Parallelization info
     --------------------
     sticks:   dense  smooth     PW     G-vecs:    dense   smooth      PW
     Min         118     118     32                 4604     4604     672
     Max         119     119     34                 4609     4609     675
     Sum        1903    1903    517                73697    73697   10759

     Using Slab Decomposition



     bravais-lattice index     =            4
     lattice parameter (alat)  =       9.2850  a.u.
     unit-cell volume          =     762.5513 (a.u.)^3
     number of atoms/cell      =            9
     number of atomic types    =            2
     number of electrons       =        48.00
     number of Kohn-Sham states=           24
     kinetic-energy cutoff     =      80.0000  Ry
     charge density cutoff     =     320.0000  Ry
     scf convergence threshold =      1.0E-07
     mixing beta               =       0.7000
     number of iterations used =            8  plain     mixing
     Exchange-correlation=  SLA  PW   PBX  PBC
                           (   1   4   3   4   0   0   0)

     celldm(1)=   9.285000  celldm(2)=   0.000000  celldm(3)=   1.100000
     celldm(4)=   0.000000  celldm(5)=   0.000000  celldm(6)=   0.000000

     crystal axes: (cart. coord. in units of alat)
               a(1) = (   1.000000   0.000000   0.000000 )  
               a(2) = (  -0.500000   0.866025   0.000000 )  
               a(3) = (   0.000000   0.000000   1.100000 )  

     reciprocal axes: (cart. coord. in units 2 pi/alat)
               b(1) = (  1.000000  0.577350 -0.000000 )  
               b(2) = (  0.000000  1.154701  0.000000 )  
               b(3) = (  0.000000 -0.000000  0.909091 )  


     PseudoPot. # 1 for Si read from file:
     ./Si.pbe-van_gipaw.UPF
     MD5 check sum: 907f546cb6949dd03cdbc0a9de4be0c7
     Pseudo is Ultrasoft, Zval =  4.0
     Generated by new atomic code, or converted to UPF format
     Using radial grid of 1141 points,  4 beta functions with: 
                l(1) =   0
                l(2) =   0
                l(3) =   1
                l(4) =   1
     Q(r) pseudized with 0 coefficients 


     PseudoPot. # 2 for O  read from file:
     ./O.pbe-van_gipaw.UPF
     MD5 check sum: 5ce2a047509d4f331db576c963e74b29
     Pseudo is Ultrasoft, Zval =  6.0
     Generated by new atomic code, or converted to UPF format
     Using radial grid of 1095 points,  4 beta functions with: 
                l(1) =   0
                l(2) =   0
                l(3) =   1
                l(4) =   1
     Q(r) pseudized with 0 coefficients 


     atomic species   valence    mass     pseudopotential
     Si                4.00    28.08600     Si( 1.00)
     O                 6.00    16.00000     O ( 1.00)

      6 Sym. Ops. (no inversion) found ( 4 have fractional translation)



   Cartesian axes

     site n.     atom                  positions (alat units)
         1        Si     tau(   1) = (  -0.2349350   0.4069194   0.3666663  )
         2        Si     tau(   2) = (   0.4698700   0.0000000   0.7333330  )
         3        Si     tau(   3) = (   0.2650650   0.4591060   1.0999996  )
         4        O      tau(   4) = (   0.2800500   0.2321814   0.8640500  )
         5        O      tau(   5) = (   0.6589000   0.1264397   0.4973833  )
         6        O      tau(   6) = (   0.5610500   0.5074043   0.1307167  )
         7        O      tau(   7) = (   0.0610500   0.3586211   0.2359500  )
         8        O      tau(   8) = (  -0.2199500   0.6338440   0.6026167  )
         9        O      tau(   9) = (   0.1589000   0.7395857   0.9692833  )

     number of k points=    13
                       cart. coord. in units 2pi/alat
        k(    1) = (   0.0000000   0.0000000   0.0000000), wk =   0.0312500
        k(    2) = (   0.0000000   0.0000000   0.2272727), wk =   0.0625000
        k(    3) = (   0.0000000   0.0000000  -0.4545455), wk =   0.0312500
        k(    4) = (   0.0000000   0.2886751   0.0000000), wk =   0.1875000
        k(    5) = (   0.0000000   0.2886751   0.2272727), wk =   0.1875000
        k(    6) = (   0.0000000   0.2886751  -0.4545455), wk =   0.1875000
        k(    7) = (   0.0000000  -0.5773503   0.0000000), wk =   0.0937500
        k(    8) = (   0.0000000  -0.5773503   0.2272727), wk =   0.1875000
        k(    9) = (   0.0000000  -0.5773503  -0.4545455), wk =   0.0937500
        k(   10) = (   0.2500000   0.4330127   0.0000000), wk =   0.1875000
        k(   11) = (   0.2500000   0.4330127   0.2272727), wk =   0.3750000
        k(   12) = (   0.2500000   0.4330127  -0.4545455), wk =   0.1875000
        k(   13) = (   0.0000000   0.2886751  -0.2272727), wk =   0.1875000

     Dense  grid:    73697 G-vectors     FFT dimensions: (  54,  54,  60)

     Estimated max dynamical RAM per process >       6.34 MB

     Estimated total dynamical RAM >     685.05 MB

     Initial potential from superposition of free atoms

     starting charge      45.3753, renormalised to      48.0000
     Starting wfcs are   60 randomized atomic wfcs

     total cpu time spent up to now is        1.0 secs

     per-process dynamical memory:    13.8 Mb

     Self-consistent Calculation

     iteration #  1     ecut=    80.00 Ry     beta= 0.70
     Davidson diagonalization with overlap
     ethr =  1.00E-02,  avg # of iterations =  3.0

     Threshold (ethr) on eigenvalues was too large:
     Diagonalizing with lowered threshold

     Davidson diagonalization with overlap
     ethr =  9.38E-04,  avg # of iterations =  2.0

     negative rho (up, down):  1.468E-03 0.000E+00

     total cpu time spent up to now is        1.2 secs

     total energy              =    -215.79261421 Ry
     estimated scf accuracy    <       0.44745638 Ry

     iteration #  2     ecut=    80.00 Ry     beta= 0.70
     Davidson diagonalization with overlap
     ethr =  9.32E-04,  avg # of iterations =  2.0

     negative rho (up, down):  8.780E-04 0.000E+00

     total cpu time spent up to now is        1.3 secs

     total energy              =    -215.91021541 Ry
     estimated scf accuracy    <       0.13510987 Ry

     iteration #  3     ecut=    80.00 Ry     beta= 0.70
     Davidson diagonalization with overlap
     ethr =  2.81E-04,  avg # of iterations =  2.0

     total cpu time spent up to now is        1.4 secs

     total energy              =    -215.93314953 Ry
     estimated scf accuracy    <       0.00456909 Ry

     iteration #  4     ecut=    80.00 Ry     beta= 0.70
     Davidson diagonalization with overlap
     ethr =  9.52E-06,  avg # of iterations =  3.2

     total cpu time spent up to now is        1.6 secs

     total energy              =    -215.93497514 Ry
     estimated scf accuracy    <       0.00159271 Ry

     iteration #  5     ecut=    80.00 Ry     beta= 0.70
     Davidson diagonalization with overlap
     ethr =  3.32E-06,  avg # of iterations =  2.0

     total cpu time spent up to now is        1.7 secs

     total energy              =    -215.93518920 Ry
     estimated scf accuracy    <       0.00008559 Ry

     iteration #  6     ecut=    80.00 Ry     beta= 0.70
     Davidson diagonalization with overlap
     ethr =  1.78E-07,  avg # of iterations =  4.2

     total cpu time spent up to now is        1.8 secs

     total energy              =    -215.93524337 Ry
     estimated scf accuracy    <       0.00001924 Ry

     iteration #  7     ecut=    80.00 Ry     beta= 0.70
     Davidson diagonalization with overlap
     ethr =  4.01E-08,  avg # of iterations =  2.0

     total cpu time spent up to now is        1.9 secs

     total energy              =    -215.93524662 Ry
     estimated scf accuracy    <       0.00000024 Ry

     iteration #  8     ecut=    80.00 Ry     beta= 0.70
     Davidson diagonalization with overlap
     ethr =  5.05E-10,  avg # of iterations =  5.6

     total cpu time spent up to now is        2.1 secs

     total energy              =    -215.93524693 Ry
     estimated scf accuracy    <       0.00000015 Ry

     iteration #  9     ecut=    80.00 Ry     beta= 0.70
     Davidson diagonalization with overlap
     ethr =  3.10E-10,  avg # of iterations =  2.1

     total cpu time spent up to now is        2.2 secs

     End of self-consistent calculation

          k = 0.0000 0.0000 0.0000 (  9203 PWs)   bands (ev):

   -16.7721 -15.2336 -15.2336 -14.5898 -14.5440 -14.5440  -5.6917  -5.6917
    -2.9075  -2.8893  -2.7167  -2.7167  -0.3505  -0.3505  -0.0983   0.1549
     1.0856   1.0856   1.1145   1.5941   1.5941   1.9054   2.2700   2.2700

          k = 0.0000 0.0000 0.2273 (  9215 PWs)   bands (ev):

   -16.6499 -15.7954 -14.7739 -14.5867 -14.5633 -14.5252  -6.4817  -4.6691
    -3.1325  -2.9973  -2.9579  -2.3497  -0.4117  -0.1231  -0.0130   0.3338
     0.8193   0.9732   1.0783   1.1078   1.5202   2.0566   2.3615   2.4883

          k = 0.0000 0.0000-0.4545 (  9222 PWs)   bands (ev):

   -16.3035 -16.3035 -14.5916 -14.5777 -14.5777 -14.5171  -6.7816  -3.7284
    -3.7284  -3.0776  -3.0776  -2.1555  -0.1130  -0.1130  -0.0465   0.5828
     0.5828   0.7591   0.7591   1.0616   1.3839   2.3731   2.3731   2.4956

          k = 0.0000 0.2887 0.0000 (  9233 PWs)   bands (ev):

   -16.5938 -15.4413 -15.2076 -14.6282 -14.5774 -14.5584  -5.7639  -5.3127
    -3.0159  -2.9442  -2.8531  -2.4250  -0.5287  -0.2276  -0.0515   0.4074
     0.5685   1.0031   1.0793   1.5005   1.5885   1.7513   2.3406   2.4304

          k = 0.0000 0.2887 0.2273 (  9232 PWs)   bands (ev):

   -16.4908 -15.7641 -14.9979 -14.6166 -14.5750 -14.5581  -6.1492  -4.7257
    -3.4267  -2.9333  -2.6638  -2.3890  -0.5472  -0.0610  -0.0507   0.1904
     0.5580   1.0795   1.1371   1.2937   1.7242   1.7731   2.1884   2.5518

          k = 0.0000 0.2887-0.4545 (  9184 PWs)   bands (ev):

   -16.2584 -16.1157 -14.8690 -14.6301 -14.5786 -14.5469  -6.3439  -4.1436
    -3.8132  -2.9074  -2.7955  -2.2700  -0.4099  -0.3938   0.1169   0.3473
     0.5034   1.0117   1.1076   1.2852   1.5074   2.1440   2.1714   2.4336

          k = 0.0000-0.5774 0.0000 (  9212 PWs)   bands (ev):

   -16.2813 -15.8004 -15.1789 -14.6463 -14.6061 -14.5795  -5.8320  -4.8297
    -3.3581  -2.9145  -2.8944  -2.1183  -0.4699  -0.3012  -0.0951   0.2870
     0.5084   0.8462   0.9286   1.4816   1.5478   1.8013   2.3146   2.5465

          k = 0.0000-0.5774 0.2273 (  9214 PWs)   bands (ev):

   -16.2477 -15.7838 -15.2474 -14.6500 -14.6087 -14.5690  -5.7617  -4.7731
    -3.6571  -2.8961  -2.6013  -2.2948  -0.5440  -0.4664   0.0727   0.2635
     0.6592   0.8324   1.1459   1.4230   1.6213   1.8648   2.1422   2.4651

          k = 0.0000-0.5774-0.4545 (  9212 PWs)   bands (ev):

   -16.2103 -15.7664 -15.3160 -14.6713 -14.5901 -14.5663  -5.6850  -4.7144
    -3.8562  -2.7982  -2.5397  -2.4266  -0.6028  -0.5873   0.1561   0.4721
     0.4948   1.0336   1.3170   1.4418   1.7029   1.7589   1.9848   2.3911

          k = 0.2500 0.4330 0.0000 (  9213 PWs)   bands (ev):

   -16.2901 -15.7749 -15.2051 -14.6428 -14.6027 -14.5771  -5.8617  -4.6952
    -3.6343  -2.8789  -2.7658  -2.1215  -0.4504  -0.2893  -0.1318   0.3996
     0.4684   0.8056   1.0823   1.2255   1.5168   1.9457   2.2760   2.5559

          k = 0.2500 0.4330 0.2273 (  9208 PWs)   bands (ev):

   -16.2490 -15.7850 -15.2394 -14.6430 -14.6216 -14.5694  -5.7723  -4.6743
    -3.8167  -2.8591  -2.5790  -2.3027  -0.5863  -0.2984  -0.0917   0.3772
     0.6174   0.8277   1.1941   1.3764   1.6039   1.9001   2.1490   2.4277

          k = 0.2500 0.4330-0.4545 (  9214 PWs)   bands (ev):

   -16.2001 -15.8045 -15.2707 -14.6653 -14.5920 -14.5891  -5.6697  -4.6692
    -3.9600  -2.7037  -2.6203  -2.4244  -0.6435  -0.4201   0.0217   0.4069
     0.6344   0.8638   1.4393   1.5306   1.6442   1.8723   2.0409   2.1953

          k = 0.0000 0.2887-0.2273 (  9232 PWs)   bands (ev):

   -16.4885 -15.7746 -14.9732 -14.6180 -14.6010 -14.5476  -6.1468  -4.7247
    -3.4255  -2.9148  -2.6419  -2.4524  -0.5866  -0.1157   0.0098   0.3123
     0.6129   0.9651   1.0821   1.3153   1.6626   1.8497   2.2776   2.4701

     highest occupied level (ev):     2.5559

!    total energy              =    -215.93524697 Ry
     estimated scf accuracy    <          8.1E-09 Ry

     The total energy is the sum of the following terms:
     one-electron contribution =    -103.42046160 Ry
     hartree contribution      =      77.24634319 Ry
     xc contribution           =     -50.79852495 Ry
     ewald contribution        =    -138.96260361 Ry

     convergence has been achieved in   9 iterations

     Writing all to output data dir ./quartz-scf-us/quartz.save/ :
     XML data file, charge density, pseudopotentials, collected wavefunctions

     init_run     :      0.44s CPU      0.49s WALL (       1 calls)
     electrons    :      1.14s CPU      1.22s WALL (       1 calls)

     Called by init_run:
     wfcinit      :      0.07s CPU      0.08s WALL (       1 calls)
     potinit      :      0.02s CPU      0.03s WALL (       1 calls)
     hinit0       :      0.29s CPU      0.31s WALL (       1 calls)

     Called by electrons:
     c_bands      :      0.85s CPU      0.88s WALL (      10 calls)
     sum_band     :      0.15s CPU      0.17s WALL (      10 calls)
     v_of_rho     :      0.09s CPU      0.09s WALL (      10 calls)
     newd         :      0.03s CPU      0.04s WALL (      10 calls)
     mix_rho      :      0.02s CPU      0.02s WALL (      10 calls)

     Called by c_bands:
     init_us_2    :      0.01s CPU      0.02s WALL (      42 calls)
     cegterg      :      0.79s CPU      0.80s WALL (      20 calls)

     Called by *egterg:
     cdiaghg      :      0.08s CPU      0.08s WALL (      75 calls)
     h_psi        :      0.65s CPU      0.67s WALL (      79 calls)
     s_psi        :      0.03s CPU      0.03s WALL (      79 calls)
     g_psi        :      0.00s CPU      0.00s WALL (      57 calls)

     Called by h_psi:
     h_psi:calbec :      0.04s CPU      0.04s WALL (      79 calls)
     vloc_psi     :      0.57s CPU      0.59s WALL (      79 calls)
     add_vuspsi   :      0.03s CPU      0.03s WALL (      79 calls)

     General routines
     calbec       :      0.05s CPU      0.05s WALL (      99 calls)
     fft          :      0.29s CPU      0.29s WALL (     110 calls)
     ffts         :      0.00s CPU      0.00s WALL (      10 calls)
     fftw         :      0.59s CPU      0.61s WALL (    3612 calls)

     Parallel routines

     PWSCF        :      2.01s CPU      2.31s WALL


   This run was terminated on:  14:29:58   3Feb2026            

=------------------------------------------------------------------------------=
   JOB DONE.
=------------------------------------------------------------------------------=
