
     Program PWSCF v.7.3.1 starts on  4Feb2026 at 11:58:57 

     This program is part of the open-source Quantum ESPRESSO suite
     for quantum simulation of materials; please cite
         "P. Giannozzi et al., J. Phys.:Condens. Matter 21 395502 (2009);
         "P. Giannozzi et al., J. Phys.:Condens. Matter 29 465901 (2017);
         "P. Giannozzi et al., J. Chem. Phys. 152 154105 (2020);
          URL http://www.quantum-espresso.org", 
     in publications or presentations arising from this work. More details at
     http://www.quantum-espresso.org/quote

     Parallel version (MPI), running on   128 processors

     MPI processes distributed on     1 nodes
     240815 MiB available memory on the printing compute node when the environment starts

     Waiting for input...
     Reading input from standard input

     Current dimensions of program PWSCF are:
     Max number of different atomic species (ntypx) = 10
     Max number of k-points (npk) =  40000
     Max angular momentum in pseudopotentials (lmaxx) =  4

     K-points division:     npool     =       8
     R & G space division:  proc/nbgrp/npool/nimage =      16
     Subspace diagonalization in iterative solution of the eigenvalue problem:
     a serial algorithm will be used


     Parallelization info
     --------------------
     sticks:   dense  smooth     PW     G-vecs:    dense   smooth      PW
     Min         165     165     51                 4054     4054     690
     Max         166     166     52                 4056     4056     691
     Sum        2649    2649    817                64877    64877   11047

     Using Slab Decomposition



     bravais-lattice index     =            7
     lattice parameter (alat)  =      11.0200  a.u.
     unit-cell volume          =     365.0809 (a.u.)^3
     number of atoms/cell      =            2
     number of atomic types    =            1
     number of electrons       =        28.00
     number of Kohn-Sham states=           14
     kinetic-energy cutoff     =     120.0000  Ry
     charge density cutoff     =     480.0000  Ry
     scf convergence threshold =      1.0E-07
     mixing beta               =       0.7000
     number of iterations used =            8  plain     mixing
     Exchange-correlation=  SLA  PW   GGX  GGC
                           (   1   4   2   2   0   0   0)

     celldm(1)=  11.020000  celldm(2)=   0.000000  celldm(3)=   0.545600
     celldm(4)=   0.000000  celldm(5)=   0.000000  celldm(6)=   0.000000

     crystal axes: (cart. coord. in units of alat)
               a(1) = (   0.500000  -0.500000   0.272800 )  
               a(2) = (   0.500000   0.500000   0.272800 )  
               a(3) = (  -0.500000  -0.500000   0.272800 )  

     reciprocal axes: (cart. coord. in units 2 pi/alat)
               b(1) = (  1.000000 -1.000000  0.000000 )  
               b(2) = (  0.000000  1.000000  1.832845 )  
               b(3) = ( -1.000000  0.000000  1.832845 )  


     PseudoPot. # 1 for Sn read from file:
     ./Sn.pw91-n-van.UPF
     MD5 check sum: a38d2a872edd1a4efd76c0a1a38f7031
     Pseudo is Ultrasoft + core correction, Zval = 14.0
     Generated by new atomic code, or converted to UPF format
     Using radial grid of  891 points,  6 beta functions with: 
                l(1) =   0
                l(2) =   0
                l(3) =   1
                l(4) =   1
                l(5) =   2
                l(6) =   2
     Q(r) pseudized with  8 coefficients,  rinner =    1.100   1.100   1.100
                                                       1.100   1.100

     atomic species   valence    mass     pseudopotential
     Sn               14.00   118.70000     Sn( 1.00)

     16 Sym. Ops., with inversion, found (12 have fractional translation)



   Cartesian axes

     site n.     atom                  positions (alat units)
         1        Sn     tau(   1) = (   0.0000000  -0.2500000   0.0682000  )
         2        Sn     tau(   2) = (   0.0000000   0.2500000  -0.0682000  )

     number of k points=    13
                       cart. coord. in units 2pi/alat
        k(    1) = (   0.0000000   0.0000000   0.0000000), wk =   0.0312500
        k(    2) = (  -0.2500000   0.0000000   0.4582111), wk =   0.2500000
        k(    3) = (   0.5000000   0.0000000  -0.9164223), wk =   0.1250000
        k(    4) = (  -0.2500000   0.2500000   0.9164223), wk =   0.2500000
        k(    5) = (   0.5000000   0.2500000  -0.4582111), wk =   0.5000000
        k(    6) = (   0.2500000   0.2500000   0.0000000), wk =   0.1250000
        k(    7) = (   0.5000000  -0.5000000  -1.8328446), wk =   0.0625000
        k(    8) = (   0.0000000   0.0000000   0.9164223), wk =   0.0625000
        k(    9) = (   0.7500000   0.0000000  -0.4582111), wk =   0.2500000
        k(   10) = (   0.5000000   0.0000000   0.0000000), wk =   0.1250000
        k(   11) = (   0.7500000  -0.7500000  -1.8328446), wk =   0.1250000
        k(   12) = (   0.5000000  -0.5000000  -0.9164223), wk =   0.0625000
        k(   13) = (   0.0000000   0.0000000  -1.8328446), wk =   0.0312500

     Dense  grid:    64877 G-vectors     FFT dimensions: (  60,  60,  60)

     Estimated max dynamical RAM per process >       6.54 MB

     Estimated total dynamical RAM >     726.29 MB

     Initial potential from superposition of free atoms

     starting charge      27.9964, renormalised to      28.0000
     Starting wfcs are   18 randomized atomic wfcs

     total cpu time spent up to now is        0.9 secs

     per-process dynamical memory:    12.7 Mb

     Self-consistent Calculation

     iteration #  1     ecut=   120.00 Ry     beta= 0.70
     Davidson diagonalization with overlap
     ethr =  1.00E-02,  avg # of iterations =  1.8

     Threshold (ethr) on eigenvalues was too large:
     Diagonalizing with lowered threshold

     Davidson diagonalization with overlap
     ethr =  2.38E-05,  avg # of iterations =  3.8

     total cpu time spent up to now is        1.1 secs

     total energy              =    -325.57525379 Ry
     estimated scf accuracy    <       0.00689574 Ry

     iteration #  2     ecut=   120.00 Ry     beta= 0.70
     Davidson diagonalization with overlap
     ethr =  2.46E-05,  avg # of iterations =  2.0

     total cpu time spent up to now is        1.2 secs

     total energy              =    -325.57625605 Ry
     estimated scf accuracy    <       0.00055391 Ry

     iteration #  3     ecut=   120.00 Ry     beta= 0.70
     Davidson diagonalization with overlap
     ethr =  1.98E-06,  avg # of iterations =  2.4

     total cpu time spent up to now is        1.3 secs

     total energy              =    -325.57632757 Ry
     estimated scf accuracy    <       0.00004310 Ry

     iteration #  4     ecut=   120.00 Ry     beta= 0.70
     Davidson diagonalization with overlap
     ethr =  1.54E-07,  avg # of iterations =  2.8

     total cpu time spent up to now is        1.3 secs

     total energy              =    -325.57633273 Ry
     estimated scf accuracy    <       0.00000024 Ry

     iteration #  5     ecut=   120.00 Ry     beta= 0.70
     Davidson diagonalization with overlap
     ethr =  8.45E-10,  avg # of iterations =  3.9

     total cpu time spent up to now is        1.4 secs

     End of self-consistent calculation

          k = 0.0000 0.0000 0.0000 (  8099 PWs)   bands (ev):

   -10.8061 -10.7238 -10.6799 -10.6686 -10.5182 -10.5182 -10.5072 -10.5072
   -10.4153 -10.3032  -0.3473   7.1612   8.8397   8.8397

          k =-0.2500 0.0000 0.4582 (  8113 PWs)   bands (ev):

   -10.7702 -10.6427 -10.6379 -10.5967 -10.5743 -10.5328 -10.5245 -10.5016
   -10.4363 -10.3377   0.8910   6.5839   9.0440  11.2832

          k = 0.5000 0.0000-0.9164 (  8090 PWs)   bands (ev):

   -10.7310 -10.6606 -10.6441 -10.6042 -10.5702 -10.5673 -10.4686 -10.4213
   -10.4175 -10.3712   3.8533   5.3956   8.4874   9.1143

          k =-0.2500 0.2500 0.9164 (  8087 PWs)   bands (ev):

   -10.7449 -10.6572 -10.6139 -10.5970 -10.5950 -10.5445 -10.4856 -10.4662
   -10.3897 -10.3621   3.7386   6.0510   7.1233   9.1084

          k = 0.5000 0.2500-0.4582 (  8110 PWs)   bands (ev):

   -10.7136 -10.6543 -10.6506 -10.5965 -10.5795 -10.5223 -10.4886 -10.4810
   -10.4638 -10.3994   2.0034   4.1410   9.3955  10.6281

          k = 0.2500 0.2500 0.0000 (  8143 PWs)   bands (ev):

   -10.7562 -10.7307 -10.6955 -10.6382 -10.5450 -10.4977 -10.4960 -10.4879
   -10.4446 -10.3518   0.2174   4.5877   9.5064  10.5378

          k = 0.5000-0.5000-1.8328 (  8164 PWs)   bands (ev):

   -10.7271 -10.7271 -10.6389 -10.6389 -10.5451 -10.5451 -10.4738 -10.4738
   -10.4348 -10.4348   1.9005   1.9005  11.4185  11.4185

          k = 0.0000 0.0000 0.9164 (  8102 PWs)   bands (ev):

   -10.7363 -10.6291 -10.6291 -10.6092 -10.5644 -10.5644 -10.5403 -10.4470
   -10.3921 -10.3467   3.2954   7.1431   7.9730   9.4590

          k = 0.7500 0.0000-0.4582 (  8096 PWs)   bands (ev):

   -10.7007 -10.6586 -10.5960 -10.5866 -10.5520 -10.5352 -10.5246 -10.4878
   -10.4818 -10.4256   3.0225   4.3597   7.2618   8.4574

          k = 0.5000 0.0000 0.0000 (  8111 PWs)   bands (ev):

   -10.7423 -10.7128 -10.7007 -10.6066 -10.5224 -10.5146 -10.5106 -10.4679
   -10.4656 -10.3967   0.7799   4.3543   7.0799  10.7927

          k = 0.7500-0.7500-1.8328 (  8094 PWs)   bands (ev):

   -10.7334 -10.7334 -10.6011 -10.6011 -10.5371 -10.5371 -10.4878 -10.4878
   -10.4591 -10.4591   2.4049   2.4049   7.9917   7.9917

          k = 0.5000-0.5000-0.9164 (  8060 PWs)   bands (ev):

   -10.7091 -10.7091 -10.6386 -10.6386 -10.5311 -10.5311 -10.4374 -10.4374
   -10.4103 -10.4103   4.8058   4.8058   7.2812   7.2812

          k = 0.0000 0.0000-1.8328 (  8090 PWs)   bands (ev):

   -10.7361 -10.7361 -10.5375 -10.5375 -10.5268 -10.5268 -10.5154 -10.5154
   -10.5024 -10.5024   3.2426   3.2426   6.0121   6.0121

     highest occupied level (ev):    11.4185

!    total energy              =    -325.57633291 Ry
     estimated scf accuracy    <          7.0E-09 Ry

     The total energy is the sum of the following terms:
     one-electron contribution =    -107.31219144 Ry
     hartree contribution      =      74.47258668 Ry
     xc contribution           =     -95.22142497 Ry
     ewald contribution        =    -197.51530320 Ry

     convergence has been achieved in   5 iterations

     Writing all to output data dir ./beta-sn-scf/betatin.save/ :
     XML data file, charge density, pseudopotentials, collected wavefunctions

     init_run     :      0.56s CPU      0.61s WALL (       1 calls)
     electrons    :      0.45s CPU      0.52s WALL (       1 calls)

     Called by init_run:
     wfcinit      :      0.03s CPU      0.03s WALL (       1 calls)
     potinit      :      0.02s CPU      0.04s WALL (       1 calls)
     hinit0       :      0.46s CPU      0.47s WALL (       1 calls)

     Called by electrons:
     c_bands      :      0.26s CPU      0.28s WALL (       6 calls)
     sum_band     :      0.09s CPU      0.09s WALL (       6 calls)
     v_of_rho     :      0.07s CPU      0.09s WALL (       6 calls)
     newd         :      0.02s CPU      0.03s WALL (       6 calls)
     mix_rho      :      0.01s CPU      0.01s WALL (       6 calls)

     Called by c_bands:
     init_us_2    :      0.01s CPU      0.01s WALL (      26 calls)
     cegterg      :      0.24s CPU      0.25s WALL (      12 calls)

     Called by *egterg:
     cdiaghg      :      0.02s CPU      0.02s WALL (      51 calls)
     h_psi        :      0.21s CPU      0.23s WALL (      55 calls)
     s_psi        :      0.00s CPU      0.00s WALL (      55 calls)
     g_psi        :      0.00s CPU      0.00s WALL (      41 calls)

     Called by h_psi:
     h_psi:calbec :      0.01s CPU      0.01s WALL (      55 calls)
     vloc_psi     :      0.20s CPU      0.22s WALL (      55 calls)
     add_vuspsi   :      0.01s CPU      0.01s WALL (      55 calls)

     General routines
     calbec       :      0.01s CPU      0.01s WALL (      67 calls)
     fft          :      0.44s CPU      0.47s WALL (      67 calls)
     ffts         :      0.00s CPU      0.00s WALL (       6 calls)
     fftw         :      0.21s CPU      0.23s WALL (    1108 calls)

     Parallel routines

     PWSCF        :      1.26s CPU      1.54s WALL


   This run was terminated on:  11:58:58   4Feb2026            

=------------------------------------------------------------------------------=
   JOB DONE.
=------------------------------------------------------------------------------=
