
     Program PWSCF v.7.3.1 starts on  4Feb2026 at 11:59:20 

     This program is part of the open-source Quantum ESPRESSO suite
     for quantum simulation of materials; please cite
         "P. Giannozzi et al., J. Phys.:Condens. Matter 21 395502 (2009);
         "P. Giannozzi et al., J. Phys.:Condens. Matter 29 465901 (2017);
         "P. Giannozzi et al., J. Chem. Phys. 152 154105 (2020);
          URL http://www.quantum-espresso.org", 
     in publications or presentations arising from this work. More details at
     http://www.quantum-espresso.org/quote

     Parallel version (MPI), running on   128 processors

     MPI processes distributed on     1 nodes
     240776 MiB available memory on the printing compute node when the environment starts

     Waiting for input...
     Reading input from standard input

     Current dimensions of program PWSCF are:
     Max number of different atomic species (ntypx) = 10
     Max number of k-points (npk) =  40000
     Max angular momentum in pseudopotentials (lmaxx) =  4

     K-points division:     npool     =       4
     R & G space division:  proc/nbgrp/npool/nimage =      32
     Subspace diagonalization in iterative solution of the eigenvalue problem:
     a serial algorithm will be used


     Parallelization info
     --------------------
     sticks:   dense  smooth     PW     G-vecs:    dense   smooth      PW
     Min          96      96     29                 2556     2556     426
     Max          97      97     30                 2558     2558     429
     Sum        3091    3091    937                81811    81811   13665

     Using Slab Decomposition



     bravais-lattice index     =            7
     lattice parameter (alat)  =      11.0200  a.u.
     unit-cell volume          =     365.0809 (a.u.)^3
     number of atoms/cell      =            2
     number of atomic types    =            1
     number of electrons       =        28.00
     number of Kohn-Sham states=           14
     kinetic-energy cutoff     =     140.0000  Ry
     charge density cutoff     =     560.0000  Ry
     scf convergence threshold =      1.0E-07
     mixing beta               =       0.7000
     number of iterations used =            8  plain     mixing
     Exchange-correlation=  SLA  PW   GGX  GGC
                           (   1   4   2   2   0   0   0)

     celldm(1)=  11.020000  celldm(2)=   0.000000  celldm(3)=   0.545600
     celldm(4)=   0.000000  celldm(5)=   0.000000  celldm(6)=   0.000000

     crystal axes: (cart. coord. in units of alat)
               a(1) = (   0.500000  -0.500000   0.272800 )  
               a(2) = (   0.500000   0.500000   0.272800 )  
               a(3) = (  -0.500000  -0.500000   0.272800 )  

     reciprocal axes: (cart. coord. in units 2 pi/alat)
               b(1) = (  1.000000 -1.000000  0.000000 )  
               b(2) = (  0.000000  1.000000  1.832845 )  
               b(3) = ( -1.000000  0.000000  1.832845 )  


     PseudoPot. # 1 for Sn read from file:
     ./Sn.pw91-n-van.UPF
     MD5 check sum: a38d2a872edd1a4efd76c0a1a38f7031
     Pseudo is Ultrasoft + core correction, Zval = 14.0
     Generated by new atomic code, or converted to UPF format
     Using radial grid of  891 points,  6 beta functions with: 
                l(1) =   0
                l(2) =   0
                l(3) =   1
                l(4) =   1
                l(5) =   2
                l(6) =   2
     Q(r) pseudized with  8 coefficients,  rinner =    1.100   1.100   1.100
                                                       1.100   1.100

     atomic species   valence    mass     pseudopotential
     Sn               14.00   118.70000     Sn( 1.00)

     16 Sym. Ops., with inversion, found (12 have fractional translation)



   Cartesian axes

     site n.     atom                  positions (alat units)
         1        Sn     tau(   1) = (   0.0000000  -0.2500000   0.0682000  )
         2        Sn     tau(   2) = (   0.0000000   0.2500000  -0.0682000  )

     number of k points=    13
                       cart. coord. in units 2pi/alat
        k(    1) = (   0.0000000   0.0000000   0.0000000), wk =   0.0312500
        k(    2) = (  -0.2500000   0.0000000   0.4582111), wk =   0.2500000
        k(    3) = (   0.5000000   0.0000000  -0.9164223), wk =   0.1250000
        k(    4) = (  -0.2500000   0.2500000   0.9164223), wk =   0.2500000
        k(    5) = (   0.5000000   0.2500000  -0.4582111), wk =   0.5000000
        k(    6) = (   0.2500000   0.2500000   0.0000000), wk =   0.1250000
        k(    7) = (   0.5000000  -0.5000000  -1.8328446), wk =   0.0625000
        k(    8) = (   0.0000000   0.0000000   0.9164223), wk =   0.0625000
        k(    9) = (   0.7500000   0.0000000  -0.4582111), wk =   0.2500000
        k(   10) = (   0.5000000   0.0000000   0.0000000), wk =   0.1250000
        k(   11) = (   0.7500000  -0.7500000  -1.8328446), wk =   0.1250000
        k(   12) = (   0.5000000  -0.5000000  -0.9164223), wk =   0.0625000
        k(   13) = (   0.0000000   0.0000000  -1.8328446), wk =   0.0312500

     Dense  grid:    81811 G-vectors     FFT dimensions: (  64,  64,  64)

     Estimated max dynamical RAM per process >       5.90 MB

     Estimated total dynamical RAM >     695.63 MB

     Initial potential from superposition of free atoms

     starting charge      27.9964, renormalised to      28.0000
     Starting wfcs are   18 randomized atomic wfcs

     total cpu time spent up to now is        0.8 secs

     per-process dynamical memory:    12.0 Mb

     Self-consistent Calculation

     iteration #  1     ecut=   140.00 Ry     beta= 0.70
     Davidson diagonalization with overlap
     ethr =  1.00E-02,  avg # of iterations =  1.8

     Threshold (ethr) on eigenvalues was too large:
     Diagonalizing with lowered threshold

     Davidson diagonalization with overlap
     ethr =  2.35E-05,  avg # of iterations =  3.8

     total cpu time spent up to now is        1.0 secs

     total energy              =    -325.58204707 Ry
     estimated scf accuracy    <       0.00684980 Ry

     iteration #  2     ecut=   140.00 Ry     beta= 0.70
     Davidson diagonalization with overlap
     ethr =  2.45E-05,  avg # of iterations =  2.0

     total cpu time spent up to now is        1.1 secs

     total energy              =    -325.58314069 Ry
     estimated scf accuracy    <       0.00054159 Ry

     iteration #  3     ecut=   140.00 Ry     beta= 0.70
     Davidson diagonalization with overlap
     ethr =  1.93E-06,  avg # of iterations =  2.4

     total cpu time spent up to now is        1.2 secs

     total energy              =    -325.58322059 Ry
     estimated scf accuracy    <       0.00004127 Ry

     iteration #  4     ecut=   140.00 Ry     beta= 0.70
     Davidson diagonalization with overlap
     ethr =  1.47E-07,  avg # of iterations =  2.9

     total cpu time spent up to now is        1.3 secs

     total energy              =    -325.58322536 Ry
     estimated scf accuracy    <       0.00000026 Ry

     iteration #  5     ecut=   140.00 Ry     beta= 0.70
     Davidson diagonalization with overlap
     ethr =  9.14E-10,  avg # of iterations =  3.9

     total cpu time spent up to now is        1.4 secs

     End of self-consistent calculation

          k = 0.0000 0.0000 0.0000 ( 10251 PWs)   bands (ev):

   -10.8093 -10.7266 -10.6827 -10.6713 -10.5213 -10.5213 -10.5101 -10.5101
   -10.4182 -10.3060  -0.3472   7.1615   8.8398   8.8398

          k =-0.2500 0.0000 0.4582 ( 10203 PWs)   bands (ev):

   -10.7734 -10.6454 -10.6408 -10.5996 -10.5770 -10.5358 -10.5274 -10.5044
   -10.4391 -10.3405   0.8911   6.5842   9.0440  11.2833

          k = 0.5000 0.0000-0.9164 ( 10234 PWs)   bands (ev):

   -10.7340 -10.6636 -10.6468 -10.6073 -10.5732 -10.5702 -10.4715 -10.4244
   -10.4207 -10.3741   3.8535   5.3958   8.4875   9.1143

          k =-0.2500 0.2500 0.9164 ( 10190 PWs)   bands (ev):

   -10.7479 -10.6601 -10.6168 -10.5998 -10.5980 -10.5474 -10.4886 -10.4691
   -10.3928 -10.3649   3.7388   6.0512   7.1233   9.1084

          k = 0.5000 0.2500-0.4582 ( 10216 PWs)   bands (ev):

   -10.7166 -10.6571 -10.6535 -10.5995 -10.5823 -10.5252 -10.4915 -10.4839
   -10.4667 -10.4022   2.0035   4.1412   9.3956  10.6281

          k = 0.2500 0.2500 0.0000 ( 10225 PWs)   bands (ev):

   -10.7593 -10.7334 -10.6981 -10.6409 -10.5480 -10.5005 -10.4989 -10.4908
   -10.4475 -10.3545   0.2175   4.5879   9.5064  10.5378

          k = 0.5000-0.5000-1.8328 ( 10210 PWs)   bands (ev):

   -10.7298 -10.7298 -10.6418 -10.6418 -10.5478 -10.5478 -10.4765 -10.4765
   -10.4374 -10.4374   1.9007   1.9007  11.4184  11.4184

          k = 0.0000 0.0000 0.9164 ( 10191 PWs)   bands (ev):

   -10.7395 -10.6318 -10.6318 -10.6121 -10.5672 -10.5672 -10.5434 -10.4498
   -10.3953 -10.3494   3.2955   7.1434   7.9731   9.4590

          k = 0.7500 0.0000-0.4582 ( 10211 PWs)   bands (ev):

   -10.7038 -10.6615 -10.5989 -10.5895 -10.5549 -10.5383 -10.5274 -10.4907
   -10.4846 -10.4283   3.0227   4.3599   7.2618   8.4574

          k = 0.5000 0.0000 0.0000 ( 10225 PWs)   bands (ev):

   -10.7452 -10.7156 -10.7035 -10.6094 -10.5253 -10.5175 -10.5136 -10.4708
   -10.4684 -10.3995   0.7800   4.3544   7.0799  10.7927

          k = 0.7500-0.7500-1.8328 ( 10204 PWs)   bands (ev):

   -10.7362 -10.7362 -10.6040 -10.6040 -10.5400 -10.5400 -10.4907 -10.4907
   -10.4620 -10.4620   2.4050   2.4050   7.9917   7.9917

          k = 0.5000-0.5000-0.9164 ( 10224 PWs)   bands (ev):

   -10.7121 -10.7121 -10.6417 -10.6417 -10.5340 -10.5340 -10.4405 -10.4405
   -10.4135 -10.4135   4.8060   4.8060   7.2811   7.2811

          k = 0.0000 0.0000-1.8328 ( 10204 PWs)   bands (ev):

   -10.7390 -10.7390 -10.5403 -10.5403 -10.5297 -10.5297 -10.5182 -10.5182
   -10.5055 -10.5055   3.2428   3.2428   6.0120   6.0120

     highest occupied level (ev):    11.4184

!    total energy              =    -325.58322557 Ry
     estimated scf accuracy    <          5.3E-09 Ry

     The total energy is the sum of the following terms:
     one-electron contribution =    -107.32111488 Ry
     hartree contribution      =      74.47530603 Ry
     xc contribution           =     -95.22211352 Ry
     ewald contribution        =    -197.51530320 Ry

     convergence has been achieved in   5 iterations

     Writing all to output data dir ./beta-sn-scf/betatin.save/ :
     XML data file, charge density, pseudopotentials, collected wavefunctions

     init_run     :      0.45s CPU      0.51s WALL (       1 calls)
     electrons    :      0.55s CPU      0.64s WALL (       1 calls)

     Called by init_run:
     wfcinit      :      0.09s CPU      0.10s WALL (       1 calls)
     potinit      :      0.02s CPU      0.03s WALL (       1 calls)
     hinit0       :      0.29s CPU      0.30s WALL (       1 calls)

     Called by electrons:
     c_bands      :      0.38s CPU      0.42s WALL (       6 calls)
     sum_band     :      0.09s CPU      0.11s WALL (       6 calls)
     v_of_rho     :      0.05s CPU      0.06s WALL (       6 calls)
     newd         :      0.03s CPU      0.03s WALL (       6 calls)
     mix_rho      :      0.00s CPU      0.00s WALL (       6 calls)

     Called by c_bands:
     init_us_2    :      0.01s CPU      0.01s WALL (      52 calls)
     cegterg      :      0.36s CPU      0.38s WALL (      24 calls)

     Called by *egterg:
     cdiaghg      :      0.03s CPU      0.03s WALL (      97 calls)
     h_psi        :      0.37s CPU      0.39s WALL (     105 calls)
     s_psi        :      0.01s CPU      0.01s WALL (     105 calls)
     g_psi        :      0.00s CPU      0.00s WALL (      77 calls)

     Called by h_psi:
     h_psi:calbec :      0.02s CPU      0.02s WALL (     105 calls)
     vloc_psi     :      0.34s CPU      0.36s WALL (     105 calls)
     add_vuspsi   :      0.01s CPU      0.01s WALL (     105 calls)

     General routines
     calbec       :      0.02s CPU      0.02s WALL (     129 calls)
     fft          :      0.29s CPU      0.29s WALL (      67 calls)
     ffts         :      0.00s CPU      0.00s WALL (       6 calls)
     fftw         :      0.37s CPU      0.39s WALL (    2202 calls)

     Parallel routines

     PWSCF        :      1.29s CPU      1.58s WALL


   This run was terminated on:  11:59:22   4Feb2026            

=------------------------------------------------------------------------------=
   JOB DONE.
=------------------------------------------------------------------------------=
