
     Program PWSCF v.7.3.1 starts on  4Feb2026 at 12: 1:58 

     This program is part of the open-source Quantum ESPRESSO suite
     for quantum simulation of materials; please cite
         "P. Giannozzi et al., J. Phys.:Condens. Matter 21 395502 (2009);
         "P. Giannozzi et al., J. Phys.:Condens. Matter 29 465901 (2017);
         "P. Giannozzi et al., J. Chem. Phys. 152 154105 (2020);
          URL http://www.quantum-espresso.org", 
     in publications or presentations arising from this work. More details at
     http://www.quantum-espresso.org/quote

     Parallel version (MPI), running on   128 processors

     MPI processes distributed on     1 nodes
     240548 MiB available memory on the printing compute node when the environment starts

     Waiting for input...
     Reading input from standard input

     Current dimensions of program PWSCF are:
     Max number of different atomic species (ntypx) = 10
     Max number of k-points (npk) =  40000
     Max angular momentum in pseudopotentials (lmaxx) =  4

     K-points division:     npool     =       4
     R & G space division:  proc/nbgrp/npool/nimage =      32
     Subspace diagonalization in iterative solution of the eigenvalue problem:
     a serial algorithm will be used


     Parallelization info
     --------------------
     sticks:   dense  smooth     PW     G-vecs:    dense   smooth      PW
     Min         178     178     51                 6461     6461     999
     Max         179     179     52                 6464     6464    1001
     Sum        5717    5717   1649               206779   206779   31993

     Using Slab Decomposition



     bravais-lattice index     =            7
     lattice parameter (alat)  =      11.0200  a.u.
     unit-cell volume          =     365.0809 (a.u.)^3
     number of atoms/cell      =            2
     number of atomic types    =            1
     number of electrons       =        28.00
     number of Kohn-Sham states=           14
     kinetic-energy cutoff     =     260.0000  Ry
     charge density cutoff     =    1040.0000  Ry
     scf convergence threshold =      1.0E-07
     mixing beta               =       0.7000
     number of iterations used =            8  plain     mixing
     Exchange-correlation=  SLA  PW   GGX  GGC
                           (   1   4   2   2   0   0   0)

     celldm(1)=  11.020000  celldm(2)=   0.000000  celldm(3)=   0.545600
     celldm(4)=   0.000000  celldm(5)=   0.000000  celldm(6)=   0.000000

     crystal axes: (cart. coord. in units of alat)
               a(1) = (   0.500000  -0.500000   0.272800 )  
               a(2) = (   0.500000   0.500000   0.272800 )  
               a(3) = (  -0.500000  -0.500000   0.272800 )  

     reciprocal axes: (cart. coord. in units 2 pi/alat)
               b(1) = (  1.000000 -1.000000  0.000000 )  
               b(2) = (  0.000000  1.000000  1.832845 )  
               b(3) = ( -1.000000  0.000000  1.832845 )  


     PseudoPot. # 1 for Sn read from file:
     ./Sn.pw91-n-van.UPF
     MD5 check sum: a38d2a872edd1a4efd76c0a1a38f7031
     Pseudo is Ultrasoft + core correction, Zval = 14.0
     Generated by new atomic code, or converted to UPF format
     Using radial grid of  891 points,  6 beta functions with: 
                l(1) =   0
                l(2) =   0
                l(3) =   1
                l(4) =   1
                l(5) =   2
                l(6) =   2
     Q(r) pseudized with  8 coefficients,  rinner =    1.100   1.100   1.100
                                                       1.100   1.100

     atomic species   valence    mass     pseudopotential
     Sn               14.00   118.70000     Sn( 1.00)

     16 Sym. Ops., with inversion, found (12 have fractional translation)



   Cartesian axes

     site n.     atom                  positions (alat units)
         1        Sn     tau(   1) = (   0.0000000  -0.2500000   0.0682000  )
         2        Sn     tau(   2) = (   0.0000000   0.2500000  -0.0682000  )

     number of k points=    13
                       cart. coord. in units 2pi/alat
        k(    1) = (   0.0000000   0.0000000   0.0000000), wk =   0.0312500
        k(    2) = (  -0.2500000   0.0000000   0.4582111), wk =   0.2500000
        k(    3) = (   0.5000000   0.0000000  -0.9164223), wk =   0.1250000
        k(    4) = (  -0.2500000   0.2500000   0.9164223), wk =   0.2500000
        k(    5) = (   0.5000000   0.2500000  -0.4582111), wk =   0.5000000
        k(    6) = (   0.2500000   0.2500000   0.0000000), wk =   0.1250000
        k(    7) = (   0.5000000  -0.5000000  -1.8328446), wk =   0.0625000
        k(    8) = (   0.0000000   0.0000000   0.9164223), wk =   0.0625000
        k(    9) = (   0.7500000   0.0000000  -0.4582111), wk =   0.2500000
        k(   10) = (   0.5000000   0.0000000   0.0000000), wk =   0.1250000
        k(   11) = (   0.7500000  -0.7500000  -1.8328446), wk =   0.1250000
        k(   12) = (   0.5000000  -0.5000000  -0.9164223), wk =   0.0625000
        k(   13) = (   0.0000000   0.0000000  -1.8328446), wk =   0.0312500

     Dense  grid:   206779 G-vectors     FFT dimensions: (  90,  90,  90)

     Estimated max dynamical RAM per process >      12.95 MB

     Estimated total dynamical RAM >       1.47 GB

     Initial potential from superposition of free atoms

     starting charge      27.9964, renormalised to      28.0000
     Starting wfcs are   18 randomized atomic wfcs

     total cpu time spent up to now is        1.1 secs

     per-process dynamical memory:    18.0 Mb

     Self-consistent Calculation

     iteration #  1     ecut=   260.00 Ry     beta= 0.70
     Davidson diagonalization with overlap
     ethr =  1.00E-02,  avg # of iterations =  2.2

     Threshold (ethr) on eigenvalues was too large:
     Diagonalizing with lowered threshold

     Davidson diagonalization with overlap
     ethr =  1.39E-05,  avg # of iterations =  5.3

     total cpu time spent up to now is        1.6 secs

     total energy              =    -325.57277154 Ry
     estimated scf accuracy    <       0.00620833 Ry

     iteration #  2     ecut=   260.00 Ry     beta= 0.70
     Davidson diagonalization with overlap
     ethr =  2.22E-05,  avg # of iterations =  2.9

     total cpu time spent up to now is        1.9 secs

     total energy              =    -325.59034024 Ry
     estimated scf accuracy    <       0.00087652 Ry

     iteration #  3     ecut=   260.00 Ry     beta= 0.70
     Davidson diagonalization with overlap
     ethr =  3.13E-06,  avg # of iterations =  2.3

     total cpu time spent up to now is        2.1 secs

     total energy              =    -325.59183134 Ry
     estimated scf accuracy    <       0.00007442 Ry

     iteration #  4     ecut=   260.00 Ry     beta= 0.70
     Davidson diagonalization with overlap
     ethr =  2.66E-07,  avg # of iterations =  2.3

     total cpu time spent up to now is        2.4 secs

     total energy              =    -325.59183876 Ry
     estimated scf accuracy    <       0.00000173 Ry

     iteration #  5     ecut=   260.00 Ry     beta= 0.70
     Davidson diagonalization with overlap
     ethr =  6.19E-09,  avg # of iterations =  3.2

     total cpu time spent up to now is        2.6 secs

     total energy              =    -325.59183960 Ry
     estimated scf accuracy    <       0.00000015 Ry

     iteration #  6     ecut=   260.00 Ry     beta= 0.70
     Davidson diagonalization with overlap
     ethr =  5.18E-10,  avg # of iterations =  2.5

     total cpu time spent up to now is        2.8 secs

     End of self-consistent calculation

          k = 0.0000 0.0000 0.0000 ( 25891 PWs)   bands (ev):

   -10.8120 -10.7294 -10.6855 -10.6742 -10.5241 -10.5241 -10.5131 -10.5131
   -10.4211 -10.3090  -0.3469   7.1621   8.8399   8.8399

          k =-0.2500 0.0000 0.4582 ( 25867 PWs)   bands (ev):

   -10.7761 -10.6482 -10.6437 -10.6024 -10.5800 -10.5387 -10.5303 -10.5074
   -10.4421 -10.3435   0.8913   6.5846   9.0441  11.2834

          k = 0.5000 0.0000-0.9164 ( 25826 PWs)   bands (ev):

   -10.7368 -10.6663 -10.6496 -10.6102 -10.5761 -10.5731 -10.4744 -10.4273
   -10.4236 -10.3771   3.8538   5.3960   8.4878   9.1144

          k =-0.2500 0.2500 0.9164 ( 25819 PWs)   bands (ev):

   -10.7507 -10.6630 -10.6197 -10.6026 -10.6008 -10.5503 -10.4915 -10.4721
   -10.3958 -10.3680   3.7391   6.0515   7.1233   9.1084

          k = 0.5000 0.2500-0.4582 ( 25853 PWs)   bands (ev):

   -10.7194 -10.6600 -10.6563 -10.6023 -10.5852 -10.5281 -10.4944 -10.4868
   -10.4696 -10.4052   2.0038   4.1415   9.3957  10.6281

          k = 0.2500 0.2500 0.0000 ( 25878 PWs)   bands (ev):

   -10.7620 -10.7362 -10.7009 -10.6437 -10.5508 -10.5034 -10.5017 -10.4937
   -10.4504 -10.3576   0.2177   4.5882   9.5065  10.5380

          k = 0.5000-0.5000-1.8328 ( 25896 PWs)   bands (ev):

   -10.7326 -10.7326 -10.6447 -10.6447 -10.5507 -10.5507 -10.4795 -10.4795
   -10.4403 -10.4403   1.9009   1.9009  11.4184  11.4184

          k = 0.0000 0.0000 0.9164 ( 25867 PWs)   bands (ev):

   -10.7423 -10.6346 -10.6346 -10.6150 -10.5702 -10.5702 -10.5463 -10.4528
   -10.3982 -10.3524   3.2958   7.1438   7.9732   9.4590

          k = 0.7500 0.0000-0.4582 ( 25855 PWs)   bands (ev):

   -10.7066 -10.6644 -10.6018 -10.5924 -10.5578 -10.5412 -10.5303 -10.4936
   -10.4875 -10.4313   3.0230   4.3602   7.2618   8.4575

          k = 0.5000 0.0000 0.0000 ( 25896 PWs)   bands (ev):

   -10.7480 -10.7184 -10.7064 -10.6123 -10.5283 -10.5204 -10.5165 -10.4737
   -10.4714 -10.4024   0.7803   4.3548   7.0799  10.7927

          k = 0.7500-0.7500-1.8328 ( 25826 PWs)   bands (ev):

   -10.7391 -10.7391 -10.6069 -10.6069 -10.5429 -10.5429 -10.4937 -10.4937
   -10.4650 -10.4650   2.4053   2.4053   7.9918   7.9918

          k = 0.5000-0.5000-0.9164 ( 25848 PWs)   bands (ev):

   -10.7149 -10.7149 -10.6445 -10.6445 -10.5369 -10.5369 -10.4434 -10.4434
   -10.4164 -10.4164   4.8064   4.8064   7.2811   7.2811

          k = 0.0000 0.0000-1.8328 ( 25792 PWs)   bands (ev):

   -10.7419 -10.7419 -10.5432 -10.5432 -10.5327 -10.5327 -10.5212 -10.5212
   -10.5084 -10.5084   3.2431   3.2431   6.0121   6.0121

     highest occupied level (ev):    11.4184

!    total energy              =    -325.59183961 Ry
     estimated scf accuracy    <          3.7E-10 Ry

     The total energy is the sum of the following terms:
     one-electron contribution =    -107.33261233 Ry
     hartree contribution      =      74.47908808 Ry
     xc contribution           =     -95.22301216 Ry
     ewald contribution        =    -197.51530320 Ry

     convergence has been achieved in   6 iterations

     Writing all to output data dir ./beta-sn-scf/betatin.save/ :
     XML data file, charge density, pseudopotentials, collected wavefunctions

     init_run     :      0.68s CPU      0.76s WALL (       1 calls)
     electrons    :      1.59s CPU      1.85s WALL (       1 calls)

     Called by init_run:
     wfcinit      :      0.08s CPU      0.09s WALL (       1 calls)
     potinit      :      0.05s CPU      0.05s WALL (       1 calls)
     hinit0       :      0.42s CPU      0.44s WALL (       1 calls)

     Called by electrons:
     c_bands      :      1.05s CPU      1.10s WALL (       7 calls)
     sum_band     :      0.28s CPU      0.31s WALL (       7 calls)
     v_of_rho     :      0.19s CPU      0.19s WALL (       7 calls)
     newd         :      0.07s CPU      0.08s WALL (       7 calls)
     mix_rho      :      0.02s CPU      0.02s WALL (       7 calls)

     Called by c_bands:
     init_us_2    :      0.02s CPU      0.02s WALL (      60 calls)
     cegterg      :      0.96s CPU      1.00s WALL (      28 calls)

     Called by *egterg:
     cdiaghg      :      0.04s CPU      0.04s WALL (     109 calls)
     h_psi        :      0.91s CPU      0.95s WALL (     117 calls)
     s_psi        :      0.02s CPU      0.02s WALL (     117 calls)
     g_psi        :      0.00s CPU      0.00s WALL (      85 calls)

     Called by h_psi:
     h_psi:calbec :      0.03s CPU      0.03s WALL (     117 calls)
     vloc_psi     :      0.86s CPU      0.90s WALL (     117 calls)
     add_vuspsi   :      0.02s CPU      0.02s WALL (     117 calls)

     General routines
     calbec       :      0.03s CPU      0.03s WALL (     145 calls)
     fft          :      0.49s CPU      0.50s WALL (      78 calls)
     ffts         :      0.01s CPU      0.01s WALL (       7 calls)
     fftw         :      0.91s CPU      0.95s WALL (    2594 calls)

     Parallel routines

     PWSCF        :      2.60s CPU      3.38s WALL


   This run was terminated on:  12: 2: 1   4Feb2026            

=------------------------------------------------------------------------------=
   JOB DONE.
=------------------------------------------------------------------------------=
