
     Program PWSCF v.7.3.1 starts on  4Feb2026 at 12: 2:28 

     This program is part of the open-source Quantum ESPRESSO suite
     for quantum simulation of materials; please cite
         "P. Giannozzi et al., J. Phys.:Condens. Matter 21 395502 (2009);
         "P. Giannozzi et al., J. Phys.:Condens. Matter 29 465901 (2017);
         "P. Giannozzi et al., J. Chem. Phys. 152 154105 (2020);
          URL http://www.quantum-espresso.org", 
     in publications or presentations arising from this work. More details at
     http://www.quantum-espresso.org/quote

     Parallel version (MPI), running on   128 processors

     MPI processes distributed on     1 nodes
     240592 MiB available memory on the printing compute node when the environment starts

     Waiting for input...
     Reading input from standard input

     Current dimensions of program PWSCF are:
     Max number of different atomic species (ntypx) = 10
     Max number of k-points (npk) =  40000
     Max angular momentum in pseudopotentials (lmaxx) =  4

     K-points division:     npool     =       4
     R & G space division:  proc/nbgrp/npool/nimage =      32
     Subspace diagonalization in iterative solution of the eigenvalue problem:
     a serial algorithm will be used


     Parallelization info
     --------------------
     sticks:   dense  smooth     PW     G-vecs:    dense   smooth      PW
     Min         192     192     55                 7220     7220    1112
     Max         193     193     56                 7223     7223    1114
     Sum        6169    6169   1765               231089   231089   35629

     Using Slab Decomposition



     bravais-lattice index     =            7
     lattice parameter (alat)  =      11.0200  a.u.
     unit-cell volume          =     365.0809 (a.u.)^3
     number of atoms/cell      =            2
     number of atomic types    =            1
     number of electrons       =        28.00
     number of Kohn-Sham states=           14
     kinetic-energy cutoff     =     280.0000  Ry
     charge density cutoff     =    1120.0000  Ry
     scf convergence threshold =      1.0E-07
     mixing beta               =       0.7000
     number of iterations used =            8  plain     mixing
     Exchange-correlation=  SLA  PW   GGX  GGC
                           (   1   4   2   2   0   0   0)

     celldm(1)=  11.020000  celldm(2)=   0.000000  celldm(3)=   0.545600
     celldm(4)=   0.000000  celldm(5)=   0.000000  celldm(6)=   0.000000

     crystal axes: (cart. coord. in units of alat)
               a(1) = (   0.500000  -0.500000   0.272800 )  
               a(2) = (   0.500000   0.500000   0.272800 )  
               a(3) = (  -0.500000  -0.500000   0.272800 )  

     reciprocal axes: (cart. coord. in units 2 pi/alat)
               b(1) = (  1.000000 -1.000000  0.000000 )  
               b(2) = (  0.000000  1.000000  1.832845 )  
               b(3) = ( -1.000000  0.000000  1.832845 )  


     PseudoPot. # 1 for Sn read from file:
     ./Sn.pw91-n-van.UPF
     MD5 check sum: a38d2a872edd1a4efd76c0a1a38f7031
     Pseudo is Ultrasoft + core correction, Zval = 14.0
     Generated by new atomic code, or converted to UPF format
     Using radial grid of  891 points,  6 beta functions with: 
                l(1) =   0
                l(2) =   0
                l(3) =   1
                l(4) =   1
                l(5) =   2
                l(6) =   2
     Q(r) pseudized with  8 coefficients,  rinner =    1.100   1.100   1.100
                                                       1.100   1.100

     atomic species   valence    mass     pseudopotential
     Sn               14.00   118.70000     Sn( 1.00)

     16 Sym. Ops., with inversion, found (12 have fractional translation)



   Cartesian axes

     site n.     atom                  positions (alat units)
         1        Sn     tau(   1) = (   0.0000000  -0.2500000   0.0682000  )
         2        Sn     tau(   2) = (   0.0000000   0.2500000  -0.0682000  )

     number of k points=    13
                       cart. coord. in units 2pi/alat
        k(    1) = (   0.0000000   0.0000000   0.0000000), wk =   0.0312500
        k(    2) = (  -0.2500000   0.0000000   0.4582111), wk =   0.2500000
        k(    3) = (   0.5000000   0.0000000  -0.9164223), wk =   0.1250000
        k(    4) = (  -0.2500000   0.2500000   0.9164223), wk =   0.2500000
        k(    5) = (   0.5000000   0.2500000  -0.4582111), wk =   0.5000000
        k(    6) = (   0.2500000   0.2500000   0.0000000), wk =   0.1250000
        k(    7) = (   0.5000000  -0.5000000  -1.8328446), wk =   0.0625000
        k(    8) = (   0.0000000   0.0000000   0.9164223), wk =   0.0625000
        k(    9) = (   0.7500000   0.0000000  -0.4582111), wk =   0.2500000
        k(   10) = (   0.5000000   0.0000000   0.0000000), wk =   0.1250000
        k(   11) = (   0.7500000  -0.7500000  -1.8328446), wk =   0.1250000
        k(   12) = (   0.5000000  -0.5000000  -0.9164223), wk =   0.0625000
        k(   13) = (   0.0000000   0.0000000  -1.8328446), wk =   0.0312500

     Dense  grid:   231089 G-vectors     FFT dimensions: (  90,  90,  90)

     Estimated max dynamical RAM per process >      14.08 MB

     Estimated total dynamical RAM >       1.59 GB

     Initial potential from superposition of free atoms

     starting charge      27.9964, renormalised to      28.0000
     Starting wfcs are   18 randomized atomic wfcs

     total cpu time spent up to now is        1.1 secs

     per-process dynamical memory:    18.5 Mb

     Self-consistent Calculation

     iteration #  1     ecut=   280.00 Ry     beta= 0.70
     Davidson diagonalization with overlap
     ethr =  1.00E-02,  avg # of iterations =  2.3

     Threshold (ethr) on eigenvalues was too large:
     Diagonalizing with lowered threshold

     Davidson diagonalization with overlap
     ethr =  1.49E-05,  avg # of iterations =  5.2

     total cpu time spent up to now is        1.6 secs

     total energy              =    -325.55927360 Ry
     estimated scf accuracy    <       0.00649144 Ry

     iteration #  2     ecut=   280.00 Ry     beta= 0.70
     Davidson diagonalization with overlap
     ethr =  2.32E-05,  avg # of iterations =  4.0

     total cpu time spent up to now is        1.9 secs

     total energy              =    -325.58614689 Ry
     estimated scf accuracy    <       0.00211750 Ry

     iteration #  3     ecut=   280.00 Ry     beta= 0.70
     Davidson diagonalization with overlap
     ethr =  7.56E-06,  avg # of iterations =  2.0

     total cpu time spent up to now is        2.2 secs

     total energy              =    -325.59185109 Ry
     estimated scf accuracy    <       0.00025567 Ry

     iteration #  4     ecut=   280.00 Ry     beta= 0.70
     Davidson diagonalization with overlap
     ethr =  9.13E-07,  avg # of iterations =  2.6

     total cpu time spent up to now is        2.4 secs

     total energy              =    -325.59191270 Ry
     estimated scf accuracy    <       0.00001045 Ry

     iteration #  5     ecut=   280.00 Ry     beta= 0.70
     Davidson diagonalization with overlap
     ethr =  3.73E-08,  avg # of iterations =  2.6

     total cpu time spent up to now is        2.6 secs

     total energy              =    -325.59191356 Ry
     estimated scf accuracy    <       0.00000171 Ry

     iteration #  6     ecut=   280.00 Ry     beta= 0.70
     Davidson diagonalization with overlap
     ethr =  6.11E-09,  avg # of iterations =  2.2

     total cpu time spent up to now is        2.8 secs

     End of self-consistent calculation

          k = 0.0000 0.0000 0.0000 ( 28873 PWs)   bands (ev):

   -10.8131 -10.7304 -10.6865 -10.6752 -10.5252 -10.5252 -10.5141 -10.5141
   -10.4221 -10.3101  -0.3473   7.1616   8.8396   8.8396

          k =-0.2500 0.0000 0.4582 ( 28876 PWs)   bands (ev):

   -10.7772 -10.6492 -10.6447 -10.6035 -10.5810 -10.5397 -10.5313 -10.5084
   -10.4431 -10.3446   0.8910   6.5842   9.0438  11.2830

          k = 0.5000 0.0000-0.9164 ( 28898 PWs)   bands (ev):

   -10.7379 -10.6674 -10.6506 -10.6112 -10.5771 -10.5742 -10.4755 -10.4284
   -10.4247 -10.3781   3.8534   5.3957   8.4874   9.1141

          k =-0.2500 0.2500 0.9164 ( 28888 PWs)   bands (ev):

   -10.7517 -10.6640 -10.6208 -10.6037 -10.6019 -10.5513 -10.4926 -10.4731
   -10.3969 -10.3691   3.7387   6.0511   7.1231   9.1082

          k = 0.5000 0.2500-0.4582 ( 28887 PWs)   bands (ev):

   -10.7205 -10.6610 -10.6574 -10.6034 -10.5862 -10.5291 -10.4954 -10.4878
   -10.4707 -10.4063   2.0034   4.1411   9.3953  10.6278

          k = 0.2500 0.2500 0.0000 ( 28830 PWs)   bands (ev):

   -10.7631 -10.7372 -10.7019 -10.6447 -10.5519 -10.5045 -10.5028 -10.4948
   -10.4514 -10.3587   0.2174   4.5878   9.5062  10.5376

          k = 0.5000-0.5000-1.8328 ( 28842 PWs)   bands (ev):

   -10.7336 -10.7336 -10.6458 -10.6458 -10.5517 -10.5517 -10.4805 -10.4805
   -10.4414 -10.4414   1.9006   1.9006  11.4181  11.4181

          k = 0.0000 0.0000 0.9164 ( 28876 PWs)   bands (ev):

   -10.7434 -10.6357 -10.6357 -10.6161 -10.5712 -10.5712 -10.5473 -10.4538
   -10.3993 -10.3535   3.2954   7.1434   7.9729   9.4587

          k = 0.7500 0.0000-0.4582 ( 28875 PWs)   bands (ev):

   -10.7077 -10.6654 -10.6028 -10.5934 -10.5589 -10.5423 -10.5314 -10.4947
   -10.4886 -10.4324   3.0226   4.3598   7.2615   8.4572

          k = 0.5000 0.0000 0.0000 ( 28823 PWs)   bands (ev):

   -10.7491 -10.7195 -10.7074 -10.6133 -10.5293 -10.5214 -10.5176 -10.4747
   -10.4724 -10.4035   0.7799   4.3544   7.0797  10.7924

          k = 0.7500-0.7500-1.8328 ( 28878 PWs)   bands (ev):

   -10.7401 -10.7401 -10.6080 -10.6080 -10.5440 -10.5440 -10.4947 -10.4947
   -10.4660 -10.4660   2.4049   2.4049   7.9915   7.9915

          k = 0.5000-0.5000-0.9164 ( 28876 PWs)   bands (ev):

   -10.7160 -10.7160 -10.6455 -10.6455 -10.5380 -10.5380 -10.4445 -10.4445
   -10.4175 -10.4175   4.8059   4.8059   7.2809   7.2809

          k = 0.0000 0.0000-1.8328 ( 28940 PWs)   bands (ev):

   -10.7429 -10.7429 -10.5443 -10.5443 -10.5337 -10.5337 -10.5222 -10.5222
   -10.5095 -10.5095   3.2426   3.2426   6.0118   6.0118

     highest occupied level (ev):    11.4181

!    total energy              =    -325.59191387 Ry
     estimated scf accuracy    <       0.00000007 Ry

     The total energy is the sum of the following terms:
     one-electron contribution =    -107.33334732 Ry
     hartree contribution      =      74.47992375 Ry
     xc contribution           =     -95.22318711 Ry
     ewald contribution        =    -197.51530320 Ry

     convergence has been achieved in   6 iterations

     Writing all to output data dir ./beta-sn-scf/betatin.save/ :
     XML data file, charge density, pseudopotentials, collected wavefunctions

     init_run     :      0.70s CPU      0.80s WALL (       1 calls)
     electrons    :      1.68s CPU      1.86s WALL (       1 calls)

     Called by init_run:
     wfcinit      :      0.09s CPU      0.10s WALL (       1 calls)
     potinit      :      0.04s CPU      0.06s WALL (       1 calls)
     hinit0       :      0.41s CPU      0.44s WALL (       1 calls)

     Called by electrons:
     c_bands      :      1.11s CPU      1.15s WALL (       7 calls)
     sum_band     :      0.31s CPU      0.33s WALL (       7 calls)
     v_of_rho     :      0.17s CPU      0.20s WALL (       7 calls)
     newd         :      0.08s CPU      0.09s WALL (       7 calls)
     mix_rho      :      0.02s CPU      0.02s WALL (       7 calls)

     Called by c_bands:
     init_us_2    :      0.02s CPU      0.03s WALL (      60 calls)
     cegterg      :      1.00s CPU      1.04s WALL (      28 calls)

     Called by *egterg:
     cdiaghg      :      0.04s CPU      0.04s WALL (     113 calls)
     h_psi        :      0.93s CPU      0.97s WALL (     121 calls)
     s_psi        :      0.02s CPU      0.02s WALL (     121 calls)
     g_psi        :      0.00s CPU      0.00s WALL (      89 calls)

     Called by h_psi:
     h_psi:calbec :      0.03s CPU      0.03s WALL (     121 calls)
     vloc_psi     :      0.88s CPU      0.92s WALL (     121 calls)
     add_vuspsi   :      0.02s CPU      0.02s WALL (     121 calls)

     General routines
     calbec       :      0.03s CPU      0.04s WALL (     149 calls)
     fft          :      0.48s CPU      0.51s WALL (      78 calls)
     ffts         :      0.02s CPU      0.02s WALL (       7 calls)
     fftw         :      0.93s CPU      0.97s WALL (    2588 calls)

     Parallel routines

     PWSCF        :      2.64s CPU      3.23s WALL


   This run was terminated on:  12: 2:31   4Feb2026            

=------------------------------------------------------------------------------=
   JOB DONE.
=------------------------------------------------------------------------------=
