
     Program PWSCF v.7.3.1 starts on  4Feb2026 at 12: 2:42 

     This program is part of the open-source Quantum ESPRESSO suite
     for quantum simulation of materials; please cite
         "P. Giannozzi et al., J. Phys.:Condens. Matter 21 395502 (2009);
         "P. Giannozzi et al., J. Phys.:Condens. Matter 29 465901 (2017);
         "P. Giannozzi et al., J. Chem. Phys. 152 154105 (2020);
          URL http://www.quantum-espresso.org", 
     in publications or presentations arising from this work. More details at
     http://www.quantum-espresso.org/quote

     Parallel version (MPI), running on   128 processors

     MPI processes distributed on     1 nodes
     240510 MiB available memory on the printing compute node when the environment starts

     Waiting for input...
     Reading input from standard input

     Current dimensions of program PWSCF are:
     Max number of different atomic species (ntypx) = 10
     Max number of k-points (npk) =  40000
     Max angular momentum in pseudopotentials (lmaxx) =  4

     K-points division:     npool     =       4
     R & G space division:  proc/nbgrp/npool/nimage =      32
     Subspace diagonalization in iterative solution of the eigenvalue problem:
     a serial algorithm will be used


     Parallelization info
     --------------------
     sticks:   dense  smooth     PW     G-vecs:    dense   smooth      PW
     Min         199     199     57                 7612     7612    1168
     Max         200     200     58                 7615     7615    1170
     Sum        6391    6391   1831               243621   243621   37413

     Using Slab Decomposition



     bravais-lattice index     =            7
     lattice parameter (alat)  =      11.0200  a.u.
     unit-cell volume          =     365.0809 (a.u.)^3
     number of atoms/cell      =            2
     number of atomic types    =            1
     number of electrons       =        28.00
     number of Kohn-Sham states=           14
     kinetic-energy cutoff     =     290.0000  Ry
     charge density cutoff     =    1160.0000  Ry
     scf convergence threshold =      1.0E-07
     mixing beta               =       0.7000
     number of iterations used =            8  plain     mixing
     Exchange-correlation=  SLA  PW   GGX  GGC
                           (   1   4   2   2   0   0   0)

     celldm(1)=  11.020000  celldm(2)=   0.000000  celldm(3)=   0.545600
     celldm(4)=   0.000000  celldm(5)=   0.000000  celldm(6)=   0.000000

     crystal axes: (cart. coord. in units of alat)
               a(1) = (   0.500000  -0.500000   0.272800 )  
               a(2) = (   0.500000   0.500000   0.272800 )  
               a(3) = (  -0.500000  -0.500000   0.272800 )  

     reciprocal axes: (cart. coord. in units 2 pi/alat)
               b(1) = (  1.000000 -1.000000  0.000000 )  
               b(2) = (  0.000000  1.000000  1.832845 )  
               b(3) = ( -1.000000  0.000000  1.832845 )  


     PseudoPot. # 1 for Sn read from file:
     ./Sn.pw91-n-van.UPF
     MD5 check sum: a38d2a872edd1a4efd76c0a1a38f7031
     Pseudo is Ultrasoft + core correction, Zval = 14.0
     Generated by new atomic code, or converted to UPF format
     Using radial grid of  891 points,  6 beta functions with: 
                l(1) =   0
                l(2) =   0
                l(3) =   1
                l(4) =   1
                l(5) =   2
                l(6) =   2
     Q(r) pseudized with  8 coefficients,  rinner =    1.100   1.100   1.100
                                                       1.100   1.100

     atomic species   valence    mass     pseudopotential
     Sn               14.00   118.70000     Sn( 1.00)

     16 Sym. Ops., with inversion, found (12 have fractional translation)



   Cartesian axes

     site n.     atom                  positions (alat units)
         1        Sn     tau(   1) = (   0.0000000  -0.2500000   0.0682000  )
         2        Sn     tau(   2) = (   0.0000000   0.2500000  -0.0682000  )

     number of k points=    13
                       cart. coord. in units 2pi/alat
        k(    1) = (   0.0000000   0.0000000   0.0000000), wk =   0.0312500
        k(    2) = (  -0.2500000   0.0000000   0.4582111), wk =   0.2500000
        k(    3) = (   0.5000000   0.0000000  -0.9164223), wk =   0.1250000
        k(    4) = (  -0.2500000   0.2500000   0.9164223), wk =   0.2500000
        k(    5) = (   0.5000000   0.2500000  -0.4582111), wk =   0.5000000
        k(    6) = (   0.2500000   0.2500000   0.0000000), wk =   0.1250000
        k(    7) = (   0.5000000  -0.5000000  -1.8328446), wk =   0.0625000
        k(    8) = (   0.0000000   0.0000000   0.9164223), wk =   0.0625000
        k(    9) = (   0.7500000   0.0000000  -0.4582111), wk =   0.2500000
        k(   10) = (   0.5000000   0.0000000   0.0000000), wk =   0.1250000
        k(   11) = (   0.7500000  -0.7500000  -1.8328446), wk =   0.1250000
        k(   12) = (   0.5000000  -0.5000000  -0.9164223), wk =   0.0625000
        k(   13) = (   0.0000000   0.0000000  -1.8328446), wk =   0.0312500

     Dense  grid:   243621 G-vectors     FFT dimensions: (  96,  96,  96)

     Estimated max dynamical RAM per process >      14.88 MB

     Estimated total dynamical RAM >       1.69 GB

     Initial potential from superposition of free atoms

     starting charge      27.9964, renormalised to      28.0000
     Starting wfcs are   18 randomized atomic wfcs

     total cpu time spent up to now is        1.4 secs

     per-process dynamical memory:    19.9 Mb

     Self-consistent Calculation

     iteration #  1     ecut=   290.00 Ry     beta= 0.70
     Davidson diagonalization with overlap
     ethr =  1.00E-02,  avg # of iterations =  2.4

     Threshold (ethr) on eigenvalues was too large:
     Diagonalizing with lowered threshold

     Davidson diagonalization with overlap
     ethr =  1.75E-05,  avg # of iterations =  5.2

     total cpu time spent up to now is        2.0 secs

     total energy              =    -325.55026408 Ry
     estimated scf accuracy    <       0.00732609 Ry

     iteration #  2     ecut=   290.00 Ry     beta= 0.70
     Davidson diagonalization with overlap
     ethr =  2.62E-05,  avg # of iterations =  4.2

     total cpu time spent up to now is        2.3 secs

     total energy              =    -325.58309399 Ry
     estimated scf accuracy    <       0.00334623 Ry

     iteration #  3     ecut=   290.00 Ry     beta= 0.70
     Davidson diagonalization with overlap
     ethr =  1.20E-05,  avg # of iterations =  2.0

     total cpu time spent up to now is        2.5 secs

     total energy              =    -325.59197398 Ry
     estimated scf accuracy    <       0.00053378 Ry

     iteration #  4     ecut=   290.00 Ry     beta= 0.70
     Davidson diagonalization with overlap
     ethr =  1.91E-06,  avg # of iterations =  2.5

     total cpu time spent up to now is        2.8 secs

     total energy              =    -325.59211395 Ry
     estimated scf accuracy    <       0.00002147 Ry

     iteration #  5     ecut=   290.00 Ry     beta= 0.70
     Davidson diagonalization with overlap
     ethr =  7.67E-08,  avg # of iterations =  2.9

     total cpu time spent up to now is        3.0 secs

     total energy              =    -325.59211648 Ry
     estimated scf accuracy    <       0.00000403 Ry

     iteration #  6     ecut=   290.00 Ry     beta= 0.70
     Davidson diagonalization with overlap
     ethr =  1.44E-08,  avg # of iterations =  2.0

     total cpu time spent up to now is        3.3 secs

     total energy              =    -325.59211712 Ry
     estimated scf accuracy    <       0.00000018 Ry

     iteration #  7     ecut=   290.00 Ry     beta= 0.70
     Davidson diagonalization with overlap
     ethr =  6.36E-10,  avg # of iterations =  2.7

     total cpu time spent up to now is        3.5 secs

     End of self-consistent calculation

          k = 0.0000 0.0000 0.0000 ( 30413 PWs)   bands (ev):

   -10.8122 -10.7296 -10.6857 -10.6744 -10.5244 -10.5244 -10.5133 -10.5133
   -10.4213 -10.3092  -0.3469   7.1621   8.8399   8.8399

          k =-0.2500 0.0000 0.4582 ( 30467 PWs)   bands (ev):

   -10.7764 -10.6485 -10.6439 -10.6027 -10.5802 -10.5389 -10.5305 -10.5076
   -10.4423 -10.3437   0.8914   6.5846   9.0441  11.2834

          k = 0.5000 0.0000-0.9164 ( 30448 PWs)   bands (ev):

   -10.7370 -10.6666 -10.6498 -10.6104 -10.5763 -10.5734 -10.4747 -10.4276
   -10.4238 -10.3773   3.8538   5.3960   8.4878   9.1144

          k =-0.2500 0.2500 0.9164 ( 30437 PWs)   bands (ev):

   -10.7509 -10.6632 -10.6200 -10.6029 -10.6011 -10.5505 -10.4918 -10.4723
   -10.3960 -10.3682   3.7391   6.0515   7.1233   9.1085

          k = 0.5000 0.2500-0.4582 ( 30439 PWs)   bands (ev):

   -10.7196 -10.6602 -10.6566 -10.6026 -10.5854 -10.5283 -10.4946 -10.4870
   -10.4699 -10.4054   2.0038   4.1415   9.3957  10.6281

          k = 0.2500 0.2500 0.0000 ( 30490 PWs)   bands (ev):

   -10.7623 -10.7364 -10.7012 -10.6440 -10.5511 -10.5037 -10.5020 -10.4940
   -10.4506 -10.3578   0.2178   4.5882   9.5065  10.5380

          k = 0.5000-0.5000-1.8328 ( 30486 PWs)   bands (ev):

   -10.7328 -10.7328 -10.6449 -10.6449 -10.5509 -10.5509 -10.4797 -10.4797
   -10.4406 -10.4406   1.9009   1.9009  11.4184  11.4184

          k = 0.0000 0.0000 0.9164 ( 30480 PWs)   bands (ev):

   -10.7425 -10.6349 -10.6349 -10.6153 -10.5704 -10.5704 -10.5465 -10.4530
   -10.3985 -10.3527   3.2958   7.1438   7.9732   9.4590

          k = 0.7500 0.0000-0.4582 ( 30435 PWs)   bands (ev):

   -10.7068 -10.6646 -10.6020 -10.5926 -10.5581 -10.5415 -10.5306 -10.4939
   -10.4877 -10.4315   3.0230   4.3603   7.2618   8.4575

          k = 0.5000 0.0000 0.0000 ( 30452 PWs)   bands (ev):

   -10.7483 -10.7187 -10.7066 -10.6125 -10.5285 -10.5206 -10.5168 -10.4740
   -10.4716 -10.4027   0.7803   4.3548   7.0799  10.7927

          k = 0.7500-0.7500-1.8328 ( 30412 PWs)   bands (ev):

   -10.7393 -10.7393 -10.6071 -10.6071 -10.5432 -10.5432 -10.4939 -10.4939
   -10.4652 -10.4652   2.4053   2.4053   7.9918   7.9918

          k = 0.5000-0.5000-0.9164 ( 30444 PWs)   bands (ev):

   -10.7151 -10.7151 -10.6447 -10.6447 -10.5372 -10.5372 -10.4436 -10.4436
   -10.4167 -10.4167   4.8064   4.8064   7.2811   7.2811

          k = 0.0000 0.0000-1.8328 ( 30444 PWs)   bands (ev):

   -10.7421 -10.7421 -10.5434 -10.5434 -10.5329 -10.5329 -10.5214 -10.5214
   -10.5087 -10.5087   3.2431   3.2431   6.0121   6.0121

     highest occupied level (ev):    11.4184

!    total energy              =    -325.59211715 Ry
     estimated scf accuracy    <          9.1E-10 Ry

     The total energy is the sum of the following terms:
     one-electron contribution =    -107.33319793 Ry
     hartree contribution      =      74.47948487 Ry
     xc contribution           =     -95.22310089 Ry
     ewald contribution        =    -197.51530320 Ry

     convergence has been achieved in   7 iterations

     Writing all to output data dir ./beta-sn-scf/betatin.save/ :
     XML data file, charge density, pseudopotentials, collected wavefunctions

     init_run     :      1.02s CPU      1.09s WALL (       1 calls)
     electrons    :      2.05s CPU      3.39s WALL (       1 calls)

     Called by init_run:
     wfcinit      :      0.08s CPU      0.10s WALL (       1 calls)
     potinit      :      0.04s CPU      0.05s WALL (       1 calls)
     hinit0       :      0.70s CPU      0.71s WALL (       1 calls)

     Called by electrons:
     c_bands      :      1.35s CPU      1.38s WALL (       8 calls)
     sum_band     :      0.37s CPU      0.40s WALL (       8 calls)
     v_of_rho     :      0.22s CPU      0.24s WALL (       8 calls)
     newd         :      0.11s CPU      0.11s WALL (       8 calls)
     mix_rho      :      0.02s CPU      0.02s WALL (       8 calls)

     Called by c_bands:
     init_us_2    :      0.03s CPU      0.03s WALL (      68 calls)
     cegterg      :      1.22s CPU      1.24s WALL (      32 calls)

     Called by *egterg:
     cdiaghg      :      0.05s CPU      0.05s WALL (     130 calls)
     h_psi        :      1.12s CPU      1.15s WALL (     138 calls)
     s_psi        :      0.02s CPU      0.02s WALL (     138 calls)
     g_psi        :      0.00s CPU      0.00s WALL (     102 calls)

     Called by h_psi:
     h_psi:calbec :      0.03s CPU      0.04s WALL (     138 calls)
     vloc_psi     :      1.06s CPU      1.09s WALL (     138 calls)
     add_vuspsi   :      0.02s CPU      0.02s WALL (     138 calls)

     General routines
     calbec       :      0.04s CPU      0.04s WALL (     170 calls)
     fft          :      0.78s CPU      0.81s WALL (      89 calls)
     ffts         :      0.02s CPU      0.02s WALL (       8 calls)
     fftw         :      1.12s CPU      1.16s WALL (    2900 calls)

     Parallel routines

     PWSCF        :      3.78s CPU      5.56s WALL


   This run was terminated on:  12: 2:48   4Feb2026            

=------------------------------------------------------------------------------=
   JOB DONE.
=------------------------------------------------------------------------------=
