
     Program PWSCF v.7.3.1 starts on  4Feb2026 at 12: 3:14 

     This program is part of the open-source Quantum ESPRESSO suite
     for quantum simulation of materials; please cite
         "P. Giannozzi et al., J. Phys.:Condens. Matter 21 395502 (2009);
         "P. Giannozzi et al., J. Phys.:Condens. Matter 29 465901 (2017);
         "P. Giannozzi et al., J. Chem. Phys. 152 154105 (2020);
          URL http://www.quantum-espresso.org", 
     in publications or presentations arising from this work. More details at
     http://www.quantum-espresso.org/quote

     Parallel version (MPI), running on   128 processors

     MPI processes distributed on     1 nodes
     240514 MiB available memory on the printing compute node when the environment starts

     Waiting for input...
     Reading input from standard input

     Current dimensions of program PWSCF are:
     Max number of different atomic species (ntypx) = 10
     Max number of k-points (npk) =  40000
     Max angular momentum in pseudopotentials (lmaxx) =  4

     K-points division:     npool     =       4
     R & G space division:  proc/nbgrp/npool/nimage =      32
     Subspace diagonalization in iterative solution of the eigenvalue problem:
     a serial algorithm will be used


     Parallelization info
     --------------------
     sticks:   dense  smooth     PW     G-vecs:    dense   smooth      PW
     Min         212     212     60                 8408     8408    1277
     Max         213     213     61                 8411     8411    1281
     Sum        6815    6815   1929               269109   269109   40895

     Using Slab Decomposition



     bravais-lattice index     =            7
     lattice parameter (alat)  =      11.0200  a.u.
     unit-cell volume          =     365.0809 (a.u.)^3
     number of atoms/cell      =            2
     number of atomic types    =            1
     number of electrons       =        28.00
     number of Kohn-Sham states=           14
     kinetic-energy cutoff     =     310.0000  Ry
     charge density cutoff     =    1240.0000  Ry
     scf convergence threshold =      1.0E-07
     mixing beta               =       0.7000
     number of iterations used =            8  plain     mixing
     Exchange-correlation=  SLA  PW   GGX  GGC
                           (   1   4   2   2   0   0   0)

     celldm(1)=  11.020000  celldm(2)=   0.000000  celldm(3)=   0.545600
     celldm(4)=   0.000000  celldm(5)=   0.000000  celldm(6)=   0.000000

     crystal axes: (cart. coord. in units of alat)
               a(1) = (   0.500000  -0.500000   0.272800 )  
               a(2) = (   0.500000   0.500000   0.272800 )  
               a(3) = (  -0.500000  -0.500000   0.272800 )  

     reciprocal axes: (cart. coord. in units 2 pi/alat)
               b(1) = (  1.000000 -1.000000  0.000000 )  
               b(2) = (  0.000000  1.000000  1.832845 )  
               b(3) = ( -1.000000  0.000000  1.832845 )  


     PseudoPot. # 1 for Sn read from file:
     ./Sn.pw91-n-van.UPF
     MD5 check sum: a38d2a872edd1a4efd76c0a1a38f7031
     Pseudo is Ultrasoft + core correction, Zval = 14.0
     Generated by new atomic code, or converted to UPF format
     Using radial grid of  891 points,  6 beta functions with: 
                l(1) =   0
                l(2) =   0
                l(3) =   1
                l(4) =   1
                l(5) =   2
                l(6) =   2
     Q(r) pseudized with  8 coefficients,  rinner =    1.100   1.100   1.100
                                                       1.100   1.100

     atomic species   valence    mass     pseudopotential
     Sn               14.00   118.70000     Sn( 1.00)

     16 Sym. Ops., with inversion, found (12 have fractional translation)



   Cartesian axes

     site n.     atom                  positions (alat units)
         1        Sn     tau(   1) = (   0.0000000  -0.2500000   0.0682000  )
         2        Sn     tau(   2) = (   0.0000000   0.2500000  -0.0682000  )

     number of k points=    13
                       cart. coord. in units 2pi/alat
        k(    1) = (   0.0000000   0.0000000   0.0000000), wk =   0.0312500
        k(    2) = (  -0.2500000   0.0000000   0.4582111), wk =   0.2500000
        k(    3) = (   0.5000000   0.0000000  -0.9164223), wk =   0.1250000
        k(    4) = (  -0.2500000   0.2500000   0.9164223), wk =   0.2500000
        k(    5) = (   0.5000000   0.2500000  -0.4582111), wk =   0.5000000
        k(    6) = (   0.2500000   0.2500000   0.0000000), wk =   0.1250000
        k(    7) = (   0.5000000  -0.5000000  -1.8328446), wk =   0.0625000
        k(    8) = (   0.0000000   0.0000000   0.9164223), wk =   0.0625000
        k(    9) = (   0.7500000   0.0000000  -0.4582111), wk =   0.2500000
        k(   10) = (   0.5000000   0.0000000   0.0000000), wk =   0.1250000
        k(   11) = (   0.7500000  -0.7500000  -1.8328446), wk =   0.1250000
        k(   12) = (   0.5000000  -0.5000000  -0.9164223), wk =   0.0625000
        k(   13) = (   0.0000000   0.0000000  -1.8328446), wk =   0.0312500

     Dense  grid:   269109 G-vectors     FFT dimensions: (  96,  96,  96)

     Estimated max dynamical RAM per process >      16.05 MB

     Estimated total dynamical RAM >       1.81 GB

     Initial potential from superposition of free atoms

     starting charge      27.9964, renormalised to      28.0000

     negative rho (up, down):  1.329E-05 0.000E+00
     Starting wfcs are   18 randomized atomic wfcs

     total cpu time spent up to now is        1.4 secs

     per-process dynamical memory:    20.3 Mb

     Self-consistent Calculation

     iteration #  1     ecut=   310.00 Ry     beta= 0.70
     Davidson diagonalization with overlap
     ethr =  1.00E-02,  avg # of iterations =  2.5

     Threshold (ethr) on eigenvalues was too large:
     Diagonalizing with lowered threshold

     Davidson diagonalization with overlap
     ethr =  2.98E-05,  avg # of iterations =  4.2

     negative rho (up, down):  2.813E-06 0.000E+00

     total cpu time spent up to now is        2.0 secs

     total energy              =    -325.52041352 Ry
     estimated scf accuracy    <       0.01081389 Ry

     iteration #  2     ecut=   310.00 Ry     beta= 0.70
     Davidson diagonalization with overlap
     ethr =  3.86E-05,  avg # of iterations =  4.9

     total cpu time spent up to now is        2.3 secs

     total energy              =    -325.57732251 Ry
     estimated scf accuracy    <       0.00794347 Ry

     iteration #  3     ecut=   310.00 Ry     beta= 0.70
     Davidson diagonalization with overlap
     ethr =  2.84E-05,  avg # of iterations =  2.0

     total cpu time spent up to now is        2.6 secs

     total energy              =    -325.59248602 Ry
     estimated scf accuracy    <       0.00180302 Ry

     iteration #  4     ecut=   310.00 Ry     beta= 0.70
     Davidson diagonalization with overlap
     ethr =  6.44E-06,  avg # of iterations =  2.2

     total cpu time spent up to now is        2.8 secs

     total energy              =    -325.59273952 Ry
     estimated scf accuracy    <       0.00002511 Ry

     iteration #  5     ecut=   310.00 Ry     beta= 0.70
     Davidson diagonalization with overlap
     ethr =  8.97E-08,  avg # of iterations =  3.5

     total cpu time spent up to now is        3.1 secs

     total energy              =    -325.59275163 Ry
     estimated scf accuracy    <       0.00000895 Ry

     iteration #  6     ecut=   310.00 Ry     beta= 0.70
     Davidson diagonalization with overlap
     ethr =  3.20E-08,  avg # of iterations =  2.0

     total cpu time spent up to now is        3.3 secs

     End of self-consistent calculation

          k = 0.0000 0.0000 0.0000 ( 33673 PWs)   bands (ev):

   -10.8136 -10.7305 -10.6871 -10.6753 -10.5254 -10.5254 -10.5144 -10.5144
   -10.4227 -10.3107  -0.3471   7.1619   8.8396   8.8396

          k =-0.2500 0.0000 0.4582 ( 33646 PWs)   bands (ev):

   -10.7777 -10.6498 -10.6449 -10.6037 -10.5813 -10.5400 -10.5316 -10.5086
   -10.4437 -10.3452   0.8912   6.5844   9.0438  11.2832

          k = 0.5000 0.0000-0.9164 ( 33650 PWs)   bands (ev):

   -10.7383 -10.6677 -10.6509 -10.6115 -10.5776 -10.5745 -10.4760 -10.4287
   -10.4249 -10.3785   3.8535   5.3959   8.4878   9.1146

          k =-0.2500 0.2500 0.9164 ( 33648 PWs)   bands (ev):

   -10.7521 -10.6643 -10.6211 -10.6042 -10.6022 -10.5517 -10.4929 -10.4736
   -10.3971 -10.3695   3.7388   6.0513   7.1234   9.1085

          k = 0.5000 0.2500-0.4582 ( 33662 PWs)   bands (ev):

   -10.7209 -10.6613 -10.6576 -10.6037 -10.5867 -10.5294 -10.4959 -10.4881
   -10.4710 -10.4068   2.0036   4.1413   9.3954  10.6280

          k = 0.2500 0.2500 0.0000 ( 33668 PWs)   bands (ev):

   -10.7636 -10.7373 -10.7021 -10.6453 -10.5522 -10.5048 -10.5030 -10.4951
   -10.4520 -10.3592   0.2176   4.5880   9.5062  10.5378

          k = 0.5000-0.5000-1.8328 ( 33640 PWs)   bands (ev):

   -10.7338 -10.7338 -10.6462 -10.6462 -10.5523 -10.5523 -10.4808 -10.4808
   -10.4418 -10.4418   1.9008   1.9008  11.4181  11.4181

          k = 0.0000 0.0000 0.9164 ( 33709 PWs)   bands (ev):

   -10.7439 -10.6359 -10.6359 -10.6166 -10.5715 -10.5715 -10.5476 -10.4544
   -10.3995 -10.3540   3.2956   7.1436   7.9734   9.4586

          k = 0.7500 0.0000-0.4582 ( 33643 PWs)   bands (ev):

   -10.7081 -10.6657 -10.6030 -10.5938 -10.5593 -10.5425 -10.5316 -10.4952
   -10.4888 -10.4328   3.0228   4.3601   7.2615   8.4572

          k = 0.5000 0.0000 0.0000 ( 33639 PWs)   bands (ev):

   -10.7493 -10.7196 -10.7078 -10.6139 -10.5296 -10.5217 -10.5179 -10.4751
   -10.4730 -10.4040   0.7801   4.3546   7.0797  10.7925

          k = 0.7500-0.7500-1.8328 ( 33652 PWs)   bands (ev):

   -10.7403 -10.7403 -10.6084 -10.6084 -10.5445 -10.5445 -10.4950 -10.4950
   -10.4664 -10.4664   2.4051   2.4051   7.9915   7.9915

          k = 0.5000-0.5000-0.9164 ( 33700 PWs)   bands (ev):

   -10.7163 -10.7163 -10.6458 -10.6458 -10.5386 -10.5386 -10.4449 -10.4449
   -10.4177 -10.4177   4.8060   4.8060   7.2812   7.2812

          k = 0.0000 0.0000-1.8328 ( 33556 PWs)   bands (ev):

   -10.7431 -10.7431 -10.5447 -10.5447 -10.5343 -10.5343 -10.5225 -10.5225
   -10.5097 -10.5097   3.2429   3.2429   6.0119   6.0119

     highest occupied level (ev):    11.4181

!    total energy              =    -325.59275231 Ry
     estimated scf accuracy    <       0.00000005 Ry

     The total energy is the sum of the following terms:
     one-electron contribution =    -107.33432125 Ry
     hartree contribution      =      74.48013559 Ry
     xc contribution           =     -95.22326346 Ry
     ewald contribution        =    -197.51530320 Ry

     convergence has been achieved in   6 iterations

     Writing all to output data dir ./beta-sn-scf/betatin.save/ :
     XML data file, charge density, pseudopotentials, collected wavefunctions

     init_run     :      1.04s CPU      1.13s WALL (       1 calls)
     electrons    :      1.87s CPU      2.02s WALL (       1 calls)

     Called by init_run:
     wfcinit      :      0.09s CPU      0.10s WALL (       1 calls)
     potinit      :      0.04s CPU      0.06s WALL (       1 calls)
     hinit0       :      0.70s CPU      0.72s WALL (       1 calls)

     Called by electrons:
     c_bands      :      1.21s CPU      1.23s WALL (       7 calls)
     sum_band     :      0.36s CPU      0.37s WALL (       7 calls)
     v_of_rho     :      0.19s CPU      0.23s WALL (       7 calls)
     newd         :      0.10s CPU      0.11s WALL (       7 calls)
     mix_rho      :      0.02s CPU      0.02s WALL (       7 calls)

     Called by c_bands:
     init_us_2    :      0.03s CPU      0.03s WALL (      60 calls)
     cegterg      :      1.10s CPU      1.11s WALL (      28 calls)

     Called by *egterg:
     cdiaghg      :      0.04s CPU      0.04s WALL (     112 calls)
     h_psi        :      1.02s CPU      1.03s WALL (     120 calls)
     s_psi        :      0.02s CPU      0.02s WALL (     120 calls)
     g_psi        :      0.00s CPU      0.00s WALL (      88 calls)

     Called by h_psi:
     h_psi:calbec :      0.03s CPU      0.03s WALL (     120 calls)
     vloc_psi     :      0.96s CPU      0.97s WALL (     120 calls)
     add_vuspsi   :      0.02s CPU      0.02s WALL (     120 calls)

     General routines
     calbec       :      0.04s CPU      0.04s WALL (     148 calls)
     fft          :      0.77s CPU      0.80s WALL (      78 calls)
     ffts         :      0.01s CPU      0.02s WALL (       7 calls)
     fftw         :      1.02s CPU      1.03s WALL (    2536 calls)

     Parallel routines

     PWSCF        :      3.20s CPU      3.82s WALL


   This run was terminated on:  12: 3:18   4Feb2026            

=------------------------------------------------------------------------------=
   JOB DONE.
=------------------------------------------------------------------------------=
