
     Program PWSCF v.7.3.1 starts on  4Feb2026 at 12: 4:20 

     This program is part of the open-source Quantum ESPRESSO suite
     for quantum simulation of materials; please cite
         "P. Giannozzi et al., J. Phys.:Condens. Matter 21 395502 (2009);
         "P. Giannozzi et al., J. Phys.:Condens. Matter 29 465901 (2017);
         "P. Giannozzi et al., J. Chem. Phys. 152 154105 (2020);
          URL http://www.quantum-espresso.org", 
     in publications or presentations arising from this work. More details at
     http://www.quantum-espresso.org/quote

     Parallel version (MPI), running on   128 processors

     MPI processes distributed on     1 nodes
     240500 MiB available memory on the printing compute node when the environment starts

     Waiting for input...
     Reading input from standard input

     Current dimensions of program PWSCF are:
     Max number of different atomic species (ntypx) = 10
     Max number of k-points (npk) =  40000
     Max angular momentum in pseudopotentials (lmaxx) =  4

     K-points division:     npool     =       4
     R & G space division:  proc/nbgrp/npool/nimage =      32
     Subspace diagonalization in iterative solution of the eigenvalue problem:
     a serial algorithm will be used


     Parallelization info
     --------------------
     sticks:   dense  smooth     PW     G-vecs:    dense   smooth      PW
     Min         240     240     68                10094    10094    1521
     Max         241     241     69                10097    10097    1523
     Sum        7703    7703   2181               323059   323059   48703

     Using Slab Decomposition



     bravais-lattice index     =            7
     lattice parameter (alat)  =      11.0200  a.u.
     unit-cell volume          =     365.0809 (a.u.)^3
     number of atoms/cell      =            2
     number of atomic types    =            1
     number of electrons       =        28.00
     number of Kohn-Sham states=           14
     kinetic-energy cutoff     =     350.0000  Ry
     charge density cutoff     =    1400.0000  Ry
     scf convergence threshold =      1.0E-07
     mixing beta               =       0.7000
     number of iterations used =            8  plain     mixing
     Exchange-correlation=  SLA  PW   GGX  GGC
                           (   1   4   2   2   0   0   0)

     celldm(1)=  11.020000  celldm(2)=   0.000000  celldm(3)=   0.545600
     celldm(4)=   0.000000  celldm(5)=   0.000000  celldm(6)=   0.000000

     crystal axes: (cart. coord. in units of alat)
               a(1) = (   0.500000  -0.500000   0.272800 )  
               a(2) = (   0.500000   0.500000   0.272800 )  
               a(3) = (  -0.500000  -0.500000   0.272800 )  

     reciprocal axes: (cart. coord. in units 2 pi/alat)
               b(1) = (  1.000000 -1.000000  0.000000 )  
               b(2) = (  0.000000  1.000000  1.832845 )  
               b(3) = ( -1.000000  0.000000  1.832845 )  


     PseudoPot. # 1 for Sn read from file:
     ./Sn.pw91-n-van.UPF
     MD5 check sum: a38d2a872edd1a4efd76c0a1a38f7031
     Pseudo is Ultrasoft + core correction, Zval = 14.0
     Generated by new atomic code, or converted to UPF format
     Using radial grid of  891 points,  6 beta functions with: 
                l(1) =   0
                l(2) =   0
                l(3) =   1
                l(4) =   1
                l(5) =   2
                l(6) =   2
     Q(r) pseudized with  8 coefficients,  rinner =    1.100   1.100   1.100
                                                       1.100   1.100

     atomic species   valence    mass     pseudopotential
     Sn               14.00   118.70000     Sn( 1.00)

     16 Sym. Ops., with inversion, found (12 have fractional translation)



   Cartesian axes

     site n.     atom                  positions (alat units)
         1        Sn     tau(   1) = (   0.0000000  -0.2500000   0.0682000  )
         2        Sn     tau(   2) = (   0.0000000   0.2500000  -0.0682000  )

     number of k points=    13
                       cart. coord. in units 2pi/alat
        k(    1) = (   0.0000000   0.0000000   0.0000000), wk =   0.0312500
        k(    2) = (  -0.2500000   0.0000000   0.4582111), wk =   0.2500000
        k(    3) = (   0.5000000   0.0000000  -0.9164223), wk =   0.1250000
        k(    4) = (  -0.2500000   0.2500000   0.9164223), wk =   0.2500000
        k(    5) = (   0.5000000   0.2500000  -0.4582111), wk =   0.5000000
        k(    6) = (   0.2500000   0.2500000   0.0000000), wk =   0.1250000
        k(    7) = (   0.5000000  -0.5000000  -1.8328446), wk =   0.0625000
        k(    8) = (   0.0000000   0.0000000   0.9164223), wk =   0.0625000
        k(    9) = (   0.7500000   0.0000000  -0.4582111), wk =   0.2500000
        k(   10) = (   0.5000000   0.0000000   0.0000000), wk =   0.1250000
        k(   11) = (   0.7500000  -0.7500000  -1.8328446), wk =   0.1250000
        k(   12) = (   0.5000000  -0.5000000  -0.9164223), wk =   0.0625000
        k(   13) = (   0.0000000   0.0000000  -1.8328446), wk =   0.0312500

     Dense  grid:   323059 G-vectors     FFT dimensions: ( 100, 100, 100)

     Estimated max dynamical RAM per process >      19.34 MB

     Estimated total dynamical RAM >       2.19 GB

     Initial potential from superposition of free atoms

     starting charge      27.9964, renormalised to      28.0000
     Starting wfcs are   18 randomized atomic wfcs

     total cpu time spent up to now is        1.3 secs

     per-process dynamical memory:    23.3 Mb

     Self-consistent Calculation

     iteration #  1     ecut=   350.00 Ry     beta= 0.70
     Davidson diagonalization with overlap
     ethr =  1.00E-02,  avg # of iterations =  2.8

     Threshold (ethr) on eigenvalues was too large:
     Diagonalizing with lowered threshold

     Davidson diagonalization with overlap
     ethr =  6.54E-05,  avg # of iterations =  4.0

     total cpu time spent up to now is        2.1 secs

     total energy              =    -325.46212967 Ry
     estimated scf accuracy    <       0.02203635 Ry

     iteration #  2     ecut=   350.00 Ry     beta= 0.70
     Davidson diagonalization with overlap
     ethr =  7.87E-05,  avg # of iterations =  4.5

     total cpu time spent up to now is        2.5 secs

     total energy              =    -325.56083225 Ry
     estimated scf accuracy    <       0.01878110 Ry

     iteration #  3     ecut=   350.00 Ry     beta= 0.70
     Davidson diagonalization with overlap
     ethr =  6.71E-05,  avg # of iterations =  2.0

     total cpu time spent up to now is        2.9 secs

     total energy              =    -325.58281345 Ry
     estimated scf accuracy    <       0.00444739 Ry

     iteration #  4     ecut=   350.00 Ry     beta= 0.70
     Davidson diagonalization with overlap
     ethr =  1.59E-05,  avg # of iterations =  2.4

     total cpu time spent up to now is        3.2 secs

     total energy              =    -325.58835930 Ry
     estimated scf accuracy    <       0.00052846 Ry

     iteration #  5     ecut=   350.00 Ry     beta= 0.70
     Davidson diagonalization with overlap
     ethr =  1.89E-06,  avg # of iterations =  2.8

     total cpu time spent up to now is        3.6 secs

     total energy              =    -325.58845581 Ry
     estimated scf accuracy    <       0.00000818 Ry

     iteration #  6     ecut=   350.00 Ry     beta= 0.70
     Davidson diagonalization with overlap
     ethr =  2.92E-08,  avg # of iterations =  3.6

     total cpu time spent up to now is        4.0 secs

     total energy              =    -325.59304593 Ry
     estimated scf accuracy    <       0.00002465 Ry

     iteration #  7     ecut=   350.00 Ry     beta= 0.70
     Davidson diagonalization with overlap
     ethr =  2.92E-08,  avg # of iterations =  1.0

     total cpu time spent up to now is        4.3 secs

     total energy              =    -325.59305112 Ry
     estimated scf accuracy    <       0.00002685 Ry

     iteration #  8     ecut=   350.00 Ry     beta= 0.70
     Davidson diagonalization with overlap
     ethr =  2.92E-08,  avg # of iterations =  2.6

     total cpu time spent up to now is        4.7 secs

     total energy              =    -325.59305158 Ry
     estimated scf accuracy    <       0.00000160 Ry

     iteration #  9     ecut=   350.00 Ry     beta= 0.70
     Davidson diagonalization with overlap
     ethr =  5.71E-09,  avg # of iterations =  1.2

     total cpu time spent up to now is        5.0 secs

     total energy              =    -325.59305288 Ry
     estimated scf accuracy    <       0.00000097 Ry

     iteration # 10     ecut=   350.00 Ry     beta= 0.70
     Davidson diagonalization with overlap
     ethr =  3.46E-09,  avg # of iterations =  2.2

     total cpu time spent up to now is        5.3 secs

     total energy              =    -325.59305301 Ry
     estimated scf accuracy    <       0.00000037 Ry

     iteration # 11     ecut=   350.00 Ry     beta= 0.70
     Davidson diagonalization with overlap
     ethr =  1.34E-09,  avg # of iterations =  2.0

     total cpu time spent up to now is        5.7 secs

     End of self-consistent calculation

          k = 0.0000 0.0000 0.0000 ( 40421 PWs)   bands (ev):

   -10.8121 -10.7295 -10.6856 -10.6743 -10.5243 -10.5243 -10.5132 -10.5132
   -10.4212 -10.3092  -0.3468   7.1623   8.8400   8.8400

          k =-0.2500 0.0000 0.4582 ( 40337 PWs)   bands (ev):

   -10.7762 -10.6483 -10.6438 -10.6026 -10.5801 -10.5388 -10.5304 -10.5075
   -10.4422 -10.3437   0.8915   6.5848   9.0441  11.2835

          k = 0.5000 0.0000-0.9164 ( 40402 PWs)   bands (ev):

   -10.7369 -10.6665 -10.6497 -10.6103 -10.5762 -10.5733 -10.4746 -10.4275
   -10.4237 -10.3772   3.8539   5.3961   8.4880   9.1145

          k =-0.2500 0.2500 0.9164 ( 40373 PWs)   bands (ev):

   -10.7508 -10.6631 -10.6199 -10.6028 -10.6010 -10.5504 -10.4917 -10.4722
   -10.3959 -10.3681   3.7393   6.0517   7.1234   9.1085

          k = 0.5000 0.2500-0.4582 ( 40395 PWs)   bands (ev):

   -10.7195 -10.6601 -10.6565 -10.6025 -10.5853 -10.5282 -10.4945 -10.4869
   -10.4698 -10.4054   2.0039   4.1416   9.3957  10.6281

          k = 0.2500 0.2500 0.0000 ( 40338 PWs)   bands (ev):

   -10.7622 -10.7363 -10.7010 -10.6438 -10.5510 -10.5036 -10.5019 -10.4939
   -10.4505 -10.3577   0.2179   4.5883   9.5066  10.5381

          k = 0.5000-0.5000-1.8328 ( 40350 PWs)   bands (ev):

   -10.7327 -10.7327 -10.6448 -10.6448 -10.5508 -10.5508 -10.4796 -10.4796
   -10.4405 -10.4405   1.9011   1.9011  11.4184  11.4184

          k = 0.0000 0.0000 0.9164 ( 40402 PWs)   bands (ev):

   -10.7424 -10.6348 -10.6348 -10.6152 -10.5703 -10.5703 -10.5464 -10.4529
   -10.3984 -10.3526   3.2960   7.1440   7.9733   9.4591

          k = 0.7500 0.0000-0.4582 ( 40384 PWs)   bands (ev):

   -10.7067 -10.6645 -10.6019 -10.5925 -10.5580 -10.5414 -10.5305 -10.4938
   -10.4876 -10.4314   3.0231   4.3604   7.2618   8.4576

          k = 0.5000 0.0000 0.0000 ( 40331 PWs)   bands (ev):

   -10.7481 -10.7186 -10.7065 -10.6124 -10.5284 -10.5205 -10.5167 -10.4739
   -10.4715 -10.4026   0.7804   4.3549   7.0800  10.7928

          k = 0.7500-0.7500-1.8328 ( 40414 PWs)   bands (ev):

   -10.7392 -10.7392 -10.6070 -10.6070 -10.5431 -10.5431 -10.4938 -10.4938
   -10.4651 -10.4651   2.4054   2.4054   7.9918   7.9918

          k = 0.5000-0.5000-0.9164 ( 40376 PWs)   bands (ev):

   -10.7150 -10.7150 -10.6446 -10.6446 -10.5371 -10.5371 -10.4436 -10.4436
   -10.4166 -10.4166   4.8065   4.8065   7.2812   7.2812

          k = 0.0000 0.0000-1.8328 ( 40330 PWs)   bands (ev):

   -10.7420 -10.7420 -10.5433 -10.5433 -10.5328 -10.5328 -10.5213 -10.5213
   -10.5086 -10.5086   3.2432   3.2432   6.0121   6.0121

     highest occupied level (ev):    11.4184

!    total energy              =    -325.59305302 Ry
     estimated scf accuracy    <          6.2E-09 Ry

     The total energy is the sum of the following terms:
     one-electron contribution =    -107.33393998 Ry
     hartree contribution      =      74.47921428 Ry
     xc contribution           =     -95.22302413 Ry
     ewald contribution        =    -197.51530320 Ry

     convergence has been achieved in  11 iterations

     Writing all to output data dir ./beta-sn-scf/betatin.save/ :
     XML data file, charge density, pseudopotentials, collected wavefunctions

     init_run     :      0.94s CPU      1.03s WALL (       1 calls)
     electrons    :      4.27s CPU      4.42s WALL (       1 calls)

     Called by init_run:
     wfcinit      :      0.12s CPU      0.14s WALL (       1 calls)
     potinit      :      0.03s CPU      0.07s WALL (       1 calls)
     hinit0       :      0.48s CPU      0.49s WALL (       1 calls)

     Called by electrons:
     c_bands      :      2.72s CPU      2.77s WALL (      12 calls)
     sum_band     :      0.81s CPU      0.83s WALL (      12 calls)
     v_of_rho     :      0.45s CPU      0.49s WALL (      12 calls)
     newd         :      0.19s CPU      0.21s WALL (      12 calls)
     mix_rho      :      0.06s CPU      0.06s WALL (      12 calls)

     Called by c_bands:
     init_us_2    :      0.06s CPU      0.06s WALL (     100 calls)
     cegterg      :      2.48s CPU      2.51s WALL (      48 calls)

     Called by *egterg:
     cdiaghg      :      0.06s CPU      0.06s WALL (     178 calls)
     h_psi        :      2.29s CPU      2.33s WALL (     186 calls)
     s_psi        :      0.04s CPU      0.04s WALL (     186 calls)
     g_psi        :      0.00s CPU      0.00s WALL (     134 calls)

     Called by h_psi:
     h_psi:calbec :      0.07s CPU      0.08s WALL (     186 calls)
     vloc_psi     :      2.17s CPU      2.20s WALL (     186 calls)
     add_vuspsi   :      0.04s CPU      0.04s WALL (     186 calls)

     General routines
     calbec       :      0.09s CPU      0.09s WALL (     234 calls)
     fft          :      0.69s CPU      0.73s WALL (     133 calls)
     ffts         :      0.03s CPU      0.03s WALL (      12 calls)
     fftw         :      2.34s CPU      2.37s WALL (    3994 calls)

     Parallel routines

     PWSCF        :      5.52s CPU      6.27s WALL


   This run was terminated on:  12: 4:26   4Feb2026            

=------------------------------------------------------------------------------=
   JOB DONE.
=------------------------------------------------------------------------------=
