
     Program PWSCF v.7.3.1 starts on  4Feb2026 at 12: 4:57 

     This program is part of the open-source Quantum ESPRESSO suite
     for quantum simulation of materials; please cite
         "P. Giannozzi et al., J. Phys.:Condens. Matter 21 395502 (2009);
         "P. Giannozzi et al., J. Phys.:Condens. Matter 29 465901 (2017);
         "P. Giannozzi et al., J. Chem. Phys. 152 154105 (2020);
          URL http://www.quantum-espresso.org", 
     in publications or presentations arising from this work. More details at
     http://www.quantum-espresso.org/quote

     Parallel version (MPI), running on   128 processors

     MPI processes distributed on     1 nodes
     240513 MiB available memory on the printing compute node when the environment starts

     Waiting for input...
     Reading input from standard input

     Current dimensions of program PWSCF are:
     Max number of different atomic species (ntypx) = 10
     Max number of k-points (npk) =  40000
     Max angular momentum in pseudopotentials (lmaxx) =  4

     K-points division:     npool     =       4
     R & G space division:  proc/nbgrp/npool/nimage =      32
     Subspace diagonalization in iterative solution of the eigenvalue problem:
     a serial algorithm will be used


     Parallelization info
     --------------------
     sticks:   dense  smooth     PW     G-vecs:    dense   smooth      PW
     Min         254     254     71                10961    10961    1642
     Max         255     255     72                10963    10963    1645
     Sum        8159    8159   2299               350797   350797   52611

     Using Slab Decomposition



     bravais-lattice index     =            7
     lattice parameter (alat)  =      11.0200  a.u.
     unit-cell volume          =     365.0809 (a.u.)^3
     number of atoms/cell      =            2
     number of atomic types    =            1
     number of electrons       =        28.00
     number of Kohn-Sham states=           14
     kinetic-energy cutoff     =     370.0000  Ry
     charge density cutoff     =    1480.0000  Ry
     scf convergence threshold =      1.0E-07
     mixing beta               =       0.7000
     number of iterations used =            8  plain     mixing
     Exchange-correlation=  SLA  PW   GGX  GGC
                           (   1   4   2   2   0   0   0)

     celldm(1)=  11.020000  celldm(2)=   0.000000  celldm(3)=   0.545600
     celldm(4)=   0.000000  celldm(5)=   0.000000  celldm(6)=   0.000000

     crystal axes: (cart. coord. in units of alat)
               a(1) = (   0.500000  -0.500000   0.272800 )  
               a(2) = (   0.500000   0.500000   0.272800 )  
               a(3) = (  -0.500000  -0.500000   0.272800 )  

     reciprocal axes: (cart. coord. in units 2 pi/alat)
               b(1) = (  1.000000 -1.000000  0.000000 )  
               b(2) = (  0.000000  1.000000  1.832845 )  
               b(3) = ( -1.000000  0.000000  1.832845 )  


     PseudoPot. # 1 for Sn read from file:
     ./Sn.pw91-n-van.UPF
     MD5 check sum: a38d2a872edd1a4efd76c0a1a38f7031
     Pseudo is Ultrasoft + core correction, Zval = 14.0
     Generated by new atomic code, or converted to UPF format
     Using radial grid of  891 points,  6 beta functions with: 
                l(1) =   0
                l(2) =   0
                l(3) =   1
                l(4) =   1
                l(5) =   2
                l(6) =   2
     Q(r) pseudized with  8 coefficients,  rinner =    1.100   1.100   1.100
                                                       1.100   1.100

     atomic species   valence    mass     pseudopotential
     Sn               14.00   118.70000     Sn( 1.00)

     16 Sym. Ops., with inversion, found (12 have fractional translation)



   Cartesian axes

     site n.     atom                  positions (alat units)
         1        Sn     tau(   1) = (   0.0000000  -0.2500000   0.0682000  )
         2        Sn     tau(   2) = (   0.0000000   0.2500000  -0.0682000  )

     number of k points=    13
                       cart. coord. in units 2pi/alat
        k(    1) = (   0.0000000   0.0000000   0.0000000), wk =   0.0312500
        k(    2) = (  -0.2500000   0.0000000   0.4582111), wk =   0.2500000
        k(    3) = (   0.5000000   0.0000000  -0.9164223), wk =   0.1250000
        k(    4) = (  -0.2500000   0.2500000   0.9164223), wk =   0.2500000
        k(    5) = (   0.5000000   0.2500000  -0.4582111), wk =   0.5000000
        k(    6) = (   0.2500000   0.2500000   0.0000000), wk =   0.1250000
        k(    7) = (   0.5000000  -0.5000000  -1.8328446), wk =   0.0625000
        k(    8) = (   0.0000000   0.0000000   0.9164223), wk =   0.0625000
        k(    9) = (   0.7500000   0.0000000  -0.4582111), wk =   0.2500000
        k(   10) = (   0.5000000   0.0000000   0.0000000), wk =   0.1250000
        k(   11) = (   0.7500000  -0.7500000  -1.8328446), wk =   0.1250000
        k(   12) = (   0.5000000  -0.5000000  -0.9164223), wk =   0.0625000
        k(   13) = (   0.0000000   0.0000000  -1.8328446), wk =   0.0312500

     Dense  grid:   350797 G-vectors     FFT dimensions: ( 108, 108, 108)

     Estimated max dynamical RAM per process >      21.05 MB

     Estimated total dynamical RAM >       2.38 GB

     Initial potential from superposition of free atoms

     starting charge      27.9964, renormalised to      28.0000
     Starting wfcs are   18 randomized atomic wfcs

     total cpu time spent up to now is        1.4 secs

     per-process dynamical memory:    25.5 Mb

     Self-consistent Calculation

     iteration #  1     ecut=   370.00 Ry     beta= 0.70
     Davidson diagonalization with overlap
     ethr =  1.00E-02,  avg # of iterations =  2.9

     Threshold (ethr) on eigenvalues was too large:
     Diagonalizing with lowered threshold

     Davidson diagonalization with overlap
     ethr =  8.71E-05,  avg # of iterations =  3.4

     total cpu time spent up to now is        2.3 secs

     total energy              =    -325.42878799 Ry
     estimated scf accuracy    <       0.02878547 Ry

     iteration #  2     ecut=   370.00 Ry     beta= 0.70
     Davidson diagonalization with overlap
     ethr =  1.03E-04,  avg # of iterations =  4.7

     total cpu time spent up to now is        2.9 secs

     total energy              =    -325.55840693 Ry
     estimated scf accuracy    <       0.02613114 Ry

     iteration #  3     ecut=   370.00 Ry     beta= 0.70
     Davidson diagonalization with overlap
     ethr =  9.33E-05,  avg # of iterations =  2.0

     total cpu time spent up to now is        3.3 secs

     total energy              =    -325.58121886 Ry
     estimated scf accuracy    <       0.00653391 Ry

     iteration #  4     ecut=   370.00 Ry     beta= 0.70
     Davidson diagonalization with overlap
     ethr =  2.33E-05,  avg # of iterations =  2.4

     total cpu time spent up to now is        3.7 secs

     total energy              =    -325.59300789 Ry
     estimated scf accuracy    <       0.00152970 Ry

     iteration #  5     ecut=   370.00 Ry     beta= 0.70
     Davidson diagonalization with overlap
     ethr =  5.46E-06,  avg # of iterations =  2.5

     total cpu time spent up to now is        4.1 secs

     total energy              =    -325.59326454 Ry
     estimated scf accuracy    <       0.00000814 Ry

     iteration #  6     ecut=   370.00 Ry     beta= 0.70
     Davidson diagonalization with overlap
     ethr =  2.91E-08,  avg # of iterations =  3.8

     total cpu time spent up to now is        4.6 secs

     total energy              =    -325.59327243 Ry
     estimated scf accuracy    <       0.00000325 Ry

     iteration #  7     ecut=   370.00 Ry     beta= 0.70
     Davidson diagonalization with overlap
     ethr =  1.16E-08,  avg # of iterations =  2.0

     total cpu time spent up to now is        5.0 secs

     total energy              =    -325.59327450 Ry
     estimated scf accuracy    <       0.00000012 Ry

     iteration #  8     ecut=   370.00 Ry     beta= 0.70
     Davidson diagonalization with overlap
     ethr =  4.33E-10,  avg # of iterations =  2.9

     total cpu time spent up to now is        5.4 secs

     End of self-consistent calculation

          k = 0.0000 0.0000 0.0000 ( 43975 PWs)   bands (ev):

   -10.8122 -10.7296 -10.6857 -10.6744 -10.5243 -10.5243 -10.5133 -10.5133
   -10.4213 -10.3092  -0.3467   7.1624   8.8400   8.8400

          k =-0.2500 0.0000 0.4582 ( 43872 PWs)   bands (ev):

   -10.7763 -10.6484 -10.6438 -10.6026 -10.5802 -10.5389 -10.5305 -10.5075
   -10.4423 -10.3437   0.8915   6.5849   9.0442  11.2836

          k = 0.5000 0.0000-0.9164 ( 43830 PWs)   bands (ev):

   -10.7370 -10.6665 -10.6498 -10.6104 -10.5763 -10.5733 -10.4746 -10.4275
   -10.4238 -10.3773   3.8540   5.3962   8.4881   9.1146

          k =-0.2500 0.2500 0.9164 ( 43868 PWs)   bands (ev):

   -10.7508 -10.6632 -10.6199 -10.6028 -10.6010 -10.5505 -10.4917 -10.4723
   -10.3960 -10.3682   3.7394   6.0518   7.1235   9.1086

          k = 0.5000 0.2500-0.4582 ( 43887 PWs)   bands (ev):

   -10.7196 -10.6602 -10.6565 -10.6025 -10.5854 -10.5283 -10.4946 -10.4870
   -10.4698 -10.4054   2.0040   4.1417   9.3958  10.6282

          k = 0.2500 0.2500 0.0000 ( 43938 PWs)   bands (ev):

   -10.7622 -10.7364 -10.7011 -10.6439 -10.5510 -10.5036 -10.5019 -10.4939
   -10.4506 -10.3578   0.2179   4.5884   9.5066  10.5382

          k = 0.5000-0.5000-1.8328 ( 43852 PWs)   bands (ev):

   -10.7328 -10.7328 -10.6449 -10.6449 -10.5509 -10.5509 -10.4797 -10.4797
   -10.4405 -10.4405   1.9011   1.9011  11.4185  11.4185

          k = 0.0000 0.0000 0.9164 ( 43862 PWs)   bands (ev):

   -10.7425 -10.6348 -10.6348 -10.6153 -10.5704 -10.5704 -10.5465 -10.4530
   -10.3984 -10.3526   3.2960   7.1440   7.9734   9.4591

          k = 0.7500 0.0000-0.4582 ( 43855 PWs)   bands (ev):

   -10.7068 -10.6646 -10.6019 -10.5926 -10.5580 -10.5414 -10.5305 -10.4938
   -10.4877 -10.4315   3.0232   4.3605   7.2619   8.4576

          k = 0.5000 0.0000 0.0000 ( 43898 PWs)   bands (ev):

   -10.7482 -10.7186 -10.7066 -10.6125 -10.5285 -10.5206 -10.5167 -10.4739
   -10.4716 -10.4026   0.7805   4.3550   7.0800  10.7928

          k = 0.7500-0.7500-1.8328 ( 43882 PWs)   bands (ev):

   -10.7392 -10.7392 -10.6071 -10.6071 -10.5431 -10.5431 -10.4939 -10.4939
   -10.4652 -10.4652   2.4055   2.4055   7.9919   7.9919

          k = 0.5000-0.5000-0.9164 ( 43916 PWs)   bands (ev):

   -10.7151 -10.7151 -10.6447 -10.6447 -10.5371 -10.5371 -10.4436 -10.4436
   -10.4166 -10.4166   4.8066   4.8066   7.2812   7.2812

          k = 0.0000 0.0000-1.8328 ( 43798 PWs)   bands (ev):

   -10.7420 -10.7420 -10.5434 -10.5434 -10.5329 -10.5329 -10.5214 -10.5214
   -10.5086 -10.5086   3.2433   3.2433   6.0122   6.0122

     highest occupied level (ev):    11.4185

!    total energy              =    -325.59327459 Ry
     estimated scf accuracy    <       0.00000002 Ry

     The total energy is the sum of the following terms:
     one-electron contribution =    -107.33425485 Ry
     hartree contribution      =      74.47934027 Ry
     xc contribution           =     -95.22305681 Ry
     ewald contribution        =    -197.51530320 Ry

     convergence has been achieved in   8 iterations

     Writing all to output data dir ./beta-sn-scf/betatin.save/ :
     XML data file, charge density, pseudopotentials, collected wavefunctions

     init_run     :      1.05s CPU      1.14s WALL (       1 calls)
     electrons    :      3.90s CPU      4.13s WALL (       1 calls)

     Called by init_run:
     wfcinit      :      0.15s CPU      0.16s WALL (       1 calls)
     potinit      :      0.06s CPU      0.08s WALL (       1 calls)
     hinit0       :      0.51s CPU      0.53s WALL (       1 calls)

     Called by electrons:
     c_bands      :      2.57s CPU      2.62s WALL (       9 calls)
     sum_band     :      0.71s CPU      0.73s WALL (       9 calls)
     v_of_rho     :      0.41s CPU      0.47s WALL (       9 calls)
     newd         :      0.16s CPU      0.18s WALL (       9 calls)
     mix_rho      :      0.05s CPU      0.05s WALL (       9 calls)

     Called by c_bands:
     init_us_2    :      0.05s CPU      0.05s WALL (      76 calls)
     cegterg      :      2.36s CPU      2.39s WALL (      36 calls)

     Called by *egterg:
     cdiaghg      :      0.05s CPU      0.05s WALL (     147 calls)
     h_psi        :      2.22s CPU      2.26s WALL (     155 calls)
     s_psi        :      0.03s CPU      0.03s WALL (     155 calls)
     g_psi        :      0.00s CPU      0.00s WALL (     115 calls)

     Called by h_psi:
     h_psi:calbec :      0.07s CPU      0.08s WALL (     155 calls)
     vloc_psi     :      2.11s CPU      2.13s WALL (     155 calls)
     add_vuspsi   :      0.04s CPU      0.04s WALL (     155 calls)

     General routines
     calbec       :      0.09s CPU      0.09s WALL (     191 calls)
     fft          :      0.67s CPU      0.72s WALL (     100 calls)
     ffts         :      0.02s CPU      0.02s WALL (       9 calls)
     fftw         :      2.24s CPU      2.26s WALL (    3154 calls)

     Parallel routines

     PWSCF        :      5.24s CPU      6.19s WALL


   This run was terminated on:  12: 5: 4   4Feb2026            

=------------------------------------------------------------------------------=
   JOB DONE.
=------------------------------------------------------------------------------=
