
     Program PWSCF v.7.3.1 starts on  4Feb2026 at 12: 5:15 

     This program is part of the open-source Quantum ESPRESSO suite
     for quantum simulation of materials; please cite
         "P. Giannozzi et al., J. Phys.:Condens. Matter 21 395502 (2009);
         "P. Giannozzi et al., J. Phys.:Condens. Matter 29 465901 (2017);
         "P. Giannozzi et al., J. Chem. Phys. 152 154105 (2020);
          URL http://www.quantum-espresso.org", 
     in publications or presentations arising from this work. More details at
     http://www.quantum-espresso.org/quote

     Parallel version (MPI), running on   128 processors

     MPI processes distributed on     1 nodes
     240504 MiB available memory on the printing compute node when the environment starts

     Waiting for input...
     Reading input from standard input

     Current dimensions of program PWSCF are:
     Max number of different atomic species (ntypx) = 10
     Max number of k-points (npk) =  40000
     Max angular momentum in pseudopotentials (lmaxx) =  4

     K-points division:     npool     =       4
     R & G space division:  proc/nbgrp/npool/nimage =      32
     Subspace diagonalization in iterative solution of the eigenvalue problem:
     a serial algorithm will be used


     Parallelization info
     --------------------
     sticks:   dense  smooth     PW     G-vecs:    dense   smooth      PW
     Min         261     261     73                11416    11416    1709
     Max         262     262     74                11417    11417    1713
     Sum        8361    8361   2361               365325   365325   54767

     Using Slab Decomposition



     bravais-lattice index     =            7
     lattice parameter (alat)  =      11.0200  a.u.
     unit-cell volume          =     365.0809 (a.u.)^3
     number of atoms/cell      =            2
     number of atomic types    =            1
     number of electrons       =        28.00
     number of Kohn-Sham states=           14
     kinetic-energy cutoff     =     380.0000  Ry
     charge density cutoff     =    1520.0000  Ry
     scf convergence threshold =      1.0E-07
     mixing beta               =       0.7000
     number of iterations used =            8  plain     mixing
     Exchange-correlation=  SLA  PW   GGX  GGC
                           (   1   4   2   2   0   0   0)

     celldm(1)=  11.020000  celldm(2)=   0.000000  celldm(3)=   0.545600
     celldm(4)=   0.000000  celldm(5)=   0.000000  celldm(6)=   0.000000

     crystal axes: (cart. coord. in units of alat)
               a(1) = (   0.500000  -0.500000   0.272800 )  
               a(2) = (   0.500000   0.500000   0.272800 )  
               a(3) = (  -0.500000  -0.500000   0.272800 )  

     reciprocal axes: (cart. coord. in units 2 pi/alat)
               b(1) = (  1.000000 -1.000000  0.000000 )  
               b(2) = (  0.000000  1.000000  1.832845 )  
               b(3) = ( -1.000000  0.000000  1.832845 )  


     PseudoPot. # 1 for Sn read from file:
     ./Sn.pw91-n-van.UPF
     MD5 check sum: a38d2a872edd1a4efd76c0a1a38f7031
     Pseudo is Ultrasoft + core correction, Zval = 14.0
     Generated by new atomic code, or converted to UPF format
     Using radial grid of  891 points,  6 beta functions with: 
                l(1) =   0
                l(2) =   0
                l(3) =   1
                l(4) =   1
                l(5) =   2
                l(6) =   2
     Q(r) pseudized with  8 coefficients,  rinner =    1.100   1.100   1.100
                                                       1.100   1.100

     atomic species   valence    mass     pseudopotential
     Sn               14.00   118.70000     Sn( 1.00)

     16 Sym. Ops., with inversion, found (12 have fractional translation)



   Cartesian axes

     site n.     atom                  positions (alat units)
         1        Sn     tau(   1) = (   0.0000000  -0.2500000   0.0682000  )
         2        Sn     tau(   2) = (   0.0000000   0.2500000  -0.0682000  )

     number of k points=    13
                       cart. coord. in units 2pi/alat
        k(    1) = (   0.0000000   0.0000000   0.0000000), wk =   0.0312500
        k(    2) = (  -0.2500000   0.0000000   0.4582111), wk =   0.2500000
        k(    3) = (   0.5000000   0.0000000  -0.9164223), wk =   0.1250000
        k(    4) = (  -0.2500000   0.2500000   0.9164223), wk =   0.2500000
        k(    5) = (   0.5000000   0.2500000  -0.4582111), wk =   0.5000000
        k(    6) = (   0.2500000   0.2500000   0.0000000), wk =   0.1250000
        k(    7) = (   0.5000000  -0.5000000  -1.8328446), wk =   0.0625000
        k(    8) = (   0.0000000   0.0000000   0.9164223), wk =   0.0625000
        k(    9) = (   0.7500000   0.0000000  -0.4582111), wk =   0.2500000
        k(   10) = (   0.5000000   0.0000000   0.0000000), wk =   0.1250000
        k(   11) = (   0.7500000  -0.7500000  -1.8328446), wk =   0.1250000
        k(   12) = (   0.5000000  -0.5000000  -0.9164223), wk =   0.0625000
        k(   13) = (   0.0000000   0.0000000  -1.8328446), wk =   0.0312500

     Dense  grid:   365325 G-vectors     FFT dimensions: ( 108, 108, 108)

     Estimated max dynamical RAM per process >      21.70 MB

     Estimated total dynamical RAM >       2.45 GB

     Initial potential from superposition of free atoms

     starting charge      27.9964, renormalised to      28.0000

     negative rho (up, down):  2.422E-05 0.000E+00
     Starting wfcs are   18 randomized atomic wfcs

     total cpu time spent up to now is        1.4 secs

     per-process dynamical memory:    25.7 Mb

     Self-consistent Calculation

     iteration #  1     ecut=   380.00 Ry     beta= 0.70
     Davidson diagonalization with overlap
     ethr =  1.00E-02,  avg # of iterations =  3.1

     Threshold (ethr) on eigenvalues was too large:
     Diagonalizing with lowered threshold

     Davidson diagonalization with overlap
     ethr =  1.05E-04,  avg # of iterations =  3.3

     negative rho (up, down):  8.190E-06 0.000E+00

     total cpu time spent up to now is        2.3 secs

     total energy              =    -325.40973128 Ry
     estimated scf accuracy    <       0.03338921 Ry

     iteration #  2     ecut=   380.00 Ry     beta= 0.70
     Davidson diagonalization with overlap
     ethr =  1.19E-04,  avg # of iterations =  4.7

     total cpu time spent up to now is        2.9 secs

     total energy              =    -325.54939748 Ry
     estimated scf accuracy    <       0.02963094 Ry

     iteration #  3     ecut=   380.00 Ry     beta= 0.70
     Davidson diagonalization with overlap
     ethr =  1.06E-04,  avg # of iterations =  2.0

     total cpu time spent up to now is        3.3 secs

     total energy              =    -325.57263810 Ry
     estimated scf accuracy    <       0.00701191 Ry

     iteration #  4     ecut=   380.00 Ry     beta= 0.70
     Davidson diagonalization with overlap
     ethr =  2.50E-05,  avg # of iterations =  2.8

     total cpu time spent up to now is        3.8 secs

     total energy              =    -325.59233637 Ry
     estimated scf accuracy    <       0.00232404 Ry

     iteration #  5     ecut=   380.00 Ry     beta= 0.70
     Davidson diagonalization with overlap
     ethr =  8.30E-06,  avg # of iterations =  2.2

     total cpu time spent up to now is        4.2 secs

     total energy              =    -325.59336127 Ry
     estimated scf accuracy    <       0.00014761 Ry

     iteration #  6     ecut=   380.00 Ry     beta= 0.70
     Davidson diagonalization with overlap
     ethr =  5.27E-07,  avg # of iterations =  2.8

     total cpu time spent up to now is        4.6 secs

     total energy              =    -325.59341035 Ry
     estimated scf accuracy    <       0.00000224 Ry

     iteration #  7     ecut=   380.00 Ry     beta= 0.70
     Davidson diagonalization with overlap
     ethr =  8.01E-09,  avg # of iterations =  3.8

     total cpu time spent up to now is        5.1 secs

     total energy              =    -325.59342016 Ry
     estimated scf accuracy    <       0.00000019 Ry

     iteration #  8     ecut=   380.00 Ry     beta= 0.70
     Davidson diagonalization with overlap
     ethr =  6.63E-10,  avg # of iterations =  2.0

     total cpu time spent up to now is        5.5 secs

     End of self-consistent calculation

          k = 0.0000 0.0000 0.0000 ( 45615 PWs)   bands (ev):

   -10.8125 -10.7297 -10.6860 -10.6745 -10.5245 -10.5245 -10.5134 -10.5134
   -10.4216 -10.3095  -0.3468   7.1624   8.8400   8.8400

          k =-0.2500 0.0000 0.4582 ( 45657 PWs)   bands (ev):

   -10.7766 -10.6487 -10.6440 -10.6028 -10.5803 -10.5391 -10.5306 -10.5077
   -10.4426 -10.3440   0.8915   6.5849   9.0441  11.2836

          k = 0.5000 0.0000-0.9164 ( 45666 PWs)   bands (ev):

   -10.7372 -10.6667 -10.6500 -10.6105 -10.5766 -10.5735 -10.4749 -10.4277
   -10.4240 -10.3775   3.8539   5.3962   8.4881   9.1147

          k =-0.2500 0.2500 0.9164 ( 45658 PWs)   bands (ev):

   -10.7511 -10.6633 -10.6201 -10.6031 -10.6012 -10.5507 -10.4919 -10.4726
   -10.3961 -10.3684   3.7393   6.0517   7.1235   9.1087

          k = 0.5000 0.2500-0.4582 ( 45674 PWs)   bands (ev):

   -10.7198 -10.6604 -10.6567 -10.6027 -10.5857 -10.5285 -10.4949 -10.4872
   -10.4700 -10.4057   2.0039   4.1417   9.3957  10.6282

          k = 0.2500 0.2500 0.0000 ( 45694 PWs)   bands (ev):

   -10.7625 -10.7365 -10.7012 -10.6442 -10.5512 -10.5038 -10.5021 -10.4941
   -10.4509 -10.3581   0.2179   4.5884   9.5065  10.5381

          k = 0.5000-0.5000-1.8328 ( 45672 PWs)   bands (ev):

   -10.7329 -10.7329 -10.6451 -10.6451 -10.5512 -10.5512 -10.4798 -10.4798
   -10.4408 -10.4408   1.9011   1.9011  11.4184  11.4184

          k = 0.0000 0.0000 0.9164 ( 45663 PWs)   bands (ev):

   -10.7428 -10.6350 -10.6350 -10.6155 -10.5705 -10.5705 -10.5466 -10.4533
   -10.3986 -10.3529   3.2960   7.1440   7.9735   9.4590

          k = 0.7500 0.0000-0.4582 ( 45698 PWs)   bands (ev):

   -10.7070 -10.6647 -10.6021 -10.5928 -10.5583 -10.5416 -10.5307 -10.4941
   -10.4879 -10.4317   3.0231   4.3605   7.2618   8.4575

          k = 0.5000 0.0000 0.0000 ( 45676 PWs)   bands (ev):

   -10.7484 -10.7188 -10.7068 -10.6128 -10.5286 -10.5207 -10.5169 -10.4741
   -10.4719 -10.4029   0.7804   4.3550   7.0799  10.7928

          k = 0.7500-0.7500-1.8328 ( 45694 PWs)   bands (ev):

   -10.7394 -10.7394 -10.6073 -10.6073 -10.5434 -10.5434 -10.4941 -10.4941
   -10.4654 -10.4654   2.4054   2.4054   7.9918   7.9918

          k = 0.5000-0.5000-0.9164 ( 45648 PWs)   bands (ev):

   -10.7153 -10.7153 -10.6449 -10.6449 -10.5375 -10.5375 -10.4439 -10.4439
   -10.4167 -10.4167   4.8065   4.8065   7.2813   7.2813

          k = 0.0000 0.0000-1.8328 ( 45702 PWs)   bands (ev):

   -10.7422 -10.7422 -10.5436 -10.5436 -10.5332 -10.5332 -10.5215 -10.5215
   -10.5088 -10.5088   3.2433   3.2433   6.0121   6.0121

     highest occupied level (ev):    11.4184

!    total energy              =    -325.59342020 Ry
     estimated scf accuracy    <       0.00000002 Ry

     The total energy is the sum of the following terms:
     one-electron contribution =    -107.33463907 Ry
     hartree contribution      =      74.47963565 Ry
     xc contribution           =     -95.22311358 Ry
     ewald contribution        =    -197.51530320 Ry

     convergence has been achieved in   8 iterations

     Writing all to output data dir ./beta-sn-scf/betatin.save/ :
     XML data file, charge density, pseudopotentials, collected wavefunctions

     init_run     :      1.06s CPU      1.16s WALL (       1 calls)
     electrons    :      3.99s CPU      4.18s WALL (       1 calls)

     Called by init_run:
     wfcinit      :      0.14s CPU      0.16s WALL (       1 calls)
     potinit      :      0.06s CPU      0.08s WALL (       1 calls)
     hinit0       :      0.50s CPU      0.52s WALL (       1 calls)

     Called by electrons:
     c_bands      :      2.61s CPU      2.66s WALL (       9 calls)
     sum_band     :      0.74s CPU      0.75s WALL (       9 calls)
     v_of_rho     :      0.43s CPU      0.46s WALL (       9 calls)
     newd         :      0.18s CPU      0.19s WALL (       9 calls)
     mix_rho      :      0.04s CPU      0.05s WALL (       9 calls)

     Called by c_bands:
     init_us_2    :      0.05s CPU      0.06s WALL (      76 calls)
     cegterg      :      2.40s CPU      2.43s WALL (      36 calls)

     Called by *egterg:
     cdiaghg      :      0.05s CPU      0.05s WALL (     144 calls)
     h_psi        :      2.24s CPU      2.29s WALL (     152 calls)
     s_psi        :      0.03s CPU      0.03s WALL (     152 calls)
     g_psi        :      0.00s CPU      0.00s WALL (     112 calls)

     Called by h_psi:
     h_psi:calbec :      0.08s CPU      0.08s WALL (     152 calls)
     vloc_psi     :      2.12s CPU      2.16s WALL (     152 calls)
     add_vuspsi   :      0.04s CPU      0.04s WALL (     152 calls)

     General routines
     calbec       :      0.09s CPU      0.09s WALL (     188 calls)
     fft          :      0.69s CPU      0.73s WALL (     100 calls)
     ffts         :      0.03s CPU      0.03s WALL (       9 calls)
     fftw         :      2.24s CPU      2.28s WALL (    3132 calls)

     Parallel routines

     PWSCF        :      5.37s CPU      6.33s WALL


   This run was terminated on:  12: 5:21   4Feb2026            

=------------------------------------------------------------------------------=
   JOB DONE.
=------------------------------------------------------------------------------=
