
     Program PWSCF v.7.3.1 starts on  4Feb2026 at 12: 5:38 

     This program is part of the open-source Quantum ESPRESSO suite
     for quantum simulation of materials; please cite
         "P. Giannozzi et al., J. Phys.:Condens. Matter 21 395502 (2009);
         "P. Giannozzi et al., J. Phys.:Condens. Matter 29 465901 (2017);
         "P. Giannozzi et al., J. Chem. Phys. 152 154105 (2020);
          URL http://www.quantum-espresso.org", 
     in publications or presentations arising from this work. More details at
     http://www.quantum-espresso.org/quote

     Parallel version (MPI), running on   128 processors

     MPI processes distributed on     1 nodes
     240465 MiB available memory on the printing compute node when the environment starts

     Waiting for input...
     Reading input from standard input

     Current dimensions of program PWSCF are:
     Max number of different atomic species (ntypx) = 10
     Max number of k-points (npk) =  40000
     Max angular momentum in pseudopotentials (lmaxx) =  4

     K-points division:     npool     =       4
     R & G space division:  proc/nbgrp/npool/nimage =      32
     Subspace diagonalization in iterative solution of the eigenvalue problem:
     a serial algorithm will be used


     Parallelization info
     --------------------
     sticks:   dense  smooth     PW     G-vecs:    dense   smooth      PW
     Min         268     268     75                11870    11870    1771
     Max         269     269     76                11873    11873    1773
     Sum        8591    8591   2409               379877   379877   56713

     Using Slab Decomposition



     bravais-lattice index     =            7
     lattice parameter (alat)  =      11.0200  a.u.
     unit-cell volume          =     365.0809 (a.u.)^3
     number of atoms/cell      =            2
     number of atomic types    =            1
     number of electrons       =        28.00
     number of Kohn-Sham states=           14
     kinetic-energy cutoff     =     390.0000  Ry
     charge density cutoff     =    1560.0000  Ry
     scf convergence threshold =      1.0E-07
     mixing beta               =       0.7000
     number of iterations used =            8  plain     mixing
     Exchange-correlation=  SLA  PW   GGX  GGC
                           (   1   4   2   2   0   0   0)

     celldm(1)=  11.020000  celldm(2)=   0.000000  celldm(3)=   0.545600
     celldm(4)=   0.000000  celldm(5)=   0.000000  celldm(6)=   0.000000

     crystal axes: (cart. coord. in units of alat)
               a(1) = (   0.500000  -0.500000   0.272800 )  
               a(2) = (   0.500000   0.500000   0.272800 )  
               a(3) = (  -0.500000  -0.500000   0.272800 )  

     reciprocal axes: (cart. coord. in units 2 pi/alat)
               b(1) = (  1.000000 -1.000000  0.000000 )  
               b(2) = (  0.000000  1.000000  1.832845 )  
               b(3) = ( -1.000000  0.000000  1.832845 )  


     PseudoPot. # 1 for Sn read from file:
     ./Sn.pw91-n-van.UPF
     MD5 check sum: a38d2a872edd1a4efd76c0a1a38f7031
     Pseudo is Ultrasoft + core correction, Zval = 14.0
     Generated by new atomic code, or converted to UPF format
     Using radial grid of  891 points,  6 beta functions with: 
                l(1) =   0
                l(2) =   0
                l(3) =   1
                l(4) =   1
                l(5) =   2
                l(6) =   2
     Q(r) pseudized with  8 coefficients,  rinner =    1.100   1.100   1.100
                                                       1.100   1.100

     atomic species   valence    mass     pseudopotential
     Sn               14.00   118.70000     Sn( 1.00)

     16 Sym. Ops., with inversion, found (12 have fractional translation)



   Cartesian axes

     site n.     atom                  positions (alat units)
         1        Sn     tau(   1) = (   0.0000000  -0.2500000   0.0682000  )
         2        Sn     tau(   2) = (   0.0000000   0.2500000  -0.0682000  )

     number of k points=    13
                       cart. coord. in units 2pi/alat
        k(    1) = (   0.0000000   0.0000000   0.0000000), wk =   0.0312500
        k(    2) = (  -0.2500000   0.0000000   0.4582111), wk =   0.2500000
        k(    3) = (   0.5000000   0.0000000  -0.9164223), wk =   0.1250000
        k(    4) = (  -0.2500000   0.2500000   0.9164223), wk =   0.2500000
        k(    5) = (   0.5000000   0.2500000  -0.4582111), wk =   0.5000000
        k(    6) = (   0.2500000   0.2500000   0.0000000), wk =   0.1250000
        k(    7) = (   0.5000000  -0.5000000  -1.8328446), wk =   0.0625000
        k(    8) = (   0.0000000   0.0000000   0.9164223), wk =   0.0625000
        k(    9) = (   0.7500000   0.0000000  -0.4582111), wk =   0.2500000
        k(   10) = (   0.5000000   0.0000000   0.0000000), wk =   0.1250000
        k(   11) = (   0.7500000  -0.7500000  -1.8328446), wk =   0.1250000
        k(   12) = (   0.5000000  -0.5000000  -0.9164223), wk =   0.0625000
        k(   13) = (   0.0000000   0.0000000  -1.8328446), wk =   0.0312500

     Dense  grid:   379877 G-vectors     FFT dimensions: ( 108, 108, 108)

     Estimated max dynamical RAM per process >      22.35 MB

     Estimated total dynamical RAM >       2.52 GB

     Initial potential from superposition of free atoms

     starting charge      27.9964, renormalised to      28.0000
     Starting wfcs are   18 randomized atomic wfcs

     total cpu time spent up to now is        1.5 secs

     per-process dynamical memory:    26.1 Mb

     Self-consistent Calculation

     iteration #  1     ecut=   390.00 Ry     beta= 0.70
     Davidson diagonalization with overlap
     ethr =  1.00E-02,  avg # of iterations =  2.9

     Threshold (ethr) on eigenvalues was too large:
     Diagonalizing with lowered threshold

     Davidson diagonalization with overlap
     ethr =  1.08E-04,  avg # of iterations =  3.4

     total cpu time spent up to now is        2.4 secs

     total energy              =    -325.40462476 Ry
     estimated scf accuracy    <       0.03435216 Ry

     iteration #  2     ecut=   390.00 Ry     beta= 0.70
     Davidson diagonalization with overlap
     ethr =  1.23E-04,  avg # of iterations =  4.6

     total cpu time spent up to now is        3.0 secs

     total energy              =    -325.54432356 Ry
     estimated scf accuracy    <       0.03059288 Ry

     iteration #  3     ecut=   390.00 Ry     beta= 0.70
     Davidson diagonalization with overlap
     ethr =  1.09E-04,  avg # of iterations =  2.0

     total cpu time spent up to now is        3.4 secs

     total energy              =    -325.56877622 Ry
     estimated scf accuracy    <       0.00732937 Ry

     iteration #  4     ecut=   390.00 Ry     beta= 0.70
     Davidson diagonalization with overlap
     ethr =  2.62E-05,  avg # of iterations =  2.9

     total cpu time spent up to now is        3.8 secs

     total energy              =    -325.59216171 Ry
     estimated scf accuracy    <       0.00250196 Ry

     iteration #  5     ecut=   390.00 Ry     beta= 0.70
     Davidson diagonalization with overlap
     ethr =  8.94E-06,  avg # of iterations =  2.5

     total cpu time spent up to now is        4.3 secs

     total energy              =    -325.59345441 Ry
     estimated scf accuracy    <       0.00019510 Ry

     iteration #  6     ecut=   390.00 Ry     beta= 0.70
     Davidson diagonalization with overlap
     ethr =  6.97E-07,  avg # of iterations =  2.4

     total cpu time spent up to now is        4.7 secs

     total energy              =    -325.59352699 Ry
     estimated scf accuracy    <       0.00000189 Ry

     iteration #  7     ecut=   390.00 Ry     beta= 0.70
     Davidson diagonalization with overlap
     ethr =  6.76E-09,  avg # of iterations =  3.8

     total cpu time spent up to now is        5.2 secs

     total energy              =    -325.59352810 Ry
     estimated scf accuracy    <       0.00000036 Ry

     iteration #  8     ecut=   390.00 Ry     beta= 0.70
     Davidson diagonalization with overlap
     ethr =  1.29E-09,  avg # of iterations =  2.3

     total cpu time spent up to now is        5.7 secs

     total energy              =    -325.59352823 Ry
     estimated scf accuracy    <       0.00000012 Ry

     iteration #  9     ecut=   390.00 Ry     beta= 0.70
     Davidson diagonalization with overlap
     ethr =  4.40E-10,  avg # of iterations =  2.1

     total cpu time spent up to now is        6.1 secs

     End of self-consistent calculation

          k = 0.0000 0.0000 0.0000 ( 47519 PWs)   bands (ev):

   -10.8123 -10.7299 -10.6858 -10.6747 -10.5246 -10.5246 -10.5135 -10.5135
   -10.4214 -10.3093  -0.3468   7.1622   8.8400   8.8400

          k =-0.2500 0.0000 0.4582 ( 47490 PWs)   bands (ev):

   -10.7764 -10.6485 -10.6441 -10.6029 -10.5804 -10.5391 -10.5307 -10.5078
   -10.4424 -10.3439   0.8915   6.5848   9.0442  11.2835

          k = 0.5000 0.0000-0.9164 ( 47516 PWs)   bands (ev):

   -10.7371 -10.6667 -10.6500 -10.6106 -10.5764 -10.5736 -10.4747 -10.4278
   -10.4241 -10.3775   3.8540   5.3961   8.4879   9.1144

          k =-0.2500 0.2500 0.9164 ( 47483 PWs)   bands (ev):

   -10.7510 -10.6634 -10.6201 -10.6030 -10.6013 -10.5507 -10.4920 -10.4724
   -10.3963 -10.3684   3.7393   6.0517   7.1233   9.1085

          k = 0.5000 0.2500-0.4582 ( 47477 PWs)   bands (ev):

   -10.7197 -10.6604 -10.6568 -10.6027 -10.5855 -10.5285 -10.4947 -10.4872
   -10.4701 -10.4056   2.0039   4.1416   9.3958  10.6281

          k = 0.2500 0.2500 0.0000 ( 47463 PWs)   bands (ev):

   -10.7623 -10.7367 -10.7014 -10.6440 -10.5512 -10.5039 -10.5022 -10.4942
   -10.4507 -10.3579   0.2179   4.5883   9.5066  10.5381

          k = 0.5000-0.5000-1.8328 ( 47440 PWs)   bands (ev):

   -10.7331 -10.7331 -10.6450 -10.6450 -10.5510 -10.5510 -10.4799 -10.4799
   -10.4407 -10.4407   1.9011   1.9011  11.4185  11.4185

          k = 0.0000 0.0000 0.9164 ( 47491 PWs)   bands (ev):

   -10.7426 -10.6351 -10.6351 -10.6153 -10.5706 -10.5706 -10.5467 -10.4531
   -10.3987 -10.3528   3.2960   7.1440   7.9732   9.4592

          k = 0.7500 0.0000-0.4582 ( 47493 PWs)   bands (ev):

   -10.7069 -10.6648 -10.6022 -10.5927 -10.5582 -10.5417 -10.5308 -10.4939
   -10.4879 -10.4317   3.0231   4.3604   7.2619   8.4576

          k = 0.5000 0.0000 0.0000 ( 47469 PWs)   bands (ev):

   -10.7484 -10.7189 -10.7067 -10.6126 -10.5287 -10.5208 -10.5170 -10.4742
   -10.4717 -10.4028   0.7804   4.3549   7.0800  10.7928

          k = 0.7500-0.7500-1.8328 ( 47462 PWs)   bands (ev):

   -10.7395 -10.7395 -10.6073 -10.6073 -10.5432 -10.5432 -10.4941 -10.4941
   -10.4654 -10.4654   2.4054   2.4054   7.9919   7.9919

          k = 0.5000-0.5000-0.9164 ( 47492 PWs)   bands (ev):

   -10.7153 -10.7153 -10.6450 -10.6450 -10.5372 -10.5372 -10.4438 -10.4438
   -10.4169 -10.4169   4.8066   4.8066   7.2811   7.2811

          k = 0.0000 0.0000-1.8328 ( 47414 PWs)   bands (ev):

   -10.7423 -10.7423 -10.5435 -10.5435 -10.5330 -10.5330 -10.5216 -10.5216
   -10.5089 -10.5089   3.2432   3.2432   6.0122   6.0122

     highest occupied level (ev):    11.4185

!    total energy              =    -325.59352823 Ry
     estimated scf accuracy    <       0.00000001 Ry

     The total energy is the sum of the following terms:
     one-electron contribution =    -107.33461616 Ry
     hartree contribution      =      74.47947005 Ry
     xc contribution           =     -95.22307893 Ry
     ewald contribution        =    -197.51530320 Ry

     convergence has been achieved in   9 iterations

     Writing all to output data dir ./beta-sn-scf/betatin.save/ :
     XML data file, charge density, pseudopotentials, collected wavefunctions

     init_run     :      1.10s CPU      1.19s WALL (       1 calls)
     electrons    :      4.45s CPU      4.70s WALL (       1 calls)

     Called by init_run:
     wfcinit      :      0.14s CPU      0.16s WALL (       1 calls)
     potinit      :      0.06s CPU      0.08s WALL (       1 calls)
     hinit0       :      0.50s CPU      0.52s WALL (       1 calls)

     Called by electrons:
     c_bands      :      2.93s CPU      2.99s WALL (      10 calls)
     sum_band     :      0.81s CPU      0.84s WALL (      10 calls)
     v_of_rho     :      0.46s CPU      0.52s WALL (      10 calls)
     newd         :      0.21s CPU      0.22s WALL (      10 calls)
     mix_rho      :      0.06s CPU      0.06s WALL (      10 calls)

     Called by c_bands:
     init_us_2    :      0.06s CPU      0.06s WALL (      84 calls)
     cegterg      :      2.67s CPU      2.71s WALL (      40 calls)

     Called by *egterg:
     cdiaghg      :      0.06s CPU      0.06s WALL (     154 calls)
     h_psi        :      2.49s CPU      2.53s WALL (     162 calls)
     s_psi        :      0.04s CPU      0.04s WALL (     162 calls)
     g_psi        :      0.00s CPU      0.01s WALL (     118 calls)

     Called by h_psi:
     h_psi:calbec :      0.09s CPU      0.09s WALL (     162 calls)
     vloc_psi     :      2.34s CPU      2.38s WALL (     162 calls)
     add_vuspsi   :      0.04s CPU      0.04s WALL (     162 calls)

     General routines
     calbec       :      0.10s CPU      0.10s WALL (     202 calls)
     fft          :      0.71s CPU      0.76s WALL (     111 calls)
     ffts         :      0.03s CPU      0.03s WALL (      10 calls)
     fftw         :      2.48s CPU      2.53s WALL (    3464 calls)

     Parallel routines

     PWSCF        :      5.89s CPU      7.60s WALL


   This run was terminated on:  12: 5:46   4Feb2026            

=------------------------------------------------------------------------------=
   JOB DONE.
=------------------------------------------------------------------------------=
