
     Program PWSCF v.7.3.1 starts on 25Feb2026 at 23:38:45 

     This program is part of the open-source Quantum ESPRESSO suite
     for quantum simulation of materials; please cite
         "P. Giannozzi et al., J. Phys.:Condens. Matter 21 395502 (2009);
         "P. Giannozzi et al., J. Phys.:Condens. Matter 29 465901 (2017);
         "P. Giannozzi et al., J. Chem. Phys. 152 154105 (2020);
          URL http://www.quantum-espresso.org", 
     in publications or presentations arising from this work. More details at
     http://www.quantum-espresso.org/quote

     Parallel version (MPI), running on   128 processors

     MPI processes distributed on     1 nodes
     236597 MiB available memory on the printing compute node when the environment starts

     Waiting for input...
     Reading input from standard input
     Message from routine read_cards :
     DEPRECATED: no units specified in ATOMIC_POSITIONS card
     Message from routine read_cards :
     ATOMIC_POSITIONS: units set to alat

     Current dimensions of program PWSCF are:
     Max number of different atomic species (ntypx) = 10
     Max number of k-points (npk) =  40000
     Max angular momentum in pseudopotentials (lmaxx) =  4

     K-points division:     npool     =       4
     R & G space division:  proc/nbgrp/npool/nimage =      32
     Subspace diagonalization in iterative solution of the eigenvalue problem:
     a serial algorithm will be used


     Parallelization info
     --------------------
     sticks:   dense  smooth     PW     G-vecs:    dense   smooth      PW
     Min         243     243     64                14174    14174    1960
     Max         244     244     65                14180    14180    1967
     Sum        7789    7789   2077               453615   453615   62847

     Using Slab Decomposition



     bravais-lattice index     =            2
     lattice parameter (alat)  =      12.3523  a.u.
     unit-cell volume          =     471.1764 (a.u.)^3
     number of atoms/cell      =            2
     number of atomic types    =            1
     number of electrons       =        28.00
     number of Kohn-Sham states=           14
     kinetic-energy cutoff     =     370.0000  Ry
     charge density cutoff     =    1480.0000  Ry
     scf convergence threshold =      1.0E-07
     mixing beta               =       0.7000
     number of iterations used =            8  plain     mixing
     Exchange-correlation=  SLA  PW   GGX  GGC
                           (   1   4   2   2   0   0   0)

     celldm(1)=  12.352300  celldm(2)=   0.000000  celldm(3)=   0.000000
     celldm(4)=   0.000000  celldm(5)=   0.000000  celldm(6)=   0.000000

     crystal axes: (cart. coord. in units of alat)
               a(1) = (  -0.500000   0.000000   0.500000 )  
               a(2) = (   0.000000   0.500000   0.500000 )  
               a(3) = (  -0.500000   0.500000   0.000000 )  

     reciprocal axes: (cart. coord. in units 2 pi/alat)
               b(1) = ( -1.000000 -1.000000  1.000000 )  
               b(2) = (  1.000000  1.000000  1.000000 )  
               b(3) = ( -1.000000  1.000000 -1.000000 )  


     PseudoPot. # 1 for Sn read from file:
     ./Sn.pw91-n-van.UPF
     MD5 check sum: a38d2a872edd1a4efd76c0a1a38f7031
     Pseudo is Ultrasoft + core correction, Zval = 14.0
     Generated by new atomic code, or converted to UPF format
     Using radial grid of  891 points,  6 beta functions with: 
                l(1) =   0
                l(2) =   0
                l(3) =   1
                l(4) =   1
                l(5) =   2
                l(6) =   2
     Q(r) pseudized with  8 coefficients,  rinner =    1.100   1.100   1.100
                                                       1.100   1.100

     atomic species   valence    mass     pseudopotential
     Sn               14.00   118.70000     Sn( 1.00)

     48 Sym. Ops., with inversion, found (24 have fractional translation)



   Cartesian axes

     site n.     atom                  positions (alat units)
         1        Sn     tau(   1) = (   0.0000000   0.0000000   0.0000000  )
         2        Sn     tau(   2) = (   0.2500000   0.2500000   0.2500000  )

     number of k points=   104

     Number of k-points >= 100: set verbosity='high' to print them.

     Dense  grid:   453615 G-vectors     FFT dimensions: ( 108, 108, 108)

     Estimated max dynamical RAM per process >      33.68 MB

     Estimated total dynamical RAM >       3.89 GB

     Initial potential from superposition of free atoms

     starting charge      27.9964, renormalised to      28.0000
     Starting wfcs are   18 randomized atomic wfcs

     total cpu time spent up to now is        2.3 secs

     per-process dynamical memory:    30.9 Mb

     Self-consistent Calculation

     iteration #  1     ecut=   370.00 Ry     beta= 0.70
     Davidson diagonalization with overlap
     ethr =  1.00E-02,  avg # of iterations =  2.9

     Threshold (ethr) on eigenvalues was too large:
     Diagonalizing with lowered threshold

     Davidson diagonalization with overlap
     ethr =  6.15E-05,  avg # of iterations =  4.1

     negative rho (up, down):  8.109E-07 0.000E+00

     total cpu time spent up to now is        7.4 secs

     total energy              =    -325.55524281 Ry
     estimated scf accuracy    <       0.02047652 Ry

     iteration #  2     ecut=   370.00 Ry     beta= 0.70
     Davidson diagonalization with overlap
     ethr =  7.31E-05,  avg # of iterations =  5.0

     total cpu time spent up to now is       10.7 secs

     total energy              =    -325.61921029 Ry
     estimated scf accuracy    <       0.03438471 Ry

     iteration #  3     ecut=   370.00 Ry     beta= 0.70
     Davidson diagonalization with overlap
     ethr =  7.31E-05,  avg # of iterations =  1.2

     total cpu time spent up to now is       12.7 secs

     total energy              =    -325.64800996 Ry
     estimated scf accuracy    <       0.01432405 Ry

     iteration #  4     ecut=   370.00 Ry     beta= 0.70
     Davidson diagonalization with overlap
     ethr =  5.12E-05,  avg # of iterations =  2.2

     total cpu time spent up to now is       14.9 secs

     total energy              =    -325.65306311 Ry
     estimated scf accuracy    <       0.00019215 Ry

     iteration #  5     ecut=   370.00 Ry     beta= 0.70
     Davidson diagonalization with overlap
     ethr =  6.86E-07,  avg # of iterations =  3.6

     total cpu time spent up to now is       17.5 secs

     total energy              =    -325.65380054 Ry
     estimated scf accuracy    <       0.00010633 Ry

     iteration #  6     ecut=   370.00 Ry     beta= 0.70
     Davidson diagonalization with overlap
     ethr =  3.80E-07,  avg # of iterations =  2.0

     total cpu time spent up to now is       19.6 secs

     total energy              =    -325.65387963 Ry
     estimated scf accuracy    <       0.00000046 Ry

     iteration #  7     ecut=   370.00 Ry     beta= 0.70
     Davidson diagonalization with overlap
     ethr =  1.63E-09,  avg # of iterations =  4.4

     total cpu time spent up to now is       22.8 secs

     total energy              =    -325.65388047 Ry
     estimated scf accuracy    <       0.00000031 Ry

     iteration #  8     ecut=   370.00 Ry     beta= 0.70
     Davidson diagonalization with overlap
     ethr =  1.12E-09,  avg # of iterations =  2.0

     total cpu time spent up to now is       25.0 secs

     End of self-consistent calculation

     Number of k-points >= 100: set verbosity='high' to print the bands.

     highest occupied level (ev):     7.6451

!    total energy              =    -325.65388067 Ry
     estimated scf accuracy    <       0.00000002 Ry

     The total energy is the sum of the following terms:
     one-electron contribution =    -153.70075225 Ry
     hartree contribution      =      94.19044265 Ry
     xc contribution           =     -95.19364003 Ry
     ewald contribution        =    -170.94993105 Ry

     convergence has been achieved in   8 iterations

     Writing all to output data dir ./alpha-EOS/alpha.save/ :
     XML data file, charge density, pseudopotentials, collected wavefunctions

     init_run     :      1.96s CPU      2.05s WALL (       1 calls)
     electrons    :     22.28s CPU     22.78s WALL (       1 calls)

     Called by init_run:
     wfcinit      :      0.93s CPU      0.95s WALL (       1 calls)
     potinit      :      0.06s CPU      0.08s WALL (       1 calls)
     hinit0       :      0.49s CPU      0.50s WALL (       1 calls)

     Called by electrons:
     c_bands      :     18.24s CPU     18.54s WALL (       9 calls)
     sum_band     :      3.34s CPU      3.40s WALL (       9 calls)
     v_of_rho     :      0.44s CPU      0.47s WALL (       9 calls)
     newd         :      0.21s CPU      0.22s WALL (       9 calls)
     mix_rho      :      0.07s CPU      0.07s WALL (       9 calls)

     Called by c_bands:
     init_us_2    :      0.43s CPU      0.45s WALL (     494 calls)
     cegterg      :     17.17s CPU     17.32s WALL (     234 calls)

     Called by *egterg:
     cdiaghg      :      0.37s CPU      0.37s WALL (    1021 calls)
     h_psi        :     15.61s CPU     15.75s WALL (    1073 calls)
     s_psi        :      0.30s CPU      0.30s WALL (    1073 calls)
     g_psi        :      0.04s CPU      0.04s WALL (     813 calls)

     Called by h_psi:
     h_psi:calbec :      0.71s CPU      0.71s WALL (    1073 calls)
     vloc_psi     :     14.46s CPU     14.58s WALL (    1073 calls)
     add_vuspsi   :      0.34s CPU      0.34s WALL (    1073 calls)

     General routines
     calbec       :      0.82s CPU      0.83s WALL (    1307 calls)
     fft          :      0.70s CPU      0.73s WALL (     100 calls)
     ffts         :      0.03s CPU      0.03s WALL (       9 calls)
     fftw         :     14.96s CPU     15.09s WALL (   21352 calls)

     Parallel routines

     PWSCF        :     24.85s CPU     27.14s WALL


   This run was terminated on:  23:39:12  25Feb2026            

=------------------------------------------------------------------------------=
   JOB DONE.
=------------------------------------------------------------------------------=
