
     Program PWSCF v.7.3.1 starts on 25Feb2026 at 19:46:48 

     This program is part of the open-source Quantum ESPRESSO suite
     for quantum simulation of materials; please cite
         "P. Giannozzi et al., J. Phys.:Condens. Matter 21 395502 (2009);
         "P. Giannozzi et al., J. Phys.:Condens. Matter 29 465901 (2017);
         "P. Giannozzi et al., J. Chem. Phys. 152 154105 (2020);
          URL http://www.quantum-espresso.org", 
     in publications or presentations arising from this work. More details at
     http://www.quantum-espresso.org/quote

     Parallel version (MPI), running on   128 processors

     MPI processes distributed on     1 nodes
     239466 MiB available memory on the printing compute node when the environment starts

     Waiting for input...
     Reading input from standard input
     Message from routine read_cards :
     DEPRECATED: no units specified in ATOMIC_POSITIONS card
     Message from routine read_cards :
     ATOMIC_POSITIONS: units set to alat

     Current dimensions of program PWSCF are:
     Max number of different atomic species (ntypx) = 10
     Max number of k-points (npk) =  40000
     Max angular momentum in pseudopotentials (lmaxx) =  4

     K-points division:     npool     =       4
     R & G space division:  proc/nbgrp/npool/nimage =      32
     Subspace diagonalization in iterative solution of the eigenvalue problem:
     a serial algorithm will be used


     Parallelization info
     --------------------
     sticks:   dense  smooth     PW     G-vecs:    dense   smooth      PW
     Min         244     244     65                14247    14247    1962
     Max         245     245     66                14251    14251    1968
     Sum        7813    7813   2083               455943   455943   62871

     Using Slab Decomposition



     bravais-lattice index     =            2
     lattice parameter (alat)  =      12.3768  a.u.
     unit-cell volume          =     473.9810 (a.u.)^3
     number of atoms/cell      =            2
     number of atomic types    =            1
     number of electrons       =        28.00
     number of Kohn-Sham states=           14
     kinetic-energy cutoff     =     370.0000  Ry
     charge density cutoff     =    1480.0000  Ry
     scf convergence threshold =      1.0E-07
     mixing beta               =       0.7000
     number of iterations used =            8  plain     mixing
     Exchange-correlation=  SLA  PW   GGX  GGC
                           (   1   4   2   2   0   0   0)

     celldm(1)=  12.376760  celldm(2)=   0.000000  celldm(3)=   0.000000
     celldm(4)=   0.000000  celldm(5)=   0.000000  celldm(6)=   0.000000

     crystal axes: (cart. coord. in units of alat)
               a(1) = (  -0.500000   0.000000   0.500000 )  
               a(2) = (   0.000000   0.500000   0.500000 )  
               a(3) = (  -0.500000   0.500000   0.000000 )  

     reciprocal axes: (cart. coord. in units 2 pi/alat)
               b(1) = ( -1.000000 -1.000000  1.000000 )  
               b(2) = (  1.000000  1.000000  1.000000 )  
               b(3) = ( -1.000000  1.000000 -1.000000 )  


     PseudoPot. # 1 for Sn read from file:
     ./Sn.pw91-n-van.UPF
     MD5 check sum: a38d2a872edd1a4efd76c0a1a38f7031
     Pseudo is Ultrasoft + core correction, Zval = 14.0
     Generated by new atomic code, or converted to UPF format
     Using radial grid of  891 points,  6 beta functions with: 
                l(1) =   0
                l(2) =   0
                l(3) =   1
                l(4) =   1
                l(5) =   2
                l(6) =   2
     Q(r) pseudized with  8 coefficients,  rinner =    1.100   1.100   1.100
                                                       1.100   1.100

     atomic species   valence    mass     pseudopotential
     Sn               14.00   118.70000     Sn( 1.00)

     48 Sym. Ops., with inversion, found (24 have fractional translation)



   Cartesian axes

     site n.     atom                  positions (alat units)
         1        Sn     tau(   1) = (   0.0000000   0.0000000   0.0000000  )
         2        Sn     tau(   2) = (   0.2500000   0.2500000   0.2500000  )

     number of k points=   104

     Number of k-points >= 100: set verbosity='high' to print them.

     Dense  grid:   455943 G-vectors     FFT dimensions: ( 108, 108, 108)

     Estimated max dynamical RAM per process >      33.84 MB

     Estimated total dynamical RAM >       3.90 GB

     Initial potential from superposition of free atoms

     starting charge      27.9964, renormalised to      28.0000
     Starting wfcs are   18 randomized atomic wfcs

     total cpu time spent up to now is        2.4 secs

     per-process dynamical memory:    30.7 Mb

     Self-consistent Calculation

     iteration #  1     ecut=   370.00 Ry     beta= 0.70
     Davidson diagonalization with overlap
     ethr =  1.00E-02,  avg # of iterations =  2.8

     Threshold (ethr) on eigenvalues was too large:
     Diagonalizing with lowered threshold

     Davidson diagonalization with overlap
     ethr =  6.28E-05,  avg # of iterations =  4.3

     negative rho (up, down):  5.851E-07 0.000E+00

     total cpu time spent up to now is        7.5 secs

     total energy              =    -325.55580547 Ry
     estimated scf accuracy    <       0.02084897 Ry

     iteration #  2     ecut=   370.00 Ry     beta= 0.70
     Davidson diagonalization with overlap
     ethr =  7.45E-05,  avg # of iterations =  4.9

     total cpu time spent up to now is       10.8 secs

     total energy              =    -325.62019733 Ry
     estimated scf accuracy    <       0.03459278 Ry

     iteration #  3     ecut=   370.00 Ry     beta= 0.70
     Davidson diagonalization with overlap
     ethr =  7.45E-05,  avg # of iterations =  1.2

     total cpu time spent up to now is       12.8 secs

     total energy              =    -325.64877531 Ry
     estimated scf accuracy    <       0.01432544 Ry

     iteration #  4     ecut=   370.00 Ry     beta= 0.70
     Davidson diagonalization with overlap
     ethr =  5.12E-05,  avg # of iterations =  2.2

     total cpu time spent up to now is       15.1 secs

     total energy              =    -325.65395021 Ry
     estimated scf accuracy    <       0.00017168 Ry

     iteration #  5     ecut=   370.00 Ry     beta= 0.70
     Davidson diagonalization with overlap
     ethr =  6.13E-07,  avg # of iterations =  3.6

     total cpu time spent up to now is       17.6 secs

     total energy              =    -325.65419141 Ry
     estimated scf accuracy    <       0.00011302 Ry

     iteration #  6     ecut=   370.00 Ry     beta= 0.70
     Davidson diagonalization with overlap
     ethr =  4.04E-07,  avg # of iterations =  2.0

     total cpu time spent up to now is       19.8 secs

     total energy              =    -325.65421954 Ry
     estimated scf accuracy    <       0.00000075 Ry

     iteration #  7     ecut=   370.00 Ry     beta= 0.70
     Davidson diagonalization with overlap
     ethr =  2.67E-09,  avg # of iterations =  3.9

     total cpu time spent up to now is       22.4 secs

     total energy              =    -325.65422265 Ry
     estimated scf accuracy    <       0.00000060 Ry

     iteration #  8     ecut=   370.00 Ry     beta= 0.70
     Davidson diagonalization with overlap
     ethr =  2.15E-09,  avg # of iterations =  2.0

     total cpu time spent up to now is       24.6 secs

     End of self-consistent calculation

     Number of k-points >= 100: set verbosity='high' to print the bands.

     highest occupied level (ev):     7.5713

!    total energy              =    -325.65422276 Ry
     estimated scf accuracy    <       0.00000005 Ry

     The total energy is the sum of the following terms:
     one-electron contribution =    -154.25021941 Ry
     hartree contribution      =      94.39566014 Ry
     xc contribution           =     -95.18757815 Ry
     ewald contribution        =    -170.61208534 Ry

     convergence has been achieved in   8 iterations

     Writing all to output data dir ./alpha-EOS/alpha.save/ :
     XML data file, charge density, pseudopotentials, collected wavefunctions

     init_run     :      1.99s CPU      2.07s WALL (       1 calls)
     electrons    :     21.86s CPU     22.41s WALL (       1 calls)

     Called by init_run:
     wfcinit      :      0.96s CPU      0.98s WALL (       1 calls)
     potinit      :      0.06s CPU      0.08s WALL (       1 calls)
     hinit0       :      0.50s CPU      0.51s WALL (       1 calls)

     Called by electrons:
     c_bands      :     17.83s CPU     18.11s WALL (       9 calls)
     sum_band     :      3.34s CPU      3.42s WALL (       9 calls)
     v_of_rho     :      0.42s CPU      0.47s WALL (       9 calls)
     newd         :      0.21s CPU      0.23s WALL (       9 calls)
     mix_rho      :      0.06s CPU      0.07s WALL (       9 calls)

     Called by c_bands:
     init_us_2    :      0.43s CPU      0.45s WALL (     494 calls)
     cegterg      :     16.79s CPU     16.92s WALL (     234 calls)

     Called by *egterg:
     cdiaghg      :      0.37s CPU      0.38s WALL (    1013 calls)
     h_psi        :     15.32s CPU     15.45s WALL (    1065 calls)
     s_psi        :      0.30s CPU      0.30s WALL (    1065 calls)
     g_psi        :      0.04s CPU      0.04s WALL (     805 calls)

     Called by h_psi:
     h_psi:calbec :      0.70s CPU      0.70s WALL (    1065 calls)
     vloc_psi     :     14.18s CPU     14.30s WALL (    1065 calls)
     add_vuspsi   :      0.33s CPU      0.34s WALL (    1065 calls)

     General routines
     calbec       :      0.81s CPU      0.82s WALL (    1299 calls)
     fft          :      0.69s CPU      0.73s WALL (     100 calls)
     ffts         :      0.03s CPU      0.03s WALL (       9 calls)
     fftw         :     14.66s CPU     14.80s WALL (   20816 calls)

     Parallel routines

     PWSCF        :     24.56s CPU     27.14s WALL


   This run was terminated on:  19:47:15  25Feb2026            

=------------------------------------------------------------------------------=
   JOB DONE.
=------------------------------------------------------------------------------=
