
     Program PWSCF v.7.3.1 starts on 25Feb2026 at 19:47:18 

     This program is part of the open-source Quantum ESPRESSO suite
     for quantum simulation of materials; please cite
         "P. Giannozzi et al., J. Phys.:Condens. Matter 21 395502 (2009);
         "P. Giannozzi et al., J. Phys.:Condens. Matter 29 465901 (2017);
         "P. Giannozzi et al., J. Chem. Phys. 152 154105 (2020);
          URL http://www.quantum-espresso.org", 
     in publications or presentations arising from this work. More details at
     http://www.quantum-espresso.org/quote

     Parallel version (MPI), running on   128 processors

     MPI processes distributed on     1 nodes
     239508 MiB available memory on the printing compute node when the environment starts

     Waiting for input...
     Reading input from standard input
     Message from routine read_cards :
     DEPRECATED: no units specified in ATOMIC_POSITIONS card
     Message from routine read_cards :
     ATOMIC_POSITIONS: units set to alat

     Current dimensions of program PWSCF are:
     Max number of different atomic species (ntypx) = 10
     Max number of k-points (npk) =  40000
     Max angular momentum in pseudopotentials (lmaxx) =  4

     K-points division:     npool     =       4
     R & G space division:  proc/nbgrp/npool/nimage =      32
     Subspace diagonalization in iterative solution of the eigenvalue problem:
     a serial algorithm will be used


     Parallelization info
     --------------------
     sticks:   dense  smooth     PW     G-vecs:    dense   smooth      PW
     Min         244     244     65                14312    14312    1980
     Max         245     245     66                14318    14318    1981
     Sum        7825    7825   2095               458031   458031   63375

     Using Slab Decomposition



     bravais-lattice index     =            2
     lattice parameter (alat)  =      12.4012  a.u.
     unit-cell volume          =     476.7967 (a.u.)^3
     number of atoms/cell      =            2
     number of atomic types    =            1
     number of electrons       =        28.00
     number of Kohn-Sham states=           14
     kinetic-energy cutoff     =     370.0000  Ry
     charge density cutoff     =    1480.0000  Ry
     scf convergence threshold =      1.0E-07
     mixing beta               =       0.7000
     number of iterations used =            8  plain     mixing
     Exchange-correlation=  SLA  PW   GGX  GGC
                           (   1   4   2   2   0   0   0)

     celldm(1)=  12.401220  celldm(2)=   0.000000  celldm(3)=   0.000000
     celldm(4)=   0.000000  celldm(5)=   0.000000  celldm(6)=   0.000000

     crystal axes: (cart. coord. in units of alat)
               a(1) = (  -0.500000   0.000000   0.500000 )  
               a(2) = (   0.000000   0.500000   0.500000 )  
               a(3) = (  -0.500000   0.500000   0.000000 )  

     reciprocal axes: (cart. coord. in units 2 pi/alat)
               b(1) = ( -1.000000 -1.000000  1.000000 )  
               b(2) = (  1.000000  1.000000  1.000000 )  
               b(3) = ( -1.000000  1.000000 -1.000000 )  


     PseudoPot. # 1 for Sn read from file:
     ./Sn.pw91-n-van.UPF
     MD5 check sum: a38d2a872edd1a4efd76c0a1a38f7031
     Pseudo is Ultrasoft + core correction, Zval = 14.0
     Generated by new atomic code, or converted to UPF format
     Using radial grid of  891 points,  6 beta functions with: 
                l(1) =   0
                l(2) =   0
                l(3) =   1
                l(4) =   1
                l(5) =   2
                l(6) =   2
     Q(r) pseudized with  8 coefficients,  rinner =    1.100   1.100   1.100
                                                       1.100   1.100

     atomic species   valence    mass     pseudopotential
     Sn               14.00   118.70000     Sn( 1.00)

     48 Sym. Ops., with inversion, found (24 have fractional translation)



   Cartesian axes

     site n.     atom                  positions (alat units)
         1        Sn     tau(   1) = (   0.0000000   0.0000000   0.0000000  )
         2        Sn     tau(   2) = (   0.2500000   0.2500000   0.2500000  )

     number of k points=   104

     Number of k-points >= 100: set verbosity='high' to print them.

     Dense  grid:   458031 G-vectors     FFT dimensions: ( 108, 108, 108)

     Estimated max dynamical RAM per process >      33.98 MB

     Estimated total dynamical RAM >       3.92 GB

     Initial potential from superposition of free atoms

     starting charge      27.9964, renormalised to      28.0000
     Starting wfcs are   18 randomized atomic wfcs

     total cpu time spent up to now is        2.3 secs

     per-process dynamical memory:    31.4 Mb

     Self-consistent Calculation

     iteration #  1     ecut=   370.00 Ry     beta= 0.70
     Davidson diagonalization with overlap
     ethr =  1.00E-02,  avg # of iterations =  2.9

     Threshold (ethr) on eigenvalues was too large:
     Diagonalizing with lowered threshold

     Davidson diagonalization with overlap
     ethr =  6.51E-05,  avg # of iterations =  4.1

     total cpu time spent up to now is        7.4 secs

     total energy              =    -325.55083470 Ry
     estimated scf accuracy    <       0.02149312 Ry

     iteration #  2     ecut=   370.00 Ry     beta= 0.70
     Davidson diagonalization with overlap
     ethr =  7.68E-05,  avg # of iterations =  4.9

     total cpu time spent up to now is       10.7 secs

     total energy              =    -325.61985162 Ry
     estimated scf accuracy    <       0.03645613 Ry

     iteration #  3     ecut=   370.00 Ry     beta= 0.70
     Davidson diagonalization with overlap
     ethr =  7.68E-05,  avg # of iterations =  1.2

     total cpu time spent up to now is       12.8 secs

     total energy              =    -325.64824873 Ry
     estimated scf accuracy    <       0.01495830 Ry

     iteration #  4     ecut=   370.00 Ry     beta= 0.70
     Davidson diagonalization with overlap
     ethr =  5.34E-05,  avg # of iterations =  2.2

     total cpu time spent up to now is       15.0 secs

     total energy              =    -325.65403977 Ry
     estimated scf accuracy    <       0.00011493 Ry

     iteration #  5     ecut=   370.00 Ry     beta= 0.70
     Davidson diagonalization with overlap
     ethr =  4.10E-07,  avg # of iterations =  4.0

     total cpu time spent up to now is       17.6 secs

     total energy              =    -325.65447551 Ry
     estimated scf accuracy    <       0.00011883 Ry

     iteration #  6     ecut=   370.00 Ry     beta= 0.70
     Davidson diagonalization with overlap
     ethr =  4.10E-07,  avg # of iterations =  2.0

     total cpu time spent up to now is       19.9 secs

     total energy              =    -325.65451174 Ry
     estimated scf accuracy    <       0.00000016 Ry

     iteration #  7     ecut=   370.00 Ry     beta= 0.70
     Davidson diagonalization with overlap
     ethr =  5.82E-10,  avg # of iterations =  5.1

     total cpu time spent up to now is       23.2 secs

     total energy              =    -325.65451566 Ry
     estimated scf accuracy    <       0.00000038 Ry

     iteration #  8     ecut=   370.00 Ry     beta= 0.70
     Davidson diagonalization with overlap
     ethr =  5.82E-10,  avg # of iterations =  3.0

     total cpu time spent up to now is       26.0 secs

     End of self-consistent calculation

     Number of k-points >= 100: set verbosity='high' to print the bands.

     highest occupied level (ev):     7.4980

!    total energy              =    -325.65451577 Ry
     estimated scf accuracy    <       0.00000006 Ry

     The total energy is the sum of the following terms:
     one-electron contribution =    -154.79812980 Ry
     hartree contribution      =      94.60085868 Ry
     xc contribution           =     -95.18167230 Ry
     ewald contribution        =    -170.27557235 Ry

     convergence has been achieved in   8 iterations

     Writing all to output data dir ./alpha-EOS/alpha.save/ :
     XML data file, charge density, pseudopotentials, collected wavefunctions

     init_run     :      1.97s CPU      2.06s WALL (       1 calls)
     electrons    :     23.26s CPU     23.82s WALL (       1 calls)

     Called by init_run:
     wfcinit      :      0.94s CPU      0.97s WALL (       1 calls)
     potinit      :      0.07s CPU      0.09s WALL (       1 calls)
     hinit0       :      0.49s CPU      0.50s WALL (       1 calls)

     Called by electrons:
     c_bands      :     19.20s CPU     19.54s WALL (       9 calls)
     sum_band     :      3.38s CPU      3.43s WALL (       9 calls)
     v_of_rho     :      0.43s CPU      0.48s WALL (       9 calls)
     newd         :      0.20s CPU      0.23s WALL (       9 calls)
     mix_rho      :      0.06s CPU      0.07s WALL (       9 calls)

     Called by c_bands:
     init_us_2    :      0.45s CPU      0.46s WALL (     494 calls)
     cegterg      :     18.11s CPU     18.31s WALL (     234 calls)

     Called by *egterg:
     cdiaghg      :      0.40s CPU      0.40s WALL (    1067 calls)
     h_psi        :     16.41s CPU     16.60s WALL (    1119 calls)
     s_psi        :      0.32s CPU      0.32s WALL (    1119 calls)
     g_psi        :      0.04s CPU      0.04s WALL (     859 calls)

     Called by h_psi:
     h_psi:calbec :      0.75s CPU      0.76s WALL (    1119 calls)
     vloc_psi     :     15.20s CPU     15.37s WALL (    1119 calls)
     add_vuspsi   :      0.36s CPU      0.37s WALL (    1119 calls)

     General routines
     calbec       :      0.86s CPU      0.88s WALL (    1353 calls)
     fft          :      0.68s CPU      0.74s WALL (     100 calls)
     ffts         :      0.02s CPU      0.03s WALL (       9 calls)
     fftw         :     15.63s CPU     15.79s WALL (   22206 calls)

     Parallel routines

     PWSCF        :     25.96s CPU     28.30s WALL


   This run was terminated on:  19:47:47  25Feb2026            

=------------------------------------------------------------------------------=
   JOB DONE.
=------------------------------------------------------------------------------=
