
     Program PWSCF v.7.3.1 starts on 25Feb2026 at 19:47:50 

     This program is part of the open-source Quantum ESPRESSO suite
     for quantum simulation of materials; please cite
         "P. Giannozzi et al., J. Phys.:Condens. Matter 21 395502 (2009);
         "P. Giannozzi et al., J. Phys.:Condens. Matter 29 465901 (2017);
         "P. Giannozzi et al., J. Chem. Phys. 152 154105 (2020);
          URL http://www.quantum-espresso.org", 
     in publications or presentations arising from this work. More details at
     http://www.quantum-espresso.org/quote

     Parallel version (MPI), running on   128 processors

     MPI processes distributed on     1 nodes
     239422 MiB available memory on the printing compute node when the environment starts

     Waiting for input...
     Reading input from standard input
     Message from routine read_cards :
     DEPRECATED: no units specified in ATOMIC_POSITIONS card
     Message from routine read_cards :
     ATOMIC_POSITIONS: units set to alat

     Current dimensions of program PWSCF are:
     Max number of different atomic species (ntypx) = 10
     Max number of k-points (npk) =  40000
     Max angular momentum in pseudopotentials (lmaxx) =  4

     K-points division:     npool     =       4
     R & G space division:  proc/nbgrp/npool/nimage =      32
     Subspace diagonalization in iterative solution of the eigenvalue problem:
     a serial algorithm will be used


     Parallelization info
     --------------------
     sticks:   dense  smooth     PW     G-vecs:    dense   smooth      PW
     Min         246     246     65                14411    14411    1999
     Max         247     247     66                14414    14414    2001
     Sum        7873    7873   2107               461205   461205   64023

     Using Slab Decomposition



     bravais-lattice index     =            2
     lattice parameter (alat)  =      12.4257  a.u.
     unit-cell volume          =     479.6236 (a.u.)^3
     number of atoms/cell      =            2
     number of atomic types    =            1
     number of electrons       =        28.00
     number of Kohn-Sham states=           14
     kinetic-energy cutoff     =     370.0000  Ry
     charge density cutoff     =    1480.0000  Ry
     scf convergence threshold =      1.0E-07
     mixing beta               =       0.7000
     number of iterations used =            8  plain     mixing
     Exchange-correlation=  SLA  PW   GGX  GGC
                           (   1   4   2   2   0   0   0)

     celldm(1)=  12.425680  celldm(2)=   0.000000  celldm(3)=   0.000000
     celldm(4)=   0.000000  celldm(5)=   0.000000  celldm(6)=   0.000000

     crystal axes: (cart. coord. in units of alat)
               a(1) = (  -0.500000   0.000000   0.500000 )  
               a(2) = (   0.000000   0.500000   0.500000 )  
               a(3) = (  -0.500000   0.500000   0.000000 )  

     reciprocal axes: (cart. coord. in units 2 pi/alat)
               b(1) = ( -1.000000 -1.000000  1.000000 )  
               b(2) = (  1.000000  1.000000  1.000000 )  
               b(3) = ( -1.000000  1.000000 -1.000000 )  


     PseudoPot. # 1 for Sn read from file:
     ./Sn.pw91-n-van.UPF
     MD5 check sum: a38d2a872edd1a4efd76c0a1a38f7031
     Pseudo is Ultrasoft + core correction, Zval = 14.0
     Generated by new atomic code, or converted to UPF format
     Using radial grid of  891 points,  6 beta functions with: 
                l(1) =   0
                l(2) =   0
                l(3) =   1
                l(4) =   1
                l(5) =   2
                l(6) =   2
     Q(r) pseudized with  8 coefficients,  rinner =    1.100   1.100   1.100
                                                       1.100   1.100

     atomic species   valence    mass     pseudopotential
     Sn               14.00   118.70000     Sn( 1.00)

     48 Sym. Ops., with inversion, found (24 have fractional translation)



   Cartesian axes

     site n.     atom                  positions (alat units)
         1        Sn     tau(   1) = (   0.0000000   0.0000000   0.0000000  )
         2        Sn     tau(   2) = (   0.2500000   0.2500000   0.2500000  )

     number of k points=   104

     Number of k-points >= 100: set verbosity='high' to print them.

     Dense  grid:   461205 G-vectors     FFT dimensions: ( 108, 108, 108)

     Estimated max dynamical RAM per process >      34.16 MB

     Estimated total dynamical RAM >       3.94 GB

     Initial potential from superposition of free atoms

     starting charge      27.9964, renormalised to      28.0000
     Starting wfcs are   18 randomized atomic wfcs

     total cpu time spent up to now is        2.3 secs

     per-process dynamical memory:    31.0 Mb

     Self-consistent Calculation

     iteration #  1     ecut=   370.00 Ry     beta= 0.70
     Davidson diagonalization with overlap
     ethr =  1.00E-02,  avg # of iterations =  2.8

     Threshold (ethr) on eigenvalues was too large:
     Diagonalizing with lowered threshold

     Davidson diagonalization with overlap
     ethr =  6.53E-05,  avg # of iterations =  4.2

     negative rho (up, down):  5.486E-07 0.000E+00

     total cpu time spent up to now is        7.4 secs

     total energy              =    -325.55310167 Ry
     estimated scf accuracy    <       0.02152439 Ry

     iteration #  2     ecut=   370.00 Ry     beta= 0.70
     Davidson diagonalization with overlap
     ethr =  7.69E-05,  avg # of iterations =  5.0

     total cpu time spent up to now is       10.7 secs

     total energy              =    -325.62064031 Ry
     estimated scf accuracy    <       0.03576235 Ry

     iteration #  3     ecut=   370.00 Ry     beta= 0.70
     Davidson diagonalization with overlap
     ethr =  7.69E-05,  avg # of iterations =  1.1

     total cpu time spent up to now is       12.7 secs

     total energy              =    -325.64896612 Ry
     estimated scf accuracy    <       0.01468435 Ry

     iteration #  4     ecut=   370.00 Ry     beta= 0.70
     Davidson diagonalization with overlap
     ethr =  5.24E-05,  avg # of iterations =  2.1

     total cpu time spent up to now is       15.0 secs

     total energy              =    -325.65407999 Ry
     estimated scf accuracy    <       0.00011666 Ry

     iteration #  5     ecut=   370.00 Ry     beta= 0.70
     Davidson diagonalization with overlap
     ethr =  4.17E-07,  avg # of iterations =  4.1

     total cpu time spent up to now is       17.6 secs

     total energy              =    -325.65470078 Ry
     estimated scf accuracy    <       0.00010576 Ry

     iteration #  6     ecut=   370.00 Ry     beta= 0.70
     Davidson diagonalization with overlap
     ethr =  3.78E-07,  avg # of iterations =  2.0

     total cpu time spent up to now is       19.8 secs

     total energy              =    -325.65475666 Ry
     estimated scf accuracy    <       0.00000026 Ry

     iteration #  7     ecut=   370.00 Ry     beta= 0.70
     Davidson diagonalization with overlap
     ethr =  9.34E-10,  avg # of iterations =  5.0

     total cpu time spent up to now is       23.1 secs

     total energy              =    -325.65476074 Ry
     estimated scf accuracy    <       0.00000028 Ry

     iteration #  8     ecut=   370.00 Ry     beta= 0.70
     Davidson diagonalization with overlap
     ethr =  9.34E-10,  avg # of iterations =  2.1

     total cpu time spent up to now is       25.4 secs

     End of self-consistent calculation

     Number of k-points >= 100: set verbosity='high' to print the bands.

     highest occupied level (ev):     7.4252

!    total energy              =    -325.65476089 Ry
     estimated scf accuracy    <       0.00000004 Ry

     The total energy is the sum of the following terms:
     one-electron contribution =    -155.34473128 Ry
     hartree contribution      =      94.80628708 Ry
     xc contribution           =     -95.17593247 Ry
     ewald contribution        =    -169.94038421 Ry

     convergence has been achieved in   8 iterations

     Writing all to output data dir ./alpha-EOS/alpha.save/ :
     XML data file, charge density, pseudopotentials, collected wavefunctions

     init_run     :      1.94s CPU      2.04s WALL (       1 calls)
     electrons    :     22.62s CPU     23.14s WALL (       1 calls)

     Called by init_run:
     wfcinit      :      0.93s CPU      0.97s WALL (       1 calls)
     potinit      :      0.05s CPU      0.08s WALL (       1 calls)
     hinit0       :      0.49s CPU      0.51s WALL (       1 calls)

     Called by electrons:
     c_bands      :     18.56s CPU     18.89s WALL (       9 calls)
     sum_band     :      3.37s CPU      3.43s WALL (       9 calls)
     v_of_rho     :      0.44s CPU      0.47s WALL (       9 calls)
     newd         :      0.21s CPU      0.23s WALL (       9 calls)
     mix_rho      :      0.06s CPU      0.07s WALL (       9 calls)

     Called by c_bands:
     init_us_2    :      0.44s CPU      0.46s WALL (     494 calls)
     cegterg      :     17.55s CPU     17.73s WALL (     234 calls)

     Called by *egterg:
     cdiaghg      :      0.38s CPU      0.39s WALL (    1032 calls)
     h_psi        :     15.93s CPU     16.10s WALL (    1084 calls)
     s_psi        :      0.31s CPU      0.31s WALL (    1084 calls)
     g_psi        :      0.04s CPU      0.04s WALL (     824 calls)

     Called by h_psi:
     h_psi:calbec :      0.73s CPU      0.74s WALL (    1084 calls)
     vloc_psi     :     14.74s CPU     14.90s WALL (    1084 calls)
     add_vuspsi   :      0.35s CPU      0.35s WALL (    1084 calls)

     General routines
     calbec       :      0.84s CPU      0.85s WALL (    1318 calls)
     fft          :      0.70s CPU      0.74s WALL (     100 calls)
     ffts         :      0.03s CPU      0.03s WALL (       9 calls)
     fftw         :     15.20s CPU     15.37s WALL (   21602 calls)

     Parallel routines

     PWSCF        :     25.22s CPU     27.54s WALL


   This run was terminated on:  19:48:18  25Feb2026            

=------------------------------------------------------------------------------=
   JOB DONE.
=------------------------------------------------------------------------------=
