
     Program PWSCF v.7.3.1 starts on 25Feb2026 at 23:43:36 

     This program is part of the open-source Quantum ESPRESSO suite
     for quantum simulation of materials; please cite
         "P. Giannozzi et al., J. Phys.:Condens. Matter 21 395502 (2009);
         "P. Giannozzi et al., J. Phys.:Condens. Matter 29 465901 (2017);
         "P. Giannozzi et al., J. Chem. Phys. 152 154105 (2020);
          URL http://www.quantum-espresso.org", 
     in publications or presentations arising from this work. More details at
     http://www.quantum-espresso.org/quote

     Parallel version (MPI), running on   128 processors

     MPI processes distributed on     1 nodes
     236502 MiB available memory on the printing compute node when the environment starts

     Waiting for input...
     Reading input from standard input
     Message from routine read_cards :
     DEPRECATED: no units specified in ATOMIC_POSITIONS card
     Message from routine read_cards :
     ATOMIC_POSITIONS: units set to alat

     Current dimensions of program PWSCF are:
     Max number of different atomic species (ntypx) = 10
     Max number of k-points (npk) =  40000
     Max angular momentum in pseudopotentials (lmaxx) =  4

     K-points division:     npool     =       4
     R & G space division:  proc/nbgrp/npool/nimage =      32
     Subspace diagonalization in iterative solution of the eigenvalue problem:
     a serial algorithm will be used


     Parallelization info
     --------------------
     sticks:   dense  smooth     PW     G-vecs:    dense   smooth      PW
     Min         252     252     67                14926    14926    2062
     Max         253     253     68                14929    14929    2065
     Sum        8065    8065   2161               477689   477689   66027

     Using Slab Decomposition



     bravais-lattice index     =            2
     lattice parameter (alat)  =      12.5724  a.u.
     unit-cell volume          =     496.8196 (a.u.)^3
     number of atoms/cell      =            2
     number of atomic types    =            1
     number of electrons       =        28.00
     number of Kohn-Sham states=           14
     kinetic-energy cutoff     =     370.0000  Ry
     charge density cutoff     =    1480.0000  Ry
     scf convergence threshold =      1.0E-07
     mixing beta               =       0.7000
     number of iterations used =            8  plain     mixing
     Exchange-correlation=  SLA  PW   GGX  GGC
                           (   1   4   2   2   0   0   0)

     celldm(1)=  12.572440  celldm(2)=   0.000000  celldm(3)=   0.000000
     celldm(4)=   0.000000  celldm(5)=   0.000000  celldm(6)=   0.000000

     crystal axes: (cart. coord. in units of alat)
               a(1) = (  -0.500000   0.000000   0.500000 )  
               a(2) = (   0.000000   0.500000   0.500000 )  
               a(3) = (  -0.500000   0.500000   0.000000 )  

     reciprocal axes: (cart. coord. in units 2 pi/alat)
               b(1) = ( -1.000000 -1.000000  1.000000 )  
               b(2) = (  1.000000  1.000000  1.000000 )  
               b(3) = ( -1.000000  1.000000 -1.000000 )  


     PseudoPot. # 1 for Sn read from file:
     ./Sn.pw91-n-van.UPF
     MD5 check sum: a38d2a872edd1a4efd76c0a1a38f7031
     Pseudo is Ultrasoft + core correction, Zval = 14.0
     Generated by new atomic code, or converted to UPF format
     Using radial grid of  891 points,  6 beta functions with: 
                l(1) =   0
                l(2) =   0
                l(3) =   1
                l(4) =   1
                l(5) =   2
                l(6) =   2
     Q(r) pseudized with  8 coefficients,  rinner =    1.100   1.100   1.100
                                                       1.100   1.100

     atomic species   valence    mass     pseudopotential
     Sn               14.00   118.70000     Sn( 1.00)

     48 Sym. Ops., with inversion, found (24 have fractional translation)



   Cartesian axes

     site n.     atom                  positions (alat units)
         1        Sn     tau(   1) = (   0.0000000   0.0000000   0.0000000  )
         2        Sn     tau(   2) = (   0.2500000   0.2500000   0.2500000  )

     number of k points=   104

     Number of k-points >= 100: set verbosity='high' to print them.

     Dense  grid:   477689 G-vectors     FFT dimensions: ( 120, 120, 120)

     Estimated max dynamical RAM per process >      35.91 MB

     Estimated total dynamical RAM >       4.15 GB

     Initial potential from superposition of free atoms

     starting charge      27.9964, renormalised to      28.0000

     negative rho (up, down):  4.883E-07 0.000E+00
     Starting wfcs are   18 randomized atomic wfcs

     total cpu time spent up to now is        2.9 secs

     per-process dynamical memory:    32.8 Mb

     Self-consistent Calculation

     iteration #  1     ecut=   370.00 Ry     beta= 0.70
     Davidson diagonalization with overlap
     ethr =  1.00E-02,  avg # of iterations =  2.7

     Threshold (ethr) on eigenvalues was too large:
     Diagonalizing with lowered threshold

     Davidson diagonalization with overlap
     ethr =  6.07E-05,  avg # of iterations =  4.3

     negative rho (up, down):  8.680E-08 0.000E+00

     total cpu time spent up to now is        8.3 secs

     total energy              =    -325.57362204 Ry
     estimated scf accuracy    <       0.01997461 Ry

     iteration #  2     ecut=   370.00 Ry     beta= 0.70
     Davidson diagonalization with overlap
     ethr =  7.13E-05,  avg # of iterations =  4.9

     total cpu time spent up to now is       11.8 secs

     total energy              =    -325.62353746 Ry
     estimated scf accuracy    <       0.02844465 Ry

     iteration #  3     ecut=   370.00 Ry     beta= 0.70
     Davidson diagonalization with overlap
     ethr =  7.13E-05,  avg # of iterations =  1.9

     total cpu time spent up to now is       14.1 secs

     total energy              =    -325.65043979 Ry
     estimated scf accuracy    <       0.01186747 Ry

     iteration #  4     ecut=   370.00 Ry     beta= 0.70
     Davidson diagonalization with overlap
     ethr =  4.24E-05,  avg # of iterations =  2.1

     total cpu time spent up to now is       16.5 secs

     total energy              =    -325.65501631 Ry
     estimated scf accuracy    <       0.00010193 Ry

     iteration #  5     ecut=   370.00 Ry     beta= 0.70
     Davidson diagonalization with overlap
     ethr =  3.64E-07,  avg # of iterations =  3.9

     total cpu time spent up to now is       19.2 secs

     total energy              =    -325.65524775 Ry
     estimated scf accuracy    <       0.00009297 Ry

     iteration #  6     ecut=   370.00 Ry     beta= 0.70
     Davidson diagonalization with overlap
     ethr =  3.32E-07,  avg # of iterations =  2.0

     total cpu time spent up to now is       21.5 secs

     total energy              =    -325.65527490 Ry
     estimated scf accuracy    <       0.00000074 Ry

     iteration #  7     ecut=   370.00 Ry     beta= 0.70
     Davidson diagonalization with overlap
     ethr =  2.66E-09,  avg # of iterations =  4.0

     total cpu time spent up to now is       24.3 secs

     total energy              =    -325.65528027 Ry
     estimated scf accuracy    <       0.00000083 Ry

     iteration #  8     ecut=   370.00 Ry     beta= 0.70
     Davidson diagonalization with overlap
     ethr =  2.66E-09,  avg # of iterations =  2.1

     total cpu time spent up to now is       26.7 secs

     End of self-consistent calculation

     Number of k-points >= 100: set verbosity='high' to print the bands.

     highest occupied level (ev):     7.0021

!    total energy              =    -325.65528041 Ry
     estimated scf accuracy    <       0.00000008 Ry

     The total energy is the sum of the following terms:
     one-electron contribution =    -158.58210114 Ry
     hartree contribution      =      96.02543234 Ry
     xc contribution           =     -95.14196728 Ry
     ewald contribution        =    -167.95664432 Ry

     convergence has been achieved in   8 iterations

     Writing all to output data dir ./alpha-EOS/alpha.save/ :
     XML data file, charge density, pseudopotentials, collected wavefunctions

     init_run     :      2.54s CPU      2.62s WALL (       1 calls)
     electrons    :     23.31s CPU     23.88s WALL (       1 calls)

     Called by init_run:
     wfcinit      :      1.01s CPU      1.02s WALL (       1 calls)
     potinit      :      0.08s CPU      0.09s WALL (       1 calls)
     hinit0       :      0.90s CPU      0.92s WALL (       1 calls)

     Called by electrons:
     c_bands      :     18.90s CPU     19.26s WALL (       9 calls)
     sum_band     :      3.59s CPU      3.66s WALL (       9 calls)
     v_of_rho     :      0.54s CPU      0.58s WALL (       9 calls)
     newd         :      0.22s CPU      0.24s WALL (       9 calls)
     mix_rho      :      0.07s CPU      0.07s WALL (       9 calls)

     Called by c_bands:
     init_us_2    :      0.47s CPU      0.50s WALL (     494 calls)
     cegterg      :     17.76s CPU     17.97s WALL (     234 calls)

     Called by *egterg:
     cdiaghg      :      0.37s CPU      0.37s WALL (    1011 calls)
     h_psi        :     16.19s CPU     16.36s WALL (    1063 calls)
     s_psi        :      0.31s CPU      0.32s WALL (    1063 calls)
     g_psi        :      0.04s CPU      0.04s WALL (     803 calls)

     Called by h_psi:
     h_psi:calbec :      0.80s CPU      0.81s WALL (    1063 calls)
     vloc_psi     :     14.91s CPU     15.07s WALL (    1063 calls)
     add_vuspsi   :      0.37s CPU      0.37s WALL (    1063 calls)

     General routines
     calbec       :      0.94s CPU      0.95s WALL (    1297 calls)
     fft          :      1.11s CPU      1.16s WALL (     100 calls)
     ffts         :      0.02s CPU      0.03s WALL (       9 calls)
     fftw         :     15.18s CPU     15.34s WALL (   20898 calls)

     Parallel routines

     PWSCF        :     26.57s CPU     29.64s WALL


   This run was terminated on:  23:44: 5  25Feb2026            

=------------------------------------------------------------------------------=
   JOB DONE.
=------------------------------------------------------------------------------=
