
     Program PWSCF v.7.3.1 starts on 25Feb2026 at 23:44:41 

     This program is part of the open-source Quantum ESPRESSO suite
     for quantum simulation of materials; please cite
         "P. Giannozzi et al., J. Phys.:Condens. Matter 21 395502 (2009);
         "P. Giannozzi et al., J. Phys.:Condens. Matter 29 465901 (2017);
         "P. Giannozzi et al., J. Chem. Phys. 152 154105 (2020);
          URL http://www.quantum-espresso.org", 
     in publications or presentations arising from this work. More details at
     http://www.quantum-espresso.org/quote

     Parallel version (MPI), running on   128 processors

     MPI processes distributed on     1 nodes
     236564 MiB available memory on the printing compute node when the environment starts

     Waiting for input...
     Reading input from standard input
     Message from routine read_cards :
     DEPRECATED: no units specified in ATOMIC_POSITIONS card
     Message from routine read_cards :
     ATOMIC_POSITIONS: units set to alat

     Current dimensions of program PWSCF are:
     Max number of different atomic species (ntypx) = 10
     Max number of k-points (npk) =  40000
     Max angular momentum in pseudopotentials (lmaxx) =  4

     K-points division:     npool     =       4
     R & G space division:  proc/nbgrp/npool/nimage =      32
     Subspace diagonalization in iterative solution of the eigenvalue problem:
     a serial algorithm will be used


     Parallelization info
     --------------------
     sticks:   dense  smooth     PW     G-vecs:    dense   smooth      PW
     Min         254     254     67                15102    15102    2088
     Max         257     257     68                15105    15105    2093
     Sum        8137    8137   2173               483305   483305   66923

     Using Slab Decomposition



     bravais-lattice index     =            2
     lattice parameter (alat)  =      12.6214  a.u.
     unit-cell volume          =     502.6416 (a.u.)^3
     number of atoms/cell      =            2
     number of atomic types    =            1
     number of electrons       =        28.00
     number of Kohn-Sham states=           14
     kinetic-energy cutoff     =     370.0000  Ry
     charge density cutoff     =    1480.0000  Ry
     scf convergence threshold =      1.0E-07
     mixing beta               =       0.7000
     number of iterations used =            8  plain     mixing
     Exchange-correlation=  SLA  PW   GGX  GGC
                           (   1   4   2   2   0   0   0)

     celldm(1)=  12.621360  celldm(2)=   0.000000  celldm(3)=   0.000000
     celldm(4)=   0.000000  celldm(5)=   0.000000  celldm(6)=   0.000000

     crystal axes: (cart. coord. in units of alat)
               a(1) = (  -0.500000   0.000000   0.500000 )  
               a(2) = (   0.000000   0.500000   0.500000 )  
               a(3) = (  -0.500000   0.500000   0.000000 )  

     reciprocal axes: (cart. coord. in units 2 pi/alat)
               b(1) = ( -1.000000 -1.000000  1.000000 )  
               b(2) = (  1.000000  1.000000  1.000000 )  
               b(3) = ( -1.000000  1.000000 -1.000000 )  


     PseudoPot. # 1 for Sn read from file:
     ./Sn.pw91-n-van.UPF
     MD5 check sum: a38d2a872edd1a4efd76c0a1a38f7031
     Pseudo is Ultrasoft + core correction, Zval = 14.0
     Generated by new atomic code, or converted to UPF format
     Using radial grid of  891 points,  6 beta functions with: 
                l(1) =   0
                l(2) =   0
                l(3) =   1
                l(4) =   1
                l(5) =   2
                l(6) =   2
     Q(r) pseudized with  8 coefficients,  rinner =    1.100   1.100   1.100
                                                       1.100   1.100

     atomic species   valence    mass     pseudopotential
     Sn               14.00   118.70000     Sn( 1.00)

     48 Sym. Ops., with inversion, found (24 have fractional translation)



   Cartesian axes

     site n.     atom                  positions (alat units)
         1        Sn     tau(   1) = (   0.0000000   0.0000000   0.0000000  )
         2        Sn     tau(   2) = (   0.2500000   0.2500000   0.2500000  )

     number of k points=   104

     Number of k-points >= 100: set verbosity='high' to print them.

     Dense  grid:   483305 G-vectors     FFT dimensions: ( 120, 120, 120)

     Estimated max dynamical RAM per process >      36.24 MB

     Estimated total dynamical RAM >       4.18 GB

     Initial potential from superposition of free atoms

     starting charge      27.9964, renormalised to      28.0000
     Starting wfcs are   18 randomized atomic wfcs

     total cpu time spent up to now is        2.9 secs

     per-process dynamical memory:    33.0 Mb

     Self-consistent Calculation

     iteration #  1     ecut=   370.00 Ry     beta= 0.70
     Davidson diagonalization with overlap
     ethr =  1.00E-02,  avg # of iterations =  2.7

     Threshold (ethr) on eigenvalues was too large:
     Diagonalizing with lowered threshold

     Davidson diagonalization with overlap
     ethr =  6.17E-05,  avg # of iterations =  4.3

     negative rho (up, down):  2.503E-07 0.000E+00

     total cpu time spent up to now is        8.3 secs

     total energy              =    -325.57513530 Ry
     estimated scf accuracy    <       0.02005866 Ry

     iteration #  2     ecut=   370.00 Ry     beta= 0.70
     Davidson diagonalization with overlap
     ethr =  7.16E-05,  avg # of iterations =  4.9

     total cpu time spent up to now is       11.9 secs

     total energy              =    -325.62311403 Ry
     estimated scf accuracy    <       0.02727466 Ry

     iteration #  3     ecut=   370.00 Ry     beta= 0.70
     Davidson diagonalization with overlap
     ethr =  7.16E-05,  avg # of iterations =  1.9

     total cpu time spent up to now is       14.1 secs

     total energy              =    -325.64905942 Ry
     estimated scf accuracy    <       0.01125023 Ry

     iteration #  4     ecut=   370.00 Ry     beta= 0.70
     Davidson diagonalization with overlap
     ethr =  4.02E-05,  avg # of iterations =  2.2

     total cpu time spent up to now is       16.5 secs

     total energy              =    -325.65438582 Ry
     estimated scf accuracy    <       0.00006005 Ry

     iteration #  5     ecut=   370.00 Ry     beta= 0.70
     Davidson diagonalization with overlap
     ethr =  2.14E-07,  avg # of iterations =  4.2

     total cpu time spent up to now is       19.6 secs

     total energy              =    -325.65504245 Ry
     estimated scf accuracy    <       0.00009677 Ry

     iteration #  6     ecut=   370.00 Ry     beta= 0.70
     Davidson diagonalization with overlap
     ethr =  2.14E-07,  avg # of iterations =  2.0

     total cpu time spent up to now is       22.0 secs

     total energy              =    -325.65510436 Ry
     estimated scf accuracy    <       0.00000029 Ry

     iteration #  7     ecut=   370.00 Ry     beta= 0.70
     Davidson diagonalization with overlap
     ethr =  1.05E-09,  avg # of iterations =  4.3

     total cpu time spent up to now is       25.4 secs

     total energy              =    -325.65511515 Ry
     estimated scf accuracy    <       0.00000050 Ry

     iteration #  8     ecut=   370.00 Ry     beta= 0.70
     Davidson diagonalization with overlap
     ethr =  1.05E-09,  avg # of iterations =  3.0

     total cpu time spent up to now is       28.4 secs

     total energy              =    -325.65511543 Ry
     estimated scf accuracy    <       0.00000012 Ry

     iteration #  9     ecut=   370.00 Ry     beta= 0.70
     Davidson diagonalization with overlap
     ethr =  4.38E-10,  avg # of iterations =  2.0

     total cpu time spent up to now is       30.8 secs

     End of self-consistent calculation

     Number of k-points >= 100: set verbosity='high' to print the bands.

     highest occupied level (ev):     6.8651

!    total energy              =    -325.65511544 Ry
     estimated scf accuracy    <          1.7E-09 Ry

     The total energy is the sum of the following terms:
     one-electron contribution =    -159.64734512 Ry
     hartree contribution      =      96.42912516 Ry
     xc contribution           =     -95.13124591 Ry
     ewald contribution        =    -167.30564957 Ry

     convergence has been achieved in   9 iterations

     Writing all to output data dir ./alpha-EOS/alpha.save/ :
     XML data file, charge density, pseudopotentials, collected wavefunctions

     init_run     :      2.50s CPU      2.61s WALL (       1 calls)
     electrons    :     27.41s CPU     27.96s WALL (       1 calls)

     Called by init_run:
     wfcinit      :      1.00s CPU      1.03s WALL (       1 calls)
     potinit      :      0.06s CPU      0.09s WALL (       1 calls)
     hinit0       :      0.92s CPU      0.93s WALL (       1 calls)

     Called by electrons:
     c_bands      :     22.46s CPU     22.82s WALL (      10 calls)
     sum_band     :      4.02s CPU      4.08s WALL (      10 calls)
     v_of_rho     :      0.59s CPU      0.64s WALL (      10 calls)
     newd         :      0.25s CPU      0.26s WALL (      10 calls)
     mix_rho      :      0.09s CPU      0.09s WALL (      10 calls)

     Called by c_bands:
     init_us_2    :      0.54s CPU      0.56s WALL (     546 calls)
     cegterg      :     21.12s CPU     21.32s WALL (     260 calls)

     Called by *egterg:
     cdiaghg      :      0.42s CPU      0.42s WALL (    1147 calls)
     h_psi        :     19.07s CPU     19.27s WALL (    1199 calls)
     s_psi        :      0.37s CPU      0.37s WALL (    1199 calls)
     g_psi        :      0.05s CPU      0.05s WALL (     913 calls)

     Called by h_psi:
     h_psi:calbec :      0.95s CPU      0.96s WALL (    1199 calls)
     vloc_psi     :     17.57s CPU     17.74s WALL (    1199 calls)
     add_vuspsi   :      0.43s CPU      0.43s WALL (    1199 calls)

     General routines
     calbec       :      1.10s CPU      1.12s WALL (    1459 calls)
     fft          :      1.15s CPU      1.20s WALL (     111 calls)
     ffts         :      0.03s CPU      0.03s WALL (      10 calls)
     fftw         :     17.73s CPU     17.91s WALL (   24268 calls)

     Parallel routines

     PWSCF        :     30.58s CPU     33.09s WALL


   This run was terminated on:  23:45:14  25Feb2026            

=------------------------------------------------------------------------------=
   JOB DONE.
=------------------------------------------------------------------------------=
