
     Program PWSCF v.7.3.1 starts on 25Feb2026 at 23:46:30 

     This program is part of the open-source Quantum ESPRESSO suite
     for quantum simulation of materials; please cite
         "P. Giannozzi et al., J. Phys.:Condens. Matter 21 395502 (2009);
         "P. Giannozzi et al., J. Phys.:Condens. Matter 29 465901 (2017);
         "P. Giannozzi et al., J. Chem. Phys. 152 154105 (2020);
          URL http://www.quantum-espresso.org", 
     in publications or presentations arising from this work. More details at
     http://www.quantum-espresso.org/quote

     Parallel version (MPI), running on   128 processors

     MPI processes distributed on     1 nodes
     236446 MiB available memory on the printing compute node when the environment starts

     Waiting for input...
     Reading input from standard input
     Message from routine read_cards :
     DEPRECATED: no units specified in ATOMIC_POSITIONS card
     Message from routine read_cards :
     ATOMIC_POSITIONS: units set to alat

     Current dimensions of program PWSCF are:
     Max number of different atomic species (ntypx) = 10
     Max number of k-points (npk) =  40000
     Max angular momentum in pseudopotentials (lmaxx) =  4

     K-points division:     npool     =       4
     R & G space division:  proc/nbgrp/npool/nimage =      32
     Subspace diagonalization in iterative solution of the eigenvalue problem:
     a serial algorithm will be used


     Parallelization info
     --------------------
     sticks:   dense  smooth     PW     G-vecs:    dense   smooth      PW
     Min         256     256     69                15365    15365    2122
     Max         257     257     70                15368    15368    2124
     Sum        8209    8209   2209               491729   491729   67937

     Using Slab Decomposition



     bravais-lattice index     =            2
     lattice parameter (alat)  =      12.6947  a.u.
     unit-cell volume          =     511.4597 (a.u.)^3
     number of atoms/cell      =            2
     number of atomic types    =            1
     number of electrons       =        28.00
     number of Kohn-Sham states=           14
     kinetic-energy cutoff     =     370.0000  Ry
     charge density cutoff     =    1480.0000  Ry
     scf convergence threshold =      1.0E-07
     mixing beta               =       0.7000
     number of iterations used =            8  plain     mixing
     Exchange-correlation=  SLA  PW   GGX  GGC
                           (   1   4   2   2   0   0   0)

     celldm(1)=  12.694740  celldm(2)=   0.000000  celldm(3)=   0.000000
     celldm(4)=   0.000000  celldm(5)=   0.000000  celldm(6)=   0.000000

     crystal axes: (cart. coord. in units of alat)
               a(1) = (  -0.500000   0.000000   0.500000 )  
               a(2) = (   0.000000   0.500000   0.500000 )  
               a(3) = (  -0.500000   0.500000   0.000000 )  

     reciprocal axes: (cart. coord. in units 2 pi/alat)
               b(1) = ( -1.000000 -1.000000  1.000000 )  
               b(2) = (  1.000000  1.000000  1.000000 )  
               b(3) = ( -1.000000  1.000000 -1.000000 )  


     PseudoPot. # 1 for Sn read from file:
     ./Sn.pw91-n-van.UPF
     MD5 check sum: a38d2a872edd1a4efd76c0a1a38f7031
     Pseudo is Ultrasoft + core correction, Zval = 14.0
     Generated by new atomic code, or converted to UPF format
     Using radial grid of  891 points,  6 beta functions with: 
                l(1) =   0
                l(2) =   0
                l(3) =   1
                l(4) =   1
                l(5) =   2
                l(6) =   2
     Q(r) pseudized with  8 coefficients,  rinner =    1.100   1.100   1.100
                                                       1.100   1.100

     atomic species   valence    mass     pseudopotential
     Sn               14.00   118.70000     Sn( 1.00)

     48 Sym. Ops., with inversion, found (24 have fractional translation)



   Cartesian axes

     site n.     atom                  positions (alat units)
         1        Sn     tau(   1) = (   0.0000000   0.0000000   0.0000000  )
         2        Sn     tau(   2) = (   0.2500000   0.2500000   0.2500000  )

     number of k points=   104

     Number of k-points >= 100: set verbosity='high' to print them.

     Dense  grid:   491729 G-vectors     FFT dimensions: ( 120, 120, 120)

     Estimated max dynamical RAM per process >      36.76 MB

     Estimated total dynamical RAM >       4.24 GB

     Initial potential from superposition of free atoms

     starting charge      27.9964, renormalised to      28.0000
     Starting wfcs are   18 randomized atomic wfcs

     total cpu time spent up to now is        2.9 secs

     per-process dynamical memory:    33.1 Mb

     Self-consistent Calculation

     iteration #  1     ecut=   370.00 Ry     beta= 0.70
     Davidson diagonalization with overlap
     ethr =  1.00E-02,  avg # of iterations =  2.6

     Threshold (ethr) on eigenvalues was too large:
     Diagonalizing with lowered threshold

     Davidson diagonalization with overlap
     ethr =  6.03E-05,  avg # of iterations =  4.3

     negative rho (up, down):  4.383E-08 0.000E+00

     total cpu time spent up to now is        8.4 secs

     total energy              =    -325.57855038 Ry
     estimated scf accuracy    <       0.01982506 Ry

     iteration #  2     ecut=   370.00 Ry     beta= 0.70
     Davidson diagonalization with overlap
     ethr =  7.08E-05,  avg # of iterations =  4.9

     total cpu time spent up to now is       12.0 secs

     total energy              =    -325.62293383 Ry
     estimated scf accuracy    <       0.02592526 Ry

     iteration #  3     ecut=   370.00 Ry     beta= 0.70
     Davidson diagonalization with overlap
     ethr =  7.08E-05,  avg # of iterations =  2.0

     total cpu time spent up to now is       14.3 secs

     total energy              =    -325.64817510 Ry
     estimated scf accuracy    <       0.01082806 Ry

     iteration #  4     ecut=   370.00 Ry     beta= 0.70
     Davidson diagonalization with overlap
     ethr =  3.87E-05,  avg # of iterations =  2.2

     total cpu time spent up to now is       16.7 secs

     total energy              =    -325.65372011 Ry
     estimated scf accuracy    <       0.00004135 Ry

     iteration #  5     ecut=   370.00 Ry     beta= 0.70
     Davidson diagonalization with overlap
     ethr =  1.48E-07,  avg # of iterations =  4.7

     total cpu time spent up to now is       20.2 secs

     total energy              =    -325.65448559 Ry
     estimated scf accuracy    <       0.00009655 Ry

     iteration #  6     ecut=   370.00 Ry     beta= 0.70
     Davidson diagonalization with overlap
     ethr =  1.48E-07,  avg # of iterations =  2.2

     total cpu time spent up to now is       23.1 secs

     total energy              =    -325.65456250 Ry
     estimated scf accuracy    <       0.00000046 Ry

     iteration #  7     ecut=   370.00 Ry     beta= 0.70
     Davidson diagonalization with overlap
     ethr =  1.65E-09,  avg # of iterations =  4.2

     total cpu time spent up to now is       26.0 secs

     total energy              =    -325.65457582 Ry
     estimated scf accuracy    <       0.00000039 Ry

     iteration #  8     ecut=   370.00 Ry     beta= 0.70
     Davidson diagonalization with overlap
     ethr =  1.38E-09,  avg # of iterations =  2.2

     total cpu time spent up to now is       28.8 secs

     End of self-consistent calculation

     Number of k-points >= 100: set verbosity='high' to print the bands.

     highest occupied level (ev):     6.6657

!    total energy              =    -325.65457610 Ry
     estimated scf accuracy    <       0.00000009 Ry

     The total energy is the sum of the following terms:
     one-electron contribution =    -161.22980244 Ry
     hartree contribution      =      97.02890335 Ry
     xc contribution           =     -95.11511211 Ry
     ewald contribution        =    -166.33856489 Ry

     convergence has been achieved in   8 iterations

     Writing all to output data dir ./alpha-EOS/alpha.save/ :
     XML data file, charge density, pseudopotentials, collected wavefunctions

     init_run     :      2.55s CPU      2.64s WALL (       1 calls)
     electrons    :     25.47s CPU     25.97s WALL (       1 calls)

     Called by init_run:
     wfcinit      :      1.01s CPU      1.03s WALL (       1 calls)
     potinit      :      0.09s CPU      0.10s WALL (       1 calls)
     hinit0       :      0.89s CPU      0.91s WALL (       1 calls)

     Called by electrons:
     c_bands      :     20.90s CPU     21.21s WALL (       9 calls)
     sum_band     :      3.75s CPU      3.79s WALL (       9 calls)
     v_of_rho     :      0.55s CPU      0.58s WALL (       9 calls)
     newd         :      0.22s CPU      0.24s WALL (       9 calls)
     mix_rho      :      0.07s CPU      0.08s WALL (       9 calls)

     Called by c_bands:
     init_us_2    :      0.51s CPU      0.53s WALL (     494 calls)
     cegterg      :     19.72s CPU     19.90s WALL (     234 calls)

     Called by *egterg:
     cdiaghg      :      0.40s CPU      0.41s WALL (    1085 calls)
     h_psi        :     17.79s CPU     17.96s WALL (    1137 calls)
     s_psi        :      0.34s CPU      0.35s WALL (    1137 calls)
     g_psi        :      0.05s CPU      0.05s WALL (     877 calls)

     Called by h_psi:
     h_psi:calbec :      0.90s CPU      0.91s WALL (    1137 calls)
     vloc_psi     :     16.36s CPU     16.51s WALL (    1137 calls)
     add_vuspsi   :      0.40s CPU      0.41s WALL (    1137 calls)

     General routines
     calbec       :      1.05s CPU      1.06s WALL (    1371 calls)
     fft          :      1.14s CPU      1.16s WALL (     100 calls)
     ffts         :      0.03s CPU      0.03s WALL (       9 calls)
     fftw         :     16.50s CPU     16.63s WALL (   22472 calls)

     Parallel routines

     PWSCF        :     28.67s CPU     31.69s WALL


   This run was terminated on:  23:47: 2  25Feb2026            

=------------------------------------------------------------------------------=
   JOB DONE.
=------------------------------------------------------------------------------=
