
     Program PWSCF v.7.3.1 starts on 25Feb2026 at 23:48:14 

     This program is part of the open-source Quantum ESPRESSO suite
     for quantum simulation of materials; please cite
         "P. Giannozzi et al., J. Phys.:Condens. Matter 21 395502 (2009);
         "P. Giannozzi et al., J. Phys.:Condens. Matter 29 465901 (2017);
         "P. Giannozzi et al., J. Chem. Phys. 152 154105 (2020);
          URL http://www.quantum-espresso.org", 
     in publications or presentations arising from this work. More details at
     http://www.quantum-espresso.org/quote

     Parallel version (MPI), running on   128 processors

     MPI processes distributed on     1 nodes
     236437 MiB available memory on the printing compute node when the environment starts

     Waiting for input...
     Reading input from standard input
     Message from routine read_cards :
     DEPRECATED: no units specified in ATOMIC_POSITIONS card
     Message from routine read_cards :
     ATOMIC_POSITIONS: units set to alat

     Current dimensions of program PWSCF are:
     Max number of different atomic species (ntypx) = 10
     Max number of k-points (npk) =  40000
     Max angular momentum in pseudopotentials (lmaxx) =  4

     K-points division:     npool     =       4
     R & G space division:  proc/nbgrp/npool/nimage =      32
     Subspace diagonalization in iterative solution of the eigenvalue problem:
     a serial algorithm will be used


     Parallelization info
     --------------------
     sticks:   dense  smooth     PW     G-vecs:    dense   smooth      PW
     Min         260     260     69                15635    15635    2157
     Max         261     261     70                15638    15638    2162
     Sum        8329    8329   2221               500359   500359   69089

     Using Slab Decomposition



     bravais-lattice index     =            2
     lattice parameter (alat)  =      12.7681  a.u.
     unit-cell volume          =     520.3803 (a.u.)^3
     number of atoms/cell      =            2
     number of atomic types    =            1
     number of electrons       =        28.00
     number of Kohn-Sham states=           14
     kinetic-energy cutoff     =     370.0000  Ry
     charge density cutoff     =    1480.0000  Ry
     scf convergence threshold =      1.0E-07
     mixing beta               =       0.7000
     number of iterations used =            8  plain     mixing
     Exchange-correlation=  SLA  PW   GGX  GGC
                           (   1   4   2   2   0   0   0)

     celldm(1)=  12.768120  celldm(2)=   0.000000  celldm(3)=   0.000000
     celldm(4)=   0.000000  celldm(5)=   0.000000  celldm(6)=   0.000000

     crystal axes: (cart. coord. in units of alat)
               a(1) = (  -0.500000   0.000000   0.500000 )  
               a(2) = (   0.000000   0.500000   0.500000 )  
               a(3) = (  -0.500000   0.500000   0.000000 )  

     reciprocal axes: (cart. coord. in units 2 pi/alat)
               b(1) = ( -1.000000 -1.000000  1.000000 )  
               b(2) = (  1.000000  1.000000  1.000000 )  
               b(3) = ( -1.000000  1.000000 -1.000000 )  


     PseudoPot. # 1 for Sn read from file:
     ./Sn.pw91-n-van.UPF
     MD5 check sum: a38d2a872edd1a4efd76c0a1a38f7031
     Pseudo is Ultrasoft + core correction, Zval = 14.0
     Generated by new atomic code, or converted to UPF format
     Using radial grid of  891 points,  6 beta functions with: 
                l(1) =   0
                l(2) =   0
                l(3) =   1
                l(4) =   1
                l(5) =   2
                l(6) =   2
     Q(r) pseudized with  8 coefficients,  rinner =    1.100   1.100   1.100
                                                       1.100   1.100

     atomic species   valence    mass     pseudopotential
     Sn               14.00   118.70000     Sn( 1.00)

     48 Sym. Ops., with inversion, found (24 have fractional translation)



   Cartesian axes

     site n.     atom                  positions (alat units)
         1        Sn     tau(   1) = (   0.0000000   0.0000000   0.0000000  )
         2        Sn     tau(   2) = (   0.2500000   0.2500000   0.2500000  )

     number of k points=   104

     Number of k-points >= 100: set verbosity='high' to print them.

     Dense  grid:   500359 G-vectors     FFT dimensions: ( 120, 120, 120)

     Estimated max dynamical RAM per process >      37.28 MB

     Estimated total dynamical RAM >       4.30 GB

     Initial potential from superposition of free atoms

     starting charge      27.9964, renormalised to      28.0000

     negative rho (up, down):  5.551E-07 0.000E+00
     Starting wfcs are   18 randomized atomic wfcs

     total cpu time spent up to now is        2.9 secs

     per-process dynamical memory:    33.0 Mb

     Self-consistent Calculation

     iteration #  1     ecut=   370.00 Ry     beta= 0.70
     Davidson diagonalization with overlap
     ethr =  1.00E-02,  avg # of iterations =  2.5

     Threshold (ethr) on eigenvalues was too large:
     Diagonalizing with lowered threshold

     Davidson diagonalization with overlap
     ethr =  6.07E-05,  avg # of iterations =  4.4

     negative rho (up, down):  2.753E-07 0.000E+00

     total cpu time spent up to now is        8.4 secs

     total energy              =    -325.58145484 Ry
     estimated scf accuracy    <       0.01990556 Ry

     iteration #  2     ecut=   370.00 Ry     beta= 0.70
     Davidson diagonalization with overlap
     ethr =  7.11E-05,  avg # of iterations =  4.9

     total cpu time spent up to now is       11.9 secs

     total energy              =    -325.62179511 Ry
     estimated scf accuracy    <       0.02418888 Ry

     iteration #  3     ecut=   370.00 Ry     beta= 0.70
     Davidson diagonalization with overlap
     ethr =  7.11E-05,  avg # of iterations =  2.0

     total cpu time spent up to now is       14.3 secs

     total energy              =    -325.64616660 Ry
     estimated scf accuracy    <       0.01012200 Ry

     iteration #  4     ecut=   370.00 Ry     beta= 0.70
     Davidson diagonalization with overlap
     ethr =  3.62E-05,  avg # of iterations =  2.1

     total cpu time spent up to now is       16.8 secs

     total energy              =    -325.65247758 Ry
     estimated scf accuracy    <       0.00003482 Ry

     iteration #  5     ecut=   370.00 Ry     beta= 0.70
     Davidson diagonalization with overlap
     ethr =  1.24E-07,  avg # of iterations =  5.1

     total cpu time spent up to now is       20.5 secs

     total energy              =    -325.65355664 Ry
     estimated scf accuracy    <       0.00009131 Ry

     iteration #  6     ecut=   370.00 Ry     beta= 0.70
     Davidson diagonalization with overlap
     ethr =  1.24E-07,  avg # of iterations =  2.1

     total cpu time spent up to now is       23.4 secs

     total energy              =    -325.65368919 Ry
     estimated scf accuracy    <       0.00000298 Ry

     iteration #  7     ecut=   370.00 Ry     beta= 0.70
     Davidson diagonalization with overlap
     ethr =  1.06E-08,  avg # of iterations =  3.3

     total cpu time spent up to now is       26.2 secs

     total energy              =    -325.65370684 Ry
     estimated scf accuracy    <       0.00000017 Ry

     iteration #  8     ecut=   370.00 Ry     beta= 0.70
     Davidson diagonalization with overlap
     ethr =  6.03E-10,  avg # of iterations =  2.9

     total cpu time spent up to now is       29.2 secs

     End of self-consistent calculation

     Number of k-points >= 100: set verbosity='high' to print the bands.

     highest occupied level (ev):     6.4705

!    total energy              =    -325.65370759 Ry
     estimated scf accuracy    <       0.00000009 Ry

     The total energy is the sum of the following terms:
     one-electron contribution =    -162.79714711 Ry
     hartree contribution      =      97.62565583 Ry
     xc contribution           =     -95.09962018 Ry
     ewald contribution        =    -165.38259613 Ry

     convergence has been achieved in   8 iterations

     Writing all to output data dir ./alpha-EOS/alpha.save/ :
     XML data file, charge density, pseudopotentials, collected wavefunctions

     init_run     :      2.51s CPU      2.62s WALL (       1 calls)
     electrons    :     25.90s CPU     26.41s WALL (       1 calls)

     Called by init_run:
     wfcinit      :      0.99s CPU      1.03s WALL (       1 calls)
     potinit      :      0.08s CPU      0.10s WALL (       1 calls)
     hinit0       :      0.90s CPU      0.91s WALL (       1 calls)

     Called by electrons:
     c_bands      :     21.37s CPU     21.70s WALL (       9 calls)
     sum_band     :      3.69s CPU      3.74s WALL (       9 calls)
     v_of_rho     :      0.55s CPU      0.58s WALL (       9 calls)
     newd         :      0.23s CPU      0.24s WALL (       9 calls)
     mix_rho      :      0.07s CPU      0.08s WALL (       9 calls)

     Called by c_bands:
     init_us_2    :      0.51s CPU      0.54s WALL (     494 calls)
     cegterg      :     20.13s CPU     20.29s WALL (     234 calls)

     Called by *egterg:
     cdiaghg      :      0.41s CPU      0.41s WALL (    1086 calls)
     h_psi        :     18.11s CPU     18.29s WALL (    1138 calls)
     s_psi        :      0.36s CPU      0.36s WALL (    1138 calls)
     g_psi        :      0.05s CPU      0.05s WALL (     878 calls)

     Called by h_psi:
     h_psi:calbec :      0.94s CPU      0.94s WALL (    1138 calls)
     vloc_psi     :     16.63s CPU     16.79s WALL (    1138 calls)
     add_vuspsi   :      0.43s CPU      0.43s WALL (    1138 calls)

     General routines
     calbec       :      1.08s CPU      1.09s WALL (    1372 calls)
     fft          :      1.12s CPU      1.16s WALL (     100 calls)
     ffts         :      0.03s CPU      0.03s WALL (       9 calls)
     fftw         :     16.65s CPU     16.82s WALL (   22712 calls)

     Parallel routines

     PWSCF        :     29.00s CPU     32.37s WALL


   This run was terminated on:  23:48:46  25Feb2026            

=------------------------------------------------------------------------------=
   JOB DONE.
=------------------------------------------------------------------------------=
