
     Program PWSCF v.7.3.1 starts on 25Feb2026 at 19:56:31 

     This program is part of the open-source Quantum ESPRESSO suite
     for quantum simulation of materials; please cite
         "P. Giannozzi et al., J. Phys.:Condens. Matter 21 395502 (2009);
         "P. Giannozzi et al., J. Phys.:Condens. Matter 29 465901 (2017);
         "P. Giannozzi et al., J. Chem. Phys. 152 154105 (2020);
          URL http://www.quantum-espresso.org", 
     in publications or presentations arising from this work. More details at
     http://www.quantum-espresso.org/quote

     Parallel version (MPI), running on   128 processors

     MPI processes distributed on     1 nodes
     239322 MiB available memory on the printing compute node when the environment starts

     Waiting for input...
     Reading input from standard input
     Message from routine read_cards :
     DEPRECATED: no units specified in ATOMIC_POSITIONS card
     Message from routine read_cards :
     ATOMIC_POSITIONS: units set to alat

     Current dimensions of program PWSCF are:
     Max number of different atomic species (ntypx) = 10
     Max number of k-points (npk) =  40000
     Max angular momentum in pseudopotentials (lmaxx) =  4

     K-points division:     npool     =       4
     R & G space division:  proc/nbgrp/npool/nimage =      32
     Subspace diagonalization in iterative solution of the eigenvalue problem:
     a serial algorithm will be used


     Parallelization info
     --------------------
     sticks:   dense  smooth     PW     G-vecs:    dense   smooth      PW
     Min         261     261     69                15730    15730    2169
     Max         262     262     70                15734    15734    2174
     Sum        8353    8353   2233               503431   503431   69473

     Using Slab Decomposition



     bravais-lattice index     =            2
     lattice parameter (alat)  =      12.7926  a.u.
     unit-cell volume          =     523.3768 (a.u.)^3
     number of atoms/cell      =            2
     number of atomic types    =            1
     number of electrons       =        28.00
     number of Kohn-Sham states=           14
     kinetic-energy cutoff     =     370.0000  Ry
     charge density cutoff     =    1480.0000  Ry
     scf convergence threshold =      1.0E-07
     mixing beta               =       0.7000
     number of iterations used =            8  plain     mixing
     Exchange-correlation=  SLA  PW   GGX  GGC
                           (   1   4   2   2   0   0   0)

     celldm(1)=  12.792580  celldm(2)=   0.000000  celldm(3)=   0.000000
     celldm(4)=   0.000000  celldm(5)=   0.000000  celldm(6)=   0.000000

     crystal axes: (cart. coord. in units of alat)
               a(1) = (  -0.500000   0.000000   0.500000 )  
               a(2) = (   0.000000   0.500000   0.500000 )  
               a(3) = (  -0.500000   0.500000   0.000000 )  

     reciprocal axes: (cart. coord. in units 2 pi/alat)
               b(1) = ( -1.000000 -1.000000  1.000000 )  
               b(2) = (  1.000000  1.000000  1.000000 )  
               b(3) = ( -1.000000  1.000000 -1.000000 )  


     PseudoPot. # 1 for Sn read from file:
     ./Sn.pw91-n-van.UPF
     MD5 check sum: a38d2a872edd1a4efd76c0a1a38f7031
     Pseudo is Ultrasoft + core correction, Zval = 14.0
     Generated by new atomic code, or converted to UPF format
     Using radial grid of  891 points,  6 beta functions with: 
                l(1) =   0
                l(2) =   0
                l(3) =   1
                l(4) =   1
                l(5) =   2
                l(6) =   2
     Q(r) pseudized with  8 coefficients,  rinner =    1.100   1.100   1.100
                                                       1.100   1.100

     atomic species   valence    mass     pseudopotential
     Sn               14.00   118.70000     Sn( 1.00)

     48 Sym. Ops., with inversion, found (24 have fractional translation)



   Cartesian axes

     site n.     atom                  positions (alat units)
         1        Sn     tau(   1) = (   0.0000000   0.0000000   0.0000000  )
         2        Sn     tau(   2) = (   0.2500000   0.2500000   0.2500000  )

     number of k points=   104

     Number of k-points >= 100: set verbosity='high' to print them.

     Dense  grid:   503431 G-vectors     FFT dimensions: ( 120, 120, 120)

     Estimated max dynamical RAM per process >      37.45 MB

     Estimated total dynamical RAM >       4.32 GB

     Initial potential from superposition of free atoms

     starting charge      27.9964, renormalised to      28.0000

     negative rho (up, down):  2.356E-06 0.000E+00
     Starting wfcs are   18 randomized atomic wfcs

     total cpu time spent up to now is        2.9 secs

     per-process dynamical memory:    33.7 Mb

     Self-consistent Calculation

     iteration #  1     ecut=   370.00 Ry     beta= 0.70
     Davidson diagonalization with overlap
     ethr =  1.00E-02,  avg # of iterations =  2.5

     Threshold (ethr) on eigenvalues was too large:
     Diagonalizing with lowered threshold

     Davidson diagonalization with overlap
     ethr =  6.07E-05,  avg # of iterations =  4.4

     total cpu time spent up to now is        8.5 secs

     total energy              =    -325.58326036 Ry
     estimated scf accuracy    <       0.01986589 Ry

     iteration #  2     ecut=   370.00 Ry     beta= 0.70
     Davidson diagonalization with overlap
     ethr =  7.09E-05,  avg # of iterations =  4.8

     total cpu time spent up to now is       12.0 secs

     total energy              =    -325.62204182 Ry
     estimated scf accuracy    <       0.02320283 Ry

     iteration #  3     ecut=   370.00 Ry     beta= 0.70
     Davidson diagonalization with overlap
     ethr =  7.09E-05,  avg # of iterations =  2.0

     total cpu time spent up to now is       14.4 secs

     total energy              =    -325.64609644 Ry
     estimated scf accuracy    <       0.00969813 Ry

     iteration #  4     ecut=   370.00 Ry     beta= 0.70
     Davidson diagonalization with overlap
     ethr =  3.46E-05,  avg # of iterations =  2.2

     total cpu time spent up to now is       16.8 secs

     total energy              =    -325.65254065 Ry
     estimated scf accuracy    <       0.00003727 Ry

     iteration #  5     ecut=   370.00 Ry     beta= 0.70
     Davidson diagonalization with overlap
     ethr =  1.33E-07,  avg # of iterations =  5.0

     total cpu time spent up to now is       20.5 secs

     total energy              =    -325.65328079 Ry
     estimated scf accuracy    <       0.00009370 Ry

     iteration #  6     ecut=   370.00 Ry     beta= 0.70
     Davidson diagonalization with overlap
     ethr =  1.33E-07,  avg # of iterations =  2.1

     total cpu time spent up to now is       23.4 secs

     total energy              =    -325.65333595 Ry
     estimated scf accuracy    <       0.00000065 Ry

     iteration #  7     ecut=   370.00 Ry     beta= 0.70
     Davidson diagonalization with overlap
     ethr =  2.31E-09,  avg # of iterations =  4.1

     total cpu time spent up to now is       26.4 secs

     total energy              =    -325.65334840 Ry
     estimated scf accuracy    <       0.00000041 Ry

     iteration #  8     ecut=   370.00 Ry     beta= 0.70
     Davidson diagonalization with overlap
     ethr =  1.46E-09,  avg # of iterations =  2.3

     total cpu time spent up to now is       29.2 secs

     total energy              =    -325.65334868 Ry
     estimated scf accuracy    <       0.00000012 Ry

     iteration #  9     ecut=   370.00 Ry     beta= 0.70
     Davidson diagonalization with overlap
     ethr =  4.27E-10,  avg # of iterations =  2.0

     total cpu time spent up to now is       31.6 secs

     End of self-consistent calculation

     Number of k-points >= 100: set verbosity='high' to print the bands.

     highest occupied level (ev):     6.4059

!    total energy              =    -325.65334869 Ry
     estimated scf accuracy    <          1.3E-09 Ry

     The total energy is the sum of the following terms:
     one-electron contribution =    -163.31645167 Ry
     hartree contribution      =      97.82407273 Ry
     xc contribution           =     -95.09459273 Ry
     ewald contribution        =    -165.06637702 Ry

     convergence has been achieved in   9 iterations

     Writing all to output data dir ./alpha-EOS/alpha.save/ :
     XML data file, charge density, pseudopotentials, collected wavefunctions

     init_run     :      2.57s CPU      2.66s WALL (       1 calls)
     electrons    :     28.13s CPU     28.73s WALL (       1 calls)

     Called by init_run:
     wfcinit      :      1.01s CPU      1.03s WALL (       1 calls)
     potinit      :      0.08s CPU      0.09s WALL (       1 calls)
     hinit0       :      0.90s CPU      0.91s WALL (       1 calls)

     Called by electrons:
     c_bands      :     23.09s CPU     23.48s WALL (      10 calls)
     sum_band     :      4.11s CPU      4.18s WALL (      10 calls)
     v_of_rho     :      0.60s CPU      0.64s WALL (      10 calls)
     newd         :      0.25s CPU      0.27s WALL (      10 calls)
     mix_rho      :      0.09s CPU      0.09s WALL (      10 calls)

     Called by c_bands:
     init_us_2    :      0.58s CPU      0.60s WALL (     546 calls)
     cegterg      :     21.91s CPU     22.13s WALL (     260 calls)

     Called by *egterg:
     cdiaghg      :      0.45s CPU      0.45s WALL (    1171 calls)
     h_psi        :     19.67s CPU     19.88s WALL (    1223 calls)
     s_psi        :      0.39s CPU      0.39s WALL (    1223 calls)
     g_psi        :      0.06s CPU      0.06s WALL (     937 calls)

     Called by h_psi:
     h_psi:calbec :      1.01s CPU      1.02s WALL (    1223 calls)
     vloc_psi     :     18.06s CPU     18.25s WALL (    1223 calls)
     add_vuspsi   :      0.46s CPU      0.47s WALL (    1223 calls)

     General routines
     calbec       :      1.18s CPU      1.20s WALL (    1483 calls)
     fft          :      1.15s CPU      1.19s WALL (     111 calls)
     ffts         :      0.03s CPU      0.03s WALL (      10 calls)
     fftw         :     18.19s CPU     18.38s WALL (   24654 calls)

     Parallel routines

     PWSCF        :     31.51s CPU     34.27s WALL


   This run was terminated on:  19:57: 5  25Feb2026            

=------------------------------------------------------------------------------=
   JOB DONE.
=------------------------------------------------------------------------------=
