
     Program PWSCF v.7.3.1 starts on 25Feb2026 at 23:49:29 

     This program is part of the open-source Quantum ESPRESSO suite
     for quantum simulation of materials; please cite
         "P. Giannozzi et al., J. Phys.:Condens. Matter 21 395502 (2009);
         "P. Giannozzi et al., J. Phys.:Condens. Matter 29 465901 (2017);
         "P. Giannozzi et al., J. Chem. Phys. 152 154105 (2020);
          URL http://www.quantum-espresso.org", 
     in publications or presentations arising from this work. More details at
     http://www.quantum-espresso.org/quote

     Parallel version (MPI), running on   128 processors

     MPI processes distributed on     1 nodes
     236501 MiB available memory on the printing compute node when the environment starts

     Waiting for input...
     Reading input from standard input
     Message from routine read_cards :
     DEPRECATED: no units specified in ATOMIC_POSITIONS card
     Message from routine read_cards :
     ATOMIC_POSITIONS: units set to alat

     Current dimensions of program PWSCF are:
     Max number of different atomic species (ntypx) = 10
     Max number of k-points (npk) =  40000
     Max angular momentum in pseudopotentials (lmaxx) =  4

     K-points division:     npool     =       4
     R & G space division:  proc/nbgrp/npool/nimage =      32
     Subspace diagonalization in iterative solution of the eigenvalue problem:
     a serial algorithm will be used


     Parallelization info
     --------------------
     sticks:   dense  smooth     PW     G-vecs:    dense   smooth      PW
     Min         261     261     69                15821    15821    2185
     Max         262     262     70                15825    15825    2192
     Sum        8383    8383   2233               506335   506335   70049

     Using Slab Decomposition



     bravais-lattice index     =            2
     lattice parameter (alat)  =      12.8170  a.u.
     unit-cell volume          =     526.3847 (a.u.)^3
     number of atoms/cell      =            2
     number of atomic types    =            1
     number of electrons       =        28.00
     number of Kohn-Sham states=           14
     kinetic-energy cutoff     =     370.0000  Ry
     charge density cutoff     =    1480.0000  Ry
     scf convergence threshold =      1.0E-07
     mixing beta               =       0.7000
     number of iterations used =            8  plain     mixing
     Exchange-correlation=  SLA  PW   GGX  GGC
                           (   1   4   2   2   0   0   0)

     celldm(1)=  12.817040  celldm(2)=   0.000000  celldm(3)=   0.000000
     celldm(4)=   0.000000  celldm(5)=   0.000000  celldm(6)=   0.000000

     crystal axes: (cart. coord. in units of alat)
               a(1) = (  -0.500000   0.000000   0.500000 )  
               a(2) = (   0.000000   0.500000   0.500000 )  
               a(3) = (  -0.500000   0.500000   0.000000 )  

     reciprocal axes: (cart. coord. in units 2 pi/alat)
               b(1) = ( -1.000000 -1.000000  1.000000 )  
               b(2) = (  1.000000  1.000000  1.000000 )  
               b(3) = ( -1.000000  1.000000 -1.000000 )  


     PseudoPot. # 1 for Sn read from file:
     ./Sn.pw91-n-van.UPF
     MD5 check sum: a38d2a872edd1a4efd76c0a1a38f7031
     Pseudo is Ultrasoft + core correction, Zval = 14.0
     Generated by new atomic code, or converted to UPF format
     Using radial grid of  891 points,  6 beta functions with: 
                l(1) =   0
                l(2) =   0
                l(3) =   1
                l(4) =   1
                l(5) =   2
                l(6) =   2
     Q(r) pseudized with  8 coefficients,  rinner =    1.100   1.100   1.100
                                                       1.100   1.100

     atomic species   valence    mass     pseudopotential
     Sn               14.00   118.70000     Sn( 1.00)

     48 Sym. Ops., with inversion, found (24 have fractional translation)



   Cartesian axes

     site n.     atom                  positions (alat units)
         1        Sn     tau(   1) = (   0.0000000   0.0000000   0.0000000  )
         2        Sn     tau(   2) = (   0.2500000   0.2500000   0.2500000  )

     number of k points=   104

     Number of k-points >= 100: set verbosity='high' to print them.

     Dense  grid:   506335 G-vectors     FFT dimensions: ( 120, 120, 120)

     Estimated max dynamical RAM per process >      37.63 MB

     Estimated total dynamical RAM >       4.34 GB

     Initial potential from superposition of free atoms

     starting charge      27.9964, renormalised to      28.0000

     negative rho (up, down):  3.737E-06 0.000E+00
     Starting wfcs are   18 randomized atomic wfcs

     total cpu time spent up to now is        3.0 secs

     per-process dynamical memory:    33.8 Mb

     Self-consistent Calculation

     iteration #  1     ecut=   370.00 Ry     beta= 0.70
     Davidson diagonalization with overlap
     ethr =  1.00E-02,  avg # of iterations =  2.5

     Threshold (ethr) on eigenvalues was too large:
     Diagonalizing with lowered threshold

     Davidson diagonalization with overlap
     ethr =  6.06E-05,  avg # of iterations =  4.4

     negative rho (up, down):  7.965E-08 0.000E+00

     total cpu time spent up to now is        8.5 secs

     total energy              =    -325.58388332 Ry
     estimated scf accuracy    <       0.01981007 Ry

     iteration #  2     ecut=   370.00 Ry     beta= 0.70
     Davidson diagonalization with overlap
     ethr =  7.08E-05,  avg # of iterations =  4.8

     total cpu time spent up to now is       12.1 secs

     total energy              =    -325.62149793 Ry
     estimated scf accuracy    <       0.02266952 Ry

     iteration #  3     ecut=   370.00 Ry     beta= 0.70
     Davidson diagonalization with overlap
     ethr =  7.08E-05,  avg # of iterations =  2.0

     total cpu time spent up to now is       14.5 secs

     total energy              =    -325.64526627 Ry
     estimated scf accuracy    <       0.00948451 Ry

     iteration #  4     ecut=   370.00 Ry     beta= 0.70
     Davidson diagonalization with overlap
     ethr =  3.39E-05,  avg # of iterations =  2.1

     total cpu time spent up to now is       16.9 secs

     total energy              =    -325.65160853 Ry
     estimated scf accuracy    <       0.00003945 Ry

     iteration #  5     ecut=   370.00 Ry     beta= 0.70
     Davidson diagonalization with overlap
     ethr =  1.41E-07,  avg # of iterations =  5.2

     total cpu time spent up to now is       20.6 secs

     total energy              =    -325.65277643 Ry
     estimated scf accuracy    <       0.00007931 Ry

     iteration #  6     ecut=   370.00 Ry     beta= 0.70
     Davidson diagonalization with overlap
     ethr =  1.41E-07,  avg # of iterations =  2.0

     total cpu time spent up to now is       23.3 secs

     total energy              =    -325.65293562 Ry
     estimated scf accuracy    <       0.00000433 Ry

     iteration #  7     ecut=   370.00 Ry     beta= 0.70
     Davidson diagonalization with overlap
     ethr =  1.55E-08,  avg # of iterations =  3.0

     total cpu time spent up to now is       26.0 secs

     total energy              =    -325.65295521 Ry
     estimated scf accuracy    <       0.00000015 Ry

     iteration #  8     ecut=   370.00 Ry     beta= 0.70
     Davidson diagonalization with overlap
     ethr =  5.46E-10,  avg # of iterations =  3.5

     total cpu time spent up to now is       28.8 secs

     End of self-consistent calculation

     Number of k-points >= 100: set verbosity='high' to print the bands.

     highest occupied level (ev):     6.3431

!    total energy              =    -325.65295641 Ry
     estimated scf accuracy    <       0.00000008 Ry

     The total energy is the sum of the following terms:
     one-electron contribution =    -163.83334641 Ry
     hartree contribution      =      98.02128518 Ry
     xc contribution           =     -95.08953033 Ry
     ewald contribution        =    -164.75136485 Ry

     convergence has been achieved in   8 iterations

     Writing all to output data dir ./alpha-EOS/alpha.save/ :
     XML data file, charge density, pseudopotentials, collected wavefunctions

     init_run     :      2.52s CPU      2.64s WALL (       1 calls)
     electrons    :     25.38s CPU     25.99s WALL (       1 calls)

     Called by init_run:
     wfcinit      :      0.99s CPU      1.03s WALL (       1 calls)
     potinit      :      0.08s CPU      0.10s WALL (       1 calls)
     hinit0       :      0.90s CPU      0.91s WALL (       1 calls)

     Called by electrons:
     c_bands      :     20.82s CPU     21.21s WALL (       9 calls)
     sum_band     :      3.74s CPU      3.80s WALL (       9 calls)
     v_of_rho     :      0.53s CPU      0.58s WALL (       9 calls)
     newd         :      0.23s CPU      0.24s WALL (       9 calls)
     mix_rho      :      0.08s CPU      0.08s WALL (       9 calls)

     Called by c_bands:
     init_us_2    :      0.52s CPU      0.54s WALL (     494 calls)
     cegterg      :     19.53s CPU     19.75s WALL (     234 calls)

     Called by *egterg:
     cdiaghg      :      0.39s CPU      0.40s WALL (    1074 calls)
     h_psi        :     17.56s CPU     17.77s WALL (    1126 calls)
     s_psi        :      0.35s CPU      0.36s WALL (    1126 calls)
     g_psi        :      0.05s CPU      0.05s WALL (     866 calls)

     Called by h_psi:
     h_psi:calbec :      0.92s CPU      0.94s WALL (    1126 calls)
     vloc_psi     :     16.09s CPU     16.28s WALL (    1126 calls)
     add_vuspsi   :      0.42s CPU      0.43s WALL (    1126 calls)

     General routines
     calbec       :      1.08s CPU      1.09s WALL (    1360 calls)
     fft          :      1.11s CPU      1.17s WALL (     100 calls)
     ffts         :      0.02s CPU      0.03s WALL (       9 calls)
     fftw         :     16.18s CPU     16.36s WALL (   22142 calls)

     Parallel routines

     PWSCF        :     28.96s CPU     32.02s WALL


   This run was terminated on:  23:50: 1  25Feb2026            

=------------------------------------------------------------------------------=
   JOB DONE.
=------------------------------------------------------------------------------=
