
     Program PWSCF v.7.3.1 starts on 25Feb2026 at 23:50:40 

     This program is part of the open-source Quantum ESPRESSO suite
     for quantum simulation of materials; please cite
         "P. Giannozzi et al., J. Phys.:Condens. Matter 21 395502 (2009);
         "P. Giannozzi et al., J. Phys.:Condens. Matter 29 465901 (2017);
         "P. Giannozzi et al., J. Chem. Phys. 152 154105 (2020);
          URL http://www.quantum-espresso.org", 
     in publications or presentations arising from this work. More details at
     http://www.quantum-espresso.org/quote

     Parallel version (MPI), running on   128 processors

     MPI processes distributed on     1 nodes
     236413 MiB available memory on the printing compute node when the environment starts

     Waiting for input...
     Reading input from standard input
     Message from routine read_cards :
     DEPRECATED: no units specified in ATOMIC_POSITIONS card
     Message from routine read_cards :
     ATOMIC_POSITIONS: units set to alat

     Current dimensions of program PWSCF are:
     Max number of different atomic species (ntypx) = 10
     Max number of k-points (npk) =  40000
     Max angular momentum in pseudopotentials (lmaxx) =  4

     K-points division:     npool     =       4
     R & G space division:  proc/nbgrp/npool/nimage =      32
     Subspace diagonalization in iterative solution of the eigenvalue problem:
     a serial algorithm will be used


     Parallelization info
     --------------------
     sticks:   dense  smooth     PW     G-vecs:    dense   smooth      PW
     Min         263     263     70                16003    16003    2207
     Max         264     264     71                16009    16009    2211
     Sum        8443    8443   2245               512215   512215   70721

     Using Slab Decomposition



     bravais-lattice index     =            2
     lattice parameter (alat)  =      12.8660  a.u.
     unit-cell volume          =     532.4350 (a.u.)^3
     number of atoms/cell      =            2
     number of atomic types    =            1
     number of electrons       =        28.00
     number of Kohn-Sham states=           14
     kinetic-energy cutoff     =     370.0000  Ry
     charge density cutoff     =    1480.0000  Ry
     scf convergence threshold =      1.0E-07
     mixing beta               =       0.7000
     number of iterations used =            8  plain     mixing
     Exchange-correlation=  SLA  PW   GGX  GGC
                           (   1   4   2   2   0   0   0)

     celldm(1)=  12.865960  celldm(2)=   0.000000  celldm(3)=   0.000000
     celldm(4)=   0.000000  celldm(5)=   0.000000  celldm(6)=   0.000000

     crystal axes: (cart. coord. in units of alat)
               a(1) = (  -0.500000   0.000000   0.500000 )  
               a(2) = (   0.000000   0.500000   0.500000 )  
               a(3) = (  -0.500000   0.500000   0.000000 )  

     reciprocal axes: (cart. coord. in units 2 pi/alat)
               b(1) = ( -1.000000 -1.000000  1.000000 )  
               b(2) = (  1.000000  1.000000  1.000000 )  
               b(3) = ( -1.000000  1.000000 -1.000000 )  


     PseudoPot. # 1 for Sn read from file:
     ./Sn.pw91-n-van.UPF
     MD5 check sum: a38d2a872edd1a4efd76c0a1a38f7031
     Pseudo is Ultrasoft + core correction, Zval = 14.0
     Generated by new atomic code, or converted to UPF format
     Using radial grid of  891 points,  6 beta functions with: 
                l(1) =   0
                l(2) =   0
                l(3) =   1
                l(4) =   1
                l(5) =   2
                l(6) =   2
     Q(r) pseudized with  8 coefficients,  rinner =    1.100   1.100   1.100
                                                       1.100   1.100

     atomic species   valence    mass     pseudopotential
     Sn               14.00   118.70000     Sn( 1.00)

     48 Sym. Ops., with inversion, found (24 have fractional translation)



   Cartesian axes

     site n.     atom                  positions (alat units)
         1        Sn     tau(   1) = (   0.0000000   0.0000000   0.0000000  )
         2        Sn     tau(   2) = (   0.2500000   0.2500000   0.2500000  )

     number of k points=   104

     Number of k-points >= 100: set verbosity='high' to print them.

     Dense  grid:   512215 G-vectors     FFT dimensions: ( 120, 120, 120)

     Estimated max dynamical RAM per process >      37.98 MB

     Estimated total dynamical RAM >       4.38 GB

     Initial potential from superposition of free atoms

     starting charge      27.9964, renormalised to      28.0000

     negative rho (up, down):  6.935E-06 0.000E+00
     Starting wfcs are   18 randomized atomic wfcs

     total cpu time spent up to now is        2.9 secs

     per-process dynamical memory:    34.0 Mb

     Self-consistent Calculation

     iteration #  1     ecut=   370.00 Ry     beta= 0.70
     Davidson diagonalization with overlap
     ethr =  1.00E-02,  avg # of iterations =  2.5

     Threshold (ethr) on eigenvalues was too large:
     Diagonalizing with lowered threshold

     Davidson diagonalization with overlap
     ethr =  5.96E-05,  avg # of iterations =  4.3

     negative rho (up, down):  5.112E-07 0.000E+00

     total cpu time spent up to now is        8.5 secs

     total energy              =    -325.58875350 Ry
     estimated scf accuracy    <       0.01957345 Ry

     iteration #  2     ecut=   370.00 Ry     beta= 0.70
     Davidson diagonalization with overlap
     ethr =  6.99E-05,  avg # of iterations =  4.7

     total cpu time spent up to now is       12.1 secs

     total energy              =    -325.62067529 Ry
     estimated scf accuracy    <       0.02032205 Ry

     iteration #  3     ecut=   370.00 Ry     beta= 0.70
     Davidson diagonalization with overlap
     ethr =  6.99E-05,  avg # of iterations =  2.0

     total cpu time spent up to now is       14.5 secs

     total energy              =    -325.64337992 Ry
     estimated scf accuracy    <       0.00868483 Ry

     iteration #  4     ecut=   370.00 Ry     beta= 0.70
     Davidson diagonalization with overlap
     ethr =  3.10E-05,  avg # of iterations =  2.0

     total cpu time spent up to now is       16.9 secs

     total energy              =    -325.65052582 Ry
     estimated scf accuracy    <       0.00007155 Ry

     iteration #  5     ecut=   370.00 Ry     beta= 0.70
     Davidson diagonalization with overlap
     ethr =  2.56E-07,  avg # of iterations =  4.9

     total cpu time spent up to now is       20.7 secs

     total energy              =    -325.65186984 Ry
     estimated scf accuracy    <       0.00006835 Ry

     iteration #  6     ecut=   370.00 Ry     beta= 0.70
     Davidson diagonalization with overlap
     ethr =  2.44E-07,  avg # of iterations =  2.0

     total cpu time spent up to now is       23.1 secs

     total energy              =    -325.65205261 Ry
     estimated scf accuracy    <       0.00000772 Ry

     iteration #  7     ecut=   370.00 Ry     beta= 0.70
     Davidson diagonalization with overlap
     ethr =  2.76E-08,  avg # of iterations =  2.5

     total cpu time spent up to now is       25.7 secs

     total energy              =    -325.65207272 Ry
     estimated scf accuracy    <       0.00000013 Ry

     iteration #  8     ecut=   370.00 Ry     beta= 0.70
     Davidson diagonalization with overlap
     ethr =  4.48E-10,  avg # of iterations =  4.0

     total cpu time spent up to now is       28.5 secs

     End of self-consistent calculation

     Number of k-points >= 100: set verbosity='high' to print the bands.

     highest occupied level (ev):     6.2176

!    total energy              =    -325.65207492 Ry
     estimated scf accuracy    <       0.00000005 Ry

     The total energy is the sum of the following terms:
     one-electron contribution =    -164.86292761 Ry
     hartree contribution      =      98.41547034 Ry
     xc contribution           =     -95.07968385 Ry
     ewald contribution        =    -164.12493380 Ry

     convergence has been achieved in   8 iterations

     Writing all to output data dir ./alpha-EOS/alpha.save/ :
     XML data file, charge density, pseudopotentials, collected wavefunctions

     init_run     :      2.57s CPU      2.64s WALL (       1 calls)
     electrons    :     25.22s CPU     25.71s WALL (       1 calls)

     Called by init_run:
     wfcinit      :      1.01s CPU      1.03s WALL (       1 calls)
     potinit      :      0.08s CPU      0.10s WALL (       1 calls)
     hinit0       :      0.90s CPU      0.91s WALL (       1 calls)

     Called by electrons:
     c_bands      :     20.65s CPU     20.94s WALL (       9 calls)
     sum_band     :      3.72s CPU      3.79s WALL (       9 calls)
     v_of_rho     :      0.55s CPU      0.58s WALL (       9 calls)
     newd         :      0.24s CPU      0.25s WALL (       9 calls)
     mix_rho      :      0.08s CPU      0.08s WALL (       9 calls)

     Called by c_bands:
     init_us_2    :      0.54s CPU      0.56s WALL (     494 calls)
     cegterg      :     19.36s CPU     19.51s WALL (     234 calls)

     Called by *egterg:
     cdiaghg      :      0.39s CPU      0.40s WALL (    1075 calls)
     h_psi        :     17.40s CPU     17.54s WALL (    1127 calls)
     s_psi        :      0.35s CPU      0.36s WALL (    1127 calls)
     g_psi        :      0.05s CPU      0.05s WALL (     867 calls)

     Called by h_psi:
     h_psi:calbec :      0.95s CPU      0.96s WALL (    1127 calls)
     vloc_psi     :     15.89s CPU     16.02s WALL (    1127 calls)
     add_vuspsi   :      0.43s CPU      0.43s WALL (    1127 calls)

     General routines
     calbec       :      1.11s CPU      1.12s WALL (    1361 calls)
     fft          :      1.14s CPU      1.16s WALL (     100 calls)
     ffts         :      0.03s CPU      0.03s WALL (       9 calls)
     fftw         :     16.03s CPU     16.16s WALL (   21680 calls)

     Parallel routines

     PWSCF        :     28.57s CPU     31.35s WALL


   This run was terminated on:  23:51:11  25Feb2026            

=------------------------------------------------------------------------------=
   JOB DONE.
=------------------------------------------------------------------------------=
