
     Program PWSCF v.7.3.1 starts on 25Feb2026 at 23:53: 5 

     This program is part of the open-source Quantum ESPRESSO suite
     for quantum simulation of materials; please cite
         "P. Giannozzi et al., J. Phys.:Condens. Matter 21 395502 (2009);
         "P. Giannozzi et al., J. Phys.:Condens. Matter 29 465901 (2017);
         "P. Giannozzi et al., J. Chem. Phys. 152 154105 (2020);
          URL http://www.quantum-espresso.org", 
     in publications or presentations arising from this work. More details at
     http://www.quantum-espresso.org/quote

     Parallel version (MPI), running on   128 processors

     MPI processes distributed on     1 nodes
     236410 MiB available memory on the printing compute node when the environment starts

     Waiting for input...
     Reading input from standard input
     Message from routine read_cards :
     DEPRECATED: no units specified in ATOMIC_POSITIONS card
     Message from routine read_cards :
     ATOMIC_POSITIONS: units set to alat

     Current dimensions of program PWSCF are:
     Max number of different atomic species (ntypx) = 10
     Max number of k-points (npk) =  40000
     Max angular momentum in pseudopotentials (lmaxx) =  4

     K-points division:     npool     =       4
     R & G space division:  proc/nbgrp/npool/nimage =      32
     Subspace diagonalization in iterative solution of the eigenvalue problem:
     a serial algorithm will be used


     Parallelization info
     --------------------
     sticks:   dense  smooth     PW     G-vecs:    dense   smooth      PW
     Min         268     268     71                16392    16392    2250
     Max         269     269     72                16395    16395    2253
     Sum        8593    8593   2275               524587   524587   72017

     Using Slab Decomposition



     bravais-lattice index     =            2
     lattice parameter (alat)  =      12.9638  a.u.
     unit-cell volume          =     544.6744 (a.u.)^3
     number of atoms/cell      =            2
     number of atomic types    =            1
     number of electrons       =        28.00
     number of Kohn-Sham states=           14
     kinetic-energy cutoff     =     370.0000  Ry
     charge density cutoff     =    1480.0000  Ry
     scf convergence threshold =      1.0E-07
     mixing beta               =       0.7000
     number of iterations used =            8  plain     mixing
     Exchange-correlation=  SLA  PW   GGX  GGC
                           (   1   4   2   2   0   0   0)

     celldm(1)=  12.963800  celldm(2)=   0.000000  celldm(3)=   0.000000
     celldm(4)=   0.000000  celldm(5)=   0.000000  celldm(6)=   0.000000

     crystal axes: (cart. coord. in units of alat)
               a(1) = (  -0.500000   0.000000   0.500000 )  
               a(2) = (   0.000000   0.500000   0.500000 )  
               a(3) = (  -0.500000   0.500000   0.000000 )  

     reciprocal axes: (cart. coord. in units 2 pi/alat)
               b(1) = ( -1.000000 -1.000000  1.000000 )  
               b(2) = (  1.000000  1.000000  1.000000 )  
               b(3) = ( -1.000000  1.000000 -1.000000 )  


     PseudoPot. # 1 for Sn read from file:
     ./Sn.pw91-n-van.UPF
     MD5 check sum: a38d2a872edd1a4efd76c0a1a38f7031
     Pseudo is Ultrasoft + core correction, Zval = 14.0
     Generated by new atomic code, or converted to UPF format
     Using radial grid of  891 points,  6 beta functions with: 
                l(1) =   0
                l(2) =   0
                l(3) =   1
                l(4) =   1
                l(5) =   2
                l(6) =   2
     Q(r) pseudized with  8 coefficients,  rinner =    1.100   1.100   1.100
                                                       1.100   1.100

     atomic species   valence    mass     pseudopotential
     Sn               14.00   118.70000     Sn( 1.00)

     48 Sym. Ops., with inversion, found (24 have fractional translation)



   Cartesian axes

     site n.     atom                  positions (alat units)
         1        Sn     tau(   1) = (   0.0000000   0.0000000   0.0000000  )
         2        Sn     tau(   2) = (   0.2500000   0.2500000   0.2500000  )

     number of k points=   104

     Number of k-points >= 100: set verbosity='high' to print them.

     Dense  grid:   524587 G-vectors     FFT dimensions: ( 120, 120, 120)

     Estimated max dynamical RAM per process >      38.72 MB

     Estimated total dynamical RAM >       4.46 GB

     Initial potential from superposition of free atoms

     starting charge      27.9964, renormalised to      28.0000

     negative rho (up, down):  3.167E-06 0.000E+00
     Starting wfcs are   18 randomized atomic wfcs

     total cpu time spent up to now is        3.0 secs

     per-process dynamical memory:    34.5 Mb

     Self-consistent Calculation

     iteration #  1     ecut=   370.00 Ry     beta= 0.70
     Davidson diagonalization with overlap
     ethr =  1.00E-02,  avg # of iterations =  2.4

     Threshold (ethr) on eigenvalues was too large:
     Diagonalizing with lowered threshold

     Davidson diagonalization with overlap
     ethr =  5.91E-05,  avg # of iterations =  4.4

     negative rho (up, down):  1.152E-06 0.000E+00

     total cpu time spent up to now is        8.7 secs

     total energy              =    -325.59449512 Ry
     estimated scf accuracy    <       0.01945420 Ry

     iteration #  2     ecut=   370.00 Ry     beta= 0.70
     Davidson diagonalization with overlap
     ethr =  6.95E-05,  avg # of iterations =  4.6

     total cpu time spent up to now is       12.3 secs

     total energy              =    -325.61878747 Ry
     estimated scf accuracy    <       0.01759600 Ry

     iteration #  3     ecut=   370.00 Ry     beta= 0.70
     Davidson diagonalization with overlap
     ethr =  6.28E-05,  avg # of iterations =  2.1

     total cpu time spent up to now is       14.8 secs

     total energy              =    -325.63899782 Ry
     estimated scf accuracy    <       0.00786910 Ry

     iteration #  4     ecut=   370.00 Ry     beta= 0.70
     Davidson diagonalization with overlap
     ethr =  2.81E-05,  avg # of iterations =  2.1

     total cpu time spent up to now is       17.2 secs

     total energy              =    -325.64881758 Ry
     estimated scf accuracy    <       0.00029134 Ry

     iteration #  5     ecut=   370.00 Ry     beta= 0.70
     Davidson diagonalization with overlap
     ethr =  1.04E-06,  avg # of iterations =  3.9

     total cpu time spent up to now is       20.2 secs

     total energy              =    -325.64990259 Ry
     estimated scf accuracy    <       0.00008137 Ry

     iteration #  6     ecut=   370.00 Ry     beta= 0.70
     Davidson diagonalization with overlap
     ethr =  2.91E-07,  avg # of iterations =  2.0

     total cpu time spent up to now is       22.6 secs

     total energy              =    -325.64993176 Ry
     estimated scf accuracy    <       0.00000404 Ry

     iteration #  7     ecut=   370.00 Ry     beta= 0.70
     Davidson diagonalization with overlap
     ethr =  1.44E-08,  avg # of iterations =  3.5

     total cpu time spent up to now is       25.4 secs

     total energy              =    -325.64994376 Ry
     estimated scf accuracy    <       0.00000042 Ry

     iteration #  8     ecut=   370.00 Ry     beta= 0.70
     Davidson diagonalization with overlap
     ethr =  1.48E-09,  avg # of iterations =  2.2

     total cpu time spent up to now is       27.9 secs

     End of self-consistent calculation

     Number of k-points >= 100: set verbosity='high' to print the bands.

     highest occupied level (ev):     5.9735

!    total energy              =    -325.64994412 Ry
     estimated scf accuracy    <       0.00000005 Ry

     The total energy is the sum of the following terms:
     one-electron contribution =    -166.89965162 Ry
     hartree contribution      =      99.19602166 Ry
     xc contribution           =     -95.06005909 Ry
     ewald contribution        =    -162.88625506 Ry

     convergence has been achieved in   8 iterations

     Writing all to output data dir ./alpha-EOS/alpha.save/ :
     XML data file, charge density, pseudopotentials, collected wavefunctions

     init_run     :      2.66s CPU      2.75s WALL (       1 calls)
     electrons    :     24.47s CPU     25.04s WALL (       1 calls)

     Called by init_run:
     wfcinit      :      1.02s CPU      1.04s WALL (       1 calls)
     potinit      :      0.09s CPU      0.10s WALL (       1 calls)
     hinit0       :      0.90s CPU      0.91s WALL (       1 calls)

     Called by electrons:
     c_bands      :     19.84s CPU     20.18s WALL (       9 calls)
     sum_band     :      3.78s CPU      3.85s WALL (       9 calls)
     v_of_rho     :      0.55s CPU      0.59s WALL (       9 calls)
     newd         :      0.24s CPU      0.26s WALL (       9 calls)
     mix_rho      :      0.08s CPU      0.08s WALL (       9 calls)

     Called by c_bands:
     init_us_2    :      0.53s CPU      0.56s WALL (     494 calls)
     cegterg      :     18.65s CPU     18.82s WALL (     234 calls)

     Called by *egterg:
     cdiaghg      :      0.38s CPU      0.38s WALL (    1027 calls)
     h_psi        :     16.78s CPU     16.95s WALL (    1079 calls)
     s_psi        :      0.35s CPU      0.36s WALL (    1079 calls)
     g_psi        :      0.05s CPU      0.05s WALL (     819 calls)

     Called by h_psi:
     h_psi:calbec :      0.93s CPU      0.94s WALL (    1079 calls)
     vloc_psi     :     15.30s CPU     15.46s WALL (    1079 calls)
     add_vuspsi   :      0.41s CPU      0.42s WALL (    1079 calls)

     General routines
     calbec       :      1.09s CPU      1.10s WALL (    1313 calls)
     fft          :      1.13s CPU      1.17s WALL (     100 calls)
     ffts         :      0.03s CPU      0.03s WALL (       9 calls)
     fftw         :     15.51s CPU     15.66s WALL (   20994 calls)

     Parallel routines

     PWSCF        :     27.85s CPU     30.66s WALL


   This run was terminated on:  23:53:35  25Feb2026            

=------------------------------------------------------------------------------=
   JOB DONE.
=------------------------------------------------------------------------------=
