
     Program PWSCF v.7.3.1 starts on 25Feb2026 at 23:53:38 

     This program is part of the open-source Quantum ESPRESSO suite
     for quantum simulation of materials; please cite
         "P. Giannozzi et al., J. Phys.:Condens. Matter 21 395502 (2009);
         "P. Giannozzi et al., J. Phys.:Condens. Matter 29 465901 (2017);
         "P. Giannozzi et al., J. Chem. Phys. 152 154105 (2020);
          URL http://www.quantum-espresso.org", 
     in publications or presentations arising from this work. More details at
     http://www.quantum-espresso.org/quote

     Parallel version (MPI), running on   128 processors

     MPI processes distributed on     1 nodes
     236366 MiB available memory on the printing compute node when the environment starts

     Waiting for input...
     Reading input from standard input
     Message from routine read_cards :
     DEPRECATED: no units specified in ATOMIC_POSITIONS card
     Message from routine read_cards :
     ATOMIC_POSITIONS: units set to alat

     Current dimensions of program PWSCF are:
     Max number of different atomic species (ntypx) = 10
     Max number of k-points (npk) =  40000
     Max angular momentum in pseudopotentials (lmaxx) =  4

     K-points division:     npool     =       4
     R & G space division:  proc/nbgrp/npool/nimage =      32
     Subspace diagonalization in iterative solution of the eigenvalue problem:
     a serial algorithm will be used


     Parallelization info
     --------------------
     sticks:   dense  smooth     PW     G-vecs:    dense   smooth      PW
     Min         269     269     71                16473    16473    2264
     Max         270     270     72                16476    16476    2267
     Sum        8617    8617   2299               527203   527203   72497

     Using Slab Decomposition



     bravais-lattice index     =            2
     lattice parameter (alat)  =      12.9883  a.u.
     unit-cell volume          =     547.7633 (a.u.)^3
     number of atoms/cell      =            2
     number of atomic types    =            1
     number of electrons       =        28.00
     number of Kohn-Sham states=           14
     kinetic-energy cutoff     =     370.0000  Ry
     charge density cutoff     =    1480.0000  Ry
     scf convergence threshold =      1.0E-07
     mixing beta               =       0.7000
     number of iterations used =            8  plain     mixing
     Exchange-correlation=  SLA  PW   GGX  GGC
                           (   1   4   2   2   0   0   0)

     celldm(1)=  12.988260  celldm(2)=   0.000000  celldm(3)=   0.000000
     celldm(4)=   0.000000  celldm(5)=   0.000000  celldm(6)=   0.000000

     crystal axes: (cart. coord. in units of alat)
               a(1) = (  -0.500000   0.000000   0.500000 )  
               a(2) = (   0.000000   0.500000   0.500000 )  
               a(3) = (  -0.500000   0.500000   0.000000 )  

     reciprocal axes: (cart. coord. in units 2 pi/alat)
               b(1) = ( -1.000000 -1.000000  1.000000 )  
               b(2) = (  1.000000  1.000000  1.000000 )  
               b(3) = ( -1.000000  1.000000 -1.000000 )  


     PseudoPot. # 1 for Sn read from file:
     ./Sn.pw91-n-van.UPF
     MD5 check sum: a38d2a872edd1a4efd76c0a1a38f7031
     Pseudo is Ultrasoft + core correction, Zval = 14.0
     Generated by new atomic code, or converted to UPF format
     Using radial grid of  891 points,  6 beta functions with: 
                l(1) =   0
                l(2) =   0
                l(3) =   1
                l(4) =   1
                l(5) =   2
                l(6) =   2
     Q(r) pseudized with  8 coefficients,  rinner =    1.100   1.100   1.100
                                                       1.100   1.100

     atomic species   valence    mass     pseudopotential
     Sn               14.00   118.70000     Sn( 1.00)

     48 Sym. Ops., with inversion, found (24 have fractional translation)



   Cartesian axes

     site n.     atom                  positions (alat units)
         1        Sn     tau(   1) = (   0.0000000   0.0000000   0.0000000  )
         2        Sn     tau(   2) = (   0.2500000   0.2500000   0.2500000  )

     number of k points=   104

     Number of k-points >= 100: set verbosity='high' to print them.

     Dense  grid:   527203 G-vectors     FFT dimensions: ( 120, 120, 120)

     Estimated max dynamical RAM per process >      38.89 MB

     Estimated total dynamical RAM >       4.48 GB

     Initial potential from superposition of free atoms

     starting charge      27.9964, renormalised to      28.0000

     negative rho (up, down):  2.247E-06 0.000E+00
     Starting wfcs are   18 randomized atomic wfcs

     total cpu time spent up to now is        3.0 secs

     per-process dynamical memory:    34.6 Mb

     Self-consistent Calculation

     iteration #  1     ecut=   370.00 Ry     beta= 0.70
     Davidson diagonalization with overlap
     ethr =  1.00E-02,  avg # of iterations =  2.4

     Threshold (ethr) on eigenvalues was too large:
     Diagonalizing with lowered threshold

     Davidson diagonalization with overlap
     ethr =  5.90E-05,  avg # of iterations =  4.4

     negative rho (up, down):  4.292E-07 0.000E+00

     total cpu time spent up to now is        8.6 secs

     total energy              =    -325.59295324 Ry
     estimated scf accuracy    <       0.01924109 Ry

     iteration #  2     ecut=   370.00 Ry     beta= 0.70
     Davidson diagonalization with overlap
     ethr =  6.87E-05,  avg # of iterations =  4.7

     total cpu time spent up to now is       12.2 secs

     total energy              =    -325.61861986 Ry
     estimated scf accuracy    <       0.01758561 Ry

     iteration #  3     ecut=   370.00 Ry     beta= 0.70
     Davidson diagonalization with overlap
     ethr =  6.28E-05,  avg # of iterations =  2.1

     total cpu time spent up to now is       14.7 secs

     total energy              =    -325.63864788 Ry
     estimated scf accuracy    <       0.00790736 Ry

     iteration #  4     ecut=   370.00 Ry     beta= 0.70
     Davidson diagonalization with overlap
     ethr =  2.82E-05,  avg # of iterations =  2.1

     total cpu time spent up to now is       17.2 secs

     total energy              =    -325.64848236 Ry
     estimated scf accuracy    <       0.00030585 Ry

     iteration #  5     ecut=   370.00 Ry     beta= 0.70
     Davidson diagonalization with overlap
     ethr =  1.09E-06,  avg # of iterations =  3.8

     total cpu time spent up to now is       20.2 secs

     total energy              =    -325.64931652 Ry
     estimated scf accuracy    <       0.00008905 Ry

     iteration #  6     ecut=   370.00 Ry     beta= 0.70
     Davidson diagonalization with overlap
     ethr =  3.18E-07,  avg # of iterations =  2.0

     total cpu time spent up to now is       22.6 secs

     total energy              =    -325.64932956 Ry
     estimated scf accuracy    <       0.00000308 Ry

     iteration #  7     ecut=   370.00 Ry     beta= 0.70
     Davidson diagonalization with overlap
     ethr =  1.10E-08,  avg # of iterations =  3.7

     total cpu time spent up to now is       25.5 secs

     total energy              =    -325.64933853 Ry
     estimated scf accuracy    <       0.00000059 Ry

     iteration #  8     ecut=   370.00 Ry     beta= 0.70
     Davidson diagonalization with overlap
     ethr =  2.12E-09,  avg # of iterations =  2.1

     total cpu time spent up to now is       27.9 secs

     End of self-consistent calculation

     Number of k-points >= 100: set verbosity='high' to print the bands.

     highest occupied level (ev):     5.9137

!    total energy              =    -325.64933869 Ry
     estimated scf accuracy    <       0.00000005 Ry

     The total energy is the sum of the following terms:
     one-electron contribution =    -167.40468060 Ry
     hartree contribution      =      99.39011021 Ry
     xc contribution           =     -95.05526703 Ry
     ewald contribution        =    -162.57950128 Ry

     convergence has been achieved in   8 iterations

     Writing all to output data dir ./alpha-EOS/alpha.save/ :
     XML data file, charge density, pseudopotentials, collected wavefunctions

     init_run     :      2.58s CPU      2.68s WALL (       1 calls)
     electrons    :     24.58s CPU     25.10s WALL (       1 calls)

     Called by init_run:
     wfcinit      :      1.00s CPU      1.05s WALL (       1 calls)
     potinit      :      0.08s CPU      0.10s WALL (       1 calls)
     hinit0       :      0.90s CPU      0.91s WALL (       1 calls)

     Called by electrons:
     c_bands      :     19.93s CPU     20.24s WALL (       9 calls)
     sum_band     :      3.80s CPU      3.85s WALL (       9 calls)
     v_of_rho     :      0.55s CPU      0.59s WALL (       9 calls)
     newd         :      0.23s CPU      0.25s WALL (       9 calls)
     mix_rho      :      0.08s CPU      0.08s WALL (       9 calls)

     Called by c_bands:
     init_us_2    :      0.54s CPU      0.56s WALL (     494 calls)
     cegterg      :     18.70s CPU     18.86s WALL (     234 calls)

     Called by *egterg:
     cdiaghg      :      0.37s CPU      0.38s WALL (    1021 calls)
     h_psi        :     16.83s CPU     17.00s WALL (    1073 calls)
     s_psi        :      0.35s CPU      0.35s WALL (    1073 calls)
     g_psi        :      0.05s CPU      0.05s WALL (     813 calls)

     Called by h_psi:
     h_psi:calbec :      0.94s CPU      0.96s WALL (    1073 calls)
     vloc_psi     :     15.34s CPU     15.49s WALL (    1073 calls)
     add_vuspsi   :      0.42s CPU      0.42s WALL (    1073 calls)

     General routines
     calbec       :      1.11s CPU      1.13s WALL (    1307 calls)
     fft          :      1.13s CPU      1.17s WALL (     100 calls)
     ffts         :      0.03s CPU      0.03s WALL (       9 calls)
     fftw         :     15.55s CPU     15.68s WALL (   20984 calls)

     Parallel routines

     PWSCF        :     27.83s CPU     30.83s WALL


   This run was terminated on:  23:54: 9  25Feb2026            

=------------------------------------------------------------------------------=
   JOB DONE.
=------------------------------------------------------------------------------=
