
     Program PWSCF v.7.3.1 starts on 25Feb2026 at 23:54:49 

     This program is part of the open-source Quantum ESPRESSO suite
     for quantum simulation of materials; please cite
         "P. Giannozzi et al., J. Phys.:Condens. Matter 21 395502 (2009);
         "P. Giannozzi et al., J. Phys.:Condens. Matter 29 465901 (2017);
         "P. Giannozzi et al., J. Chem. Phys. 152 154105 (2020);
          URL http://www.quantum-espresso.org", 
     in publications or presentations arising from this work. More details at
     http://www.quantum-espresso.org/quote

     Parallel version (MPI), running on   128 processors

     MPI processes distributed on     1 nodes
     236352 MiB available memory on the printing compute node when the environment starts

     Waiting for input...
     Reading input from standard input
     Message from routine read_cards :
     DEPRECATED: no units specified in ATOMIC_POSITIONS card
     Message from routine read_cards :
     ATOMIC_POSITIONS: units set to alat

     Current dimensions of program PWSCF are:
     Max number of different atomic species (ntypx) = 10
     Max number of k-points (npk) =  40000
     Max angular momentum in pseudopotentials (lmaxx) =  4

     K-points division:     npool     =       4
     R & G space division:  proc/nbgrp/npool/nimage =      32
     Subspace diagonalization in iterative solution of the eigenvalue problem:
     a serial algorithm will be used


     Parallelization info
     --------------------
     sticks:   dense  smooth     PW     G-vecs:    dense   smooth      PW
     Min         271     271     72                16658    16658    2299
     Max         273     273     74                16659    16659    2301
     Sum        8689    8689   2335               533067   533067   73601

     Using Slab Decomposition



     bravais-lattice index     =            2
     lattice parameter (alat)  =      13.0372  a.u.
     unit-cell volume          =     553.9761 (a.u.)^3
     number of atoms/cell      =            2
     number of atomic types    =            1
     number of electrons       =        28.00
     number of Kohn-Sham states=           14
     kinetic-energy cutoff     =     370.0000  Ry
     charge density cutoff     =    1480.0000  Ry
     scf convergence threshold =      1.0E-07
     mixing beta               =       0.7000
     number of iterations used =            8  plain     mixing
     Exchange-correlation=  SLA  PW   GGX  GGC
                           (   1   4   2   2   0   0   0)

     celldm(1)=  13.037180  celldm(2)=   0.000000  celldm(3)=   0.000000
     celldm(4)=   0.000000  celldm(5)=   0.000000  celldm(6)=   0.000000

     crystal axes: (cart. coord. in units of alat)
               a(1) = (  -0.500000   0.000000   0.500000 )  
               a(2) = (   0.000000   0.500000   0.500000 )  
               a(3) = (  -0.500000   0.500000   0.000000 )  

     reciprocal axes: (cart. coord. in units 2 pi/alat)
               b(1) = ( -1.000000 -1.000000  1.000000 )  
               b(2) = (  1.000000  1.000000  1.000000 )  
               b(3) = ( -1.000000  1.000000 -1.000000 )  


     PseudoPot. # 1 for Sn read from file:
     ./Sn.pw91-n-van.UPF
     MD5 check sum: a38d2a872edd1a4efd76c0a1a38f7031
     Pseudo is Ultrasoft + core correction, Zval = 14.0
     Generated by new atomic code, or converted to UPF format
     Using radial grid of  891 points,  6 beta functions with: 
                l(1) =   0
                l(2) =   0
                l(3) =   1
                l(4) =   1
                l(5) =   2
                l(6) =   2
     Q(r) pseudized with  8 coefficients,  rinner =    1.100   1.100   1.100
                                                       1.100   1.100

     atomic species   valence    mass     pseudopotential
     Sn               14.00   118.70000     Sn( 1.00)

     48 Sym. Ops., with inversion, found (24 have fractional translation)



   Cartesian axes

     site n.     atom                  positions (alat units)
         1        Sn     tau(   1) = (   0.0000000   0.0000000   0.0000000  )
         2        Sn     tau(   2) = (   0.2500000   0.2500000   0.2500000  )

     number of k points=   104

     Number of k-points >= 100: set verbosity='high' to print them.

     Dense  grid:   533067 G-vectors     FFT dimensions: ( 120, 120, 120)

     Estimated max dynamical RAM per process >      39.24 MB

     Estimated total dynamical RAM >       4.52 GB

     Initial potential from superposition of free atoms

     starting charge      27.9964, renormalised to      28.0000

     negative rho (up, down):  2.413E-06 0.000E+00
     Starting wfcs are   18 randomized atomic wfcs

     total cpu time spent up to now is        3.0 secs

     per-process dynamical memory:    34.6 Mb

     Self-consistent Calculation

     iteration #  1     ecut=   370.00 Ry     beta= 0.70
     Davidson diagonalization with overlap
     ethr =  1.00E-02,  avg # of iterations =  2.4

     Threshold (ethr) on eigenvalues was too large:
     Diagonalizing with lowered threshold

     Davidson diagonalization with overlap
     ethr =  5.91E-05,  avg # of iterations =  4.3

     negative rho (up, down):  7.448E-07 0.000E+00

     total cpu time spent up to now is        8.6 secs

     total energy              =    -325.59329734 Ry
     estimated scf accuracy    <       0.01930992 Ry

     iteration #  2     ecut=   370.00 Ry     beta= 0.70
     Davidson diagonalization with overlap
     ethr =  6.90E-05,  avg # of iterations =  4.5

     total cpu time spent up to now is       12.3 secs

     total energy              =    -325.61590754 Ry
     estimated scf accuracy    <       0.01663593 Ry

     iteration #  3     ecut=   370.00 Ry     beta= 0.70
     Davidson diagonalization with overlap
     ethr =  5.94E-05,  avg # of iterations =  2.3

     total cpu time spent up to now is       14.9 secs

     total energy              =    -325.63436522 Ry
     estimated scf accuracy    <       0.00771265 Ry

     iteration #  4     ecut=   370.00 Ry     beta= 0.70
     Davidson diagonalization with overlap
     ethr =  2.75E-05,  avg # of iterations =  2.0

     total cpu time spent up to now is       17.4 secs

     total energy              =    -325.64678253 Ry
     estimated scf accuracy    <       0.00069087 Ry

     iteration #  5     ecut=   370.00 Ry     beta= 0.70
     Davidson diagonalization with overlap
     ethr =  2.47E-06,  avg # of iterations =  3.7

     total cpu time spent up to now is       20.3 secs

     total energy              =    -325.64802637 Ry
     estimated scf accuracy    <       0.00009276 Ry

     iteration #  6     ecut=   370.00 Ry     beta= 0.70
     Davidson diagonalization with overlap
     ethr =  3.31E-07,  avg # of iterations =  2.0

     total cpu time spent up to now is       22.7 secs

     total energy              =    -325.64803383 Ry
     estimated scf accuracy    <       0.00000785 Ry

     iteration #  7     ecut=   370.00 Ry     beta= 0.70
     Davidson diagonalization with overlap
     ethr =  2.80E-08,  avg # of iterations =  3.1

     total cpu time spent up to now is       25.5 secs

     total energy              =    -325.64804537 Ry
     estimated scf accuracy    <       0.00000063 Ry

     iteration #  8     ecut=   370.00 Ry     beta= 0.70
     Davidson diagonalization with overlap
     ethr =  2.25E-09,  avg # of iterations =  2.5

     total cpu time spent up to now is       28.1 secs

     total energy              =    -325.64804564 Ry
     estimated scf accuracy    <       0.00000012 Ry

     iteration #  9     ecut=   370.00 Ry     beta= 0.70
     Davidson diagonalization with overlap
     ethr =  4.45E-10,  avg # of iterations =  2.1

     total cpu time spent up to now is       30.7 secs

     End of self-consistent calculation

     Number of k-points >= 100: set verbosity='high' to print the bands.

     highest occupied level (ev):     5.7949

!    total energy              =    -325.64804565 Ry
     estimated scf accuracy    <          2.2E-10 Ry

     The total energy is the sum of the following terms:
     one-electron contribution =    -168.41048829 Ry
     hartree contribution      =      99.77787347 Ry
     xc contribution           =     -95.04598396 Ry
     ewald contribution        =    -161.96944687 Ry

     convergence has been achieved in   9 iterations

     Writing all to output data dir ./alpha-EOS/alpha.save/ :
     XML data file, charge density, pseudopotentials, collected wavefunctions

     init_run     :      2.61s CPU      2.74s WALL (       1 calls)
     electrons    :     27.15s CPU     27.74s WALL (       1 calls)

     Called by init_run:
     wfcinit      :      1.04s CPU      1.07s WALL (       1 calls)
     potinit      :      0.07s CPU      0.11s WALL (       1 calls)
     hinit0       :      0.89s CPU      0.91s WALL (       1 calls)

     Called by electrons:
     c_bands      :     21.94s CPU     22.32s WALL (      10 calls)
     sum_band     :      4.24s CPU      4.31s WALL (      10 calls)
     v_of_rho     :      0.60s CPU      0.66s WALL (      10 calls)
     newd         :      0.26s CPU      0.29s WALL (      10 calls)
     mix_rho      :      0.09s CPU      0.10s WALL (      10 calls)

     Called by c_bands:
     init_us_2    :      0.61s CPU      0.64s WALL (     546 calls)
     cegterg      :     20.56s CPU     20.76s WALL (     260 calls)

     Called by *egterg:
     cdiaghg      :      0.40s CPU      0.40s WALL (    1111 calls)
     h_psi        :     18.49s CPU     18.68s WALL (    1163 calls)
     s_psi        :      0.38s CPU      0.38s WALL (    1163 calls)
     g_psi        :      0.05s CPU      0.05s WALL (     877 calls)

     Called by h_psi:
     h_psi:calbec :      1.03s CPU      1.04s WALL (    1163 calls)
     vloc_psi     :     16.86s CPU     17.03s WALL (    1163 calls)
     add_vuspsi   :      0.45s CPU      0.46s WALL (    1163 calls)

     General routines
     calbec       :      1.22s CPU      1.24s WALL (    1423 calls)
     fft          :      1.16s CPU      1.21s WALL (     111 calls)
     ffts         :      0.03s CPU      0.03s WALL (      10 calls)
     fftw         :     17.20s CPU     17.36s WALL (   22884 calls)

     Parallel routines

     PWSCF        :     30.45s CPU     33.31s WALL


   This run was terminated on:  23:55:22  25Feb2026            

=------------------------------------------------------------------------------=
   JOB DONE.
=------------------------------------------------------------------------------=
