
     Program PWSCF v.7.3.1 starts on 25Feb2026 at 23:55:29 

     This program is part of the open-source Quantum ESPRESSO suite
     for quantum simulation of materials; please cite
         "P. Giannozzi et al., J. Phys.:Condens. Matter 21 395502 (2009);
         "P. Giannozzi et al., J. Phys.:Condens. Matter 29 465901 (2017);
         "P. Giannozzi et al., J. Chem. Phys. 152 154105 (2020);
          URL http://www.quantum-espresso.org", 
     in publications or presentations arising from this work. More details at
     http://www.quantum-espresso.org/quote

     Parallel version (MPI), running on   128 processors

     MPI processes distributed on     1 nodes
     236495 MiB available memory on the printing compute node when the environment starts

     Waiting for input...
     Reading input from standard input
     Message from routine read_cards :
     DEPRECATED: no units specified in ATOMIC_POSITIONS card
     Message from routine read_cards :
     ATOMIC_POSITIONS: units set to alat

     Current dimensions of program PWSCF are:
     Max number of different atomic species (ntypx) = 10
     Max number of k-points (npk) =  40000
     Max angular momentum in pseudopotentials (lmaxx) =  4

     K-points division:     npool     =       4
     R & G space division:  proc/nbgrp/npool/nimage =      32
     Subspace diagonalization in iterative solution of the eigenvalue problem:
     a serial algorithm will be used


     Parallelization info
     --------------------
     sticks:   dense  smooth     PW     G-vecs:    dense   smooth      PW
     Min         271     271     72                16741    16741    2307
     Max         272     272     73                16748    16748    2310
     Sum        8689    8689   2335               535827   535827   73889

     Using Slab Decomposition



     bravais-lattice index     =            2
     lattice parameter (alat)  =      13.0616  a.u.
     unit-cell volume          =     557.1000 (a.u.)^3
     number of atoms/cell      =            2
     number of atomic types    =            1
     number of electrons       =        28.00
     number of Kohn-Sham states=           14
     kinetic-energy cutoff     =     370.0000  Ry
     charge density cutoff     =    1480.0000  Ry
     scf convergence threshold =      1.0E-07
     mixing beta               =       0.7000
     number of iterations used =            8  plain     mixing
     Exchange-correlation=  SLA  PW   GGX  GGC
                           (   1   4   2   2   0   0   0)

     celldm(1)=  13.061640  celldm(2)=   0.000000  celldm(3)=   0.000000
     celldm(4)=   0.000000  celldm(5)=   0.000000  celldm(6)=   0.000000

     crystal axes: (cart. coord. in units of alat)
               a(1) = (  -0.500000   0.000000   0.500000 )  
               a(2) = (   0.000000   0.500000   0.500000 )  
               a(3) = (  -0.500000   0.500000   0.000000 )  

     reciprocal axes: (cart. coord. in units 2 pi/alat)
               b(1) = ( -1.000000 -1.000000  1.000000 )  
               b(2) = (  1.000000  1.000000  1.000000 )  
               b(3) = ( -1.000000  1.000000 -1.000000 )  


     PseudoPot. # 1 for Sn read from file:
     ./Sn.pw91-n-van.UPF
     MD5 check sum: a38d2a872edd1a4efd76c0a1a38f7031
     Pseudo is Ultrasoft + core correction, Zval = 14.0
     Generated by new atomic code, or converted to UPF format
     Using radial grid of  891 points,  6 beta functions with: 
                l(1) =   0
                l(2) =   0
                l(3) =   1
                l(4) =   1
                l(5) =   2
                l(6) =   2
     Q(r) pseudized with  8 coefficients,  rinner =    1.100   1.100   1.100
                                                       1.100   1.100

     atomic species   valence    mass     pseudopotential
     Sn               14.00   118.70000     Sn( 1.00)

     48 Sym. Ops., with inversion, found (24 have fractional translation)



   Cartesian axes

     site n.     atom                  positions (alat units)
         1        Sn     tau(   1) = (   0.0000000   0.0000000   0.0000000  )
         2        Sn     tau(   2) = (   0.2500000   0.2500000   0.2500000  )

     number of k points=   104

     Number of k-points >= 100: set verbosity='high' to print them.

     Dense  grid:   535827 G-vectors     FFT dimensions: ( 120, 120, 120)

     Estimated max dynamical RAM per process >      39.41 MB

     Estimated total dynamical RAM >       4.54 GB

     Initial potential from superposition of free atoms

     starting charge      27.9964, renormalised to      28.0000
     Starting wfcs are   18 randomized atomic wfcs

     total cpu time spent up to now is        3.0 secs

     per-process dynamical memory:    34.7 Mb

     Self-consistent Calculation

     iteration #  1     ecut=   370.00 Ry     beta= 0.70
     Davidson diagonalization with overlap
     ethr =  1.00E-02,  avg # of iterations =  2.3

     Threshold (ethr) on eigenvalues was too large:
     Diagonalizing with lowered threshold

     Davidson diagonalization with overlap
     ethr =  5.84E-05,  avg # of iterations =  4.5

     negative rho (up, down):  7.039E-07 0.000E+00

     total cpu time spent up to now is        8.7 secs

     total energy              =    -325.59495682 Ry
     estimated scf accuracy    <       0.01945620 Ry

     iteration #  2     ecut=   370.00 Ry     beta= 0.70
     Davidson diagonalization with overlap
     ethr =  6.95E-05,  avg # of iterations =  4.5

     total cpu time spent up to now is       12.4 secs

     total energy              =    -325.61623494 Ry
     estimated scf accuracy    <       0.01607043 Ry

     iteration #  3     ecut=   370.00 Ry     beta= 0.70
     Davidson diagonalization with overlap
     ethr =  5.74E-05,  avg # of iterations =  2.3

     total cpu time spent up to now is       15.0 secs

     total energy              =    -325.63392821 Ry
     estimated scf accuracy    <       0.00742593 Ry

     iteration #  4     ecut=   370.00 Ry     beta= 0.70
     Davidson diagonalization with overlap
     ethr =  2.65E-05,  avg # of iterations =  2.0

     total cpu time spent up to now is       17.4 secs

     total energy              =    -325.64615226 Ry
     estimated scf accuracy    <       0.00062532 Ry

     iteration #  5     ecut=   370.00 Ry     beta= 0.70
     Davidson diagonalization with overlap
     ethr =  2.23E-06,  avg # of iterations =  3.5

     total cpu time spent up to now is       20.4 secs

     total energy              =    -325.64691224 Ry
     estimated scf accuracy    <       0.00010493 Ry

     iteration #  6     ecut=   370.00 Ry     beta= 0.70
     Davidson diagonalization with overlap
     ethr =  3.75E-07,  avg # of iterations =  2.0

     total cpu time spent up to now is       22.8 secs

     total energy              =    -325.64691287 Ry
     estimated scf accuracy    <       0.00000454 Ry

     iteration #  7     ecut=   370.00 Ry     beta= 0.70
     Davidson diagonalization with overlap
     ethr =  1.62E-08,  avg # of iterations =  3.9

     total cpu time spent up to now is       25.8 secs

     total energy              =    -325.64734678 Ry
     estimated scf accuracy    <       0.00000335 Ry

     iteration #  8     ecut=   370.00 Ry     beta= 0.70
     Davidson diagonalization with overlap
     ethr =  1.20E-08,  avg # of iterations =  1.0

     total cpu time spent up to now is       28.0 secs

     total energy              =    -325.64735910 Ry
     estimated scf accuracy    <       0.00000074 Ry

     iteration #  9     ecut=   370.00 Ry     beta= 0.70
     Davidson diagonalization with overlap
     ethr =  2.63E-09,  avg # of iterations =  2.1

     total cpu time spent up to now is       30.5 secs

     End of self-consistent calculation

     Number of k-points >= 100: set verbosity='high' to print the bands.

     highest occupied level (ev):     5.7374

!    total energy              =    -325.64735924 Ry
     estimated scf accuracy    <       0.00000008 Ry

     The total energy is the sum of the following terms:
     one-electron contribution =    -168.90981000 Ry
     hartree contribution      =      99.96976452 Ry
     xc contribution           =     -95.04118046 Ry
     ewald contribution        =    -161.66613330 Ry

     convergence has been achieved in   9 iterations

     Writing all to output data dir ./alpha-EOS/alpha.save/ :
     XML data file, charge density, pseudopotentials, collected wavefunctions

     init_run     :      2.65s CPU      2.75s WALL (       1 calls)
     electrons    :     27.07s CPU     27.59s WALL (       1 calls)

     Called by init_run:
     wfcinit      :      1.01s CPU      1.05s WALL (       1 calls)
     potinit      :      0.10s CPU      0.11s WALL (       1 calls)
     hinit0       :      0.90s CPU      0.92s WALL (       1 calls)

     Called by electrons:
     c_bands      :     21.86s CPU     22.17s WALL (      10 calls)
     sum_band     :      4.26s CPU      4.32s WALL (      10 calls)
     v_of_rho     :      0.61s CPU      0.66s WALL (      10 calls)
     newd         :      0.27s CPU      0.29s WALL (      10 calls)
     mix_rho      :      0.10s CPU      0.10s WALL (      10 calls)

     Called by c_bands:
     init_us_2    :      0.63s CPU      0.66s WALL (     546 calls)
     cegterg      :     20.43s CPU     20.58s WALL (     260 calls)

     Called by *egterg:
     cdiaghg      :      0.39s CPU      0.40s WALL (    1086 calls)
     h_psi        :     18.36s CPU     18.51s WALL (    1138 calls)
     s_psi        :      0.38s CPU      0.38s WALL (    1138 calls)
     g_psi        :      0.05s CPU      0.05s WALL (     852 calls)

     Called by h_psi:
     h_psi:calbec :      1.02s CPU      1.03s WALL (    1138 calls)
     vloc_psi     :     16.74s CPU     16.87s WALL (    1138 calls)
     add_vuspsi   :      0.46s CPU      0.46s WALL (    1138 calls)

     General routines
     calbec       :      1.21s CPU      1.22s WALL (    1398 calls)
     fft          :      1.16s CPU      1.20s WALL (     111 calls)
     ffts         :      0.03s CPU      0.03s WALL (      10 calls)
     fftw         :     17.03s CPU     17.17s WALL (   22810 calls)

     Parallel routines

     PWSCF        :     30.87s CPU     33.62s WALL


   This run was terminated on:  23:56: 2  25Feb2026            

=------------------------------------------------------------------------------=
   JOB DONE.
=------------------------------------------------------------------------------=
