
     Program PWSCF v.7.3.1 starts on 26Feb2026 at  0: 0:26 

     This program is part of the open-source Quantum ESPRESSO suite
     for quantum simulation of materials; please cite
         "P. Giannozzi et al., J. Phys.:Condens. Matter 21 395502 (2009);
         "P. Giannozzi et al., J. Phys.:Condens. Matter 29 465901 (2017);
         "P. Giannozzi et al., J. Chem. Phys. 152 154105 (2020);
          URL http://www.quantum-espresso.org", 
     in publications or presentations arising from this work. More details at
     http://www.quantum-espresso.org/quote

     Parallel version (MPI), running on   128 processors

     MPI processes distributed on     1 nodes
     236305 MiB available memory on the printing compute node when the environment starts

     Waiting for input...
     Reading input from standard input
     Message from routine read_cards :
     DEPRECATED: no units specified in ATOMIC_POSITIONS card
     Message from routine read_cards :
     ATOMIC_POSITIONS: units set to alat

     Current dimensions of program PWSCF are:
     Max number of different atomic species (ntypx) = 10
     Max number of k-points (npk) =  40000
     Max angular momentum in pseudopotentials (lmaxx) =  4

     K-points division:     npool     =       4
     R & G space division:  proc/nbgrp/npool/nimage =      32
     Subspace diagonalization in iterative solution of the eigenvalue problem:
     a serial algorithm will be used


     Parallelization info
     --------------------
     sticks:   dense  smooth     PW     G-vecs:    dense   smooth      PW
     Min         280     280     74                17514    17514    2412
     Max         281     281     75                17517    17517    2415
     Sum        8971    8971   2395               560529   560529   77233

     Using Slab Decomposition



     bravais-lattice index     =            2
     lattice parameter (alat)  =      13.2573  a.u.
     unit-cell volume          =     582.5152 (a.u.)^3
     number of atoms/cell      =            2
     number of atomic types    =            1
     number of electrons       =        28.00
     number of Kohn-Sham states=           14
     kinetic-energy cutoff     =     370.0000  Ry
     charge density cutoff     =    1480.0000  Ry
     scf convergence threshold =      1.0E-07
     mixing beta               =       0.7000
     number of iterations used =            8  plain     mixing
     Exchange-correlation=  SLA  PW   GGX  GGC
                           (   1   4   2   2   0   0   0)

     celldm(1)=  13.257320  celldm(2)=   0.000000  celldm(3)=   0.000000
     celldm(4)=   0.000000  celldm(5)=   0.000000  celldm(6)=   0.000000

     crystal axes: (cart. coord. in units of alat)
               a(1) = (  -0.500000   0.000000   0.500000 )  
               a(2) = (   0.000000   0.500000   0.500000 )  
               a(3) = (  -0.500000   0.500000   0.000000 )  

     reciprocal axes: (cart. coord. in units 2 pi/alat)
               b(1) = ( -1.000000 -1.000000  1.000000 )  
               b(2) = (  1.000000  1.000000  1.000000 )  
               b(3) = ( -1.000000  1.000000 -1.000000 )  


     PseudoPot. # 1 for Sn read from file:
     ./Sn.pw91-n-van.UPF
     MD5 check sum: a38d2a872edd1a4efd76c0a1a38f7031
     Pseudo is Ultrasoft + core correction, Zval = 14.0
     Generated by new atomic code, or converted to UPF format
     Using radial grid of  891 points,  6 beta functions with: 
                l(1) =   0
                l(2) =   0
                l(3) =   1
                l(4) =   1
                l(5) =   2
                l(6) =   2
     Q(r) pseudized with  8 coefficients,  rinner =    1.100   1.100   1.100
                                                       1.100   1.100

     atomic species   valence    mass     pseudopotential
     Sn               14.00   118.70000     Sn( 1.00)

     48 Sym. Ops., with inversion, found (24 have fractional translation)



   Cartesian axes

     site n.     atom                  positions (alat units)
         1        Sn     tau(   1) = (   0.0000000   0.0000000   0.0000000  )
         2        Sn     tau(   2) = (   0.2500000   0.2500000   0.2500000  )

     number of k points=   104

     Number of k-points >= 100: set verbosity='high' to print them.

     Dense  grid:   560529 G-vectors     FFT dimensions: ( 120, 120, 120)

     Estimated max dynamical RAM per process >      40.90 MB

     Estimated total dynamical RAM >       4.71 GB

     Initial potential from superposition of free atoms

     starting charge      27.9964, renormalised to      28.0000

     negative rho (up, down):  4.150E-06 0.000E+00
     Starting wfcs are   18 randomized atomic wfcs

     total cpu time spent up to now is        3.2 secs

     per-process dynamical memory:    35.2 Mb

     Self-consistent Calculation

     iteration #  1     ecut=   370.00 Ry     beta= 0.70
     Davidson diagonalization with overlap
     ethr =  1.00E-02,  avg # of iterations =  2.2

     Threshold (ethr) on eigenvalues was too large:
     Diagonalizing with lowered threshold

     Davidson diagonalization with overlap
     ethr =  5.83E-05,  avg # of iterations =  4.5

     negative rho (up, down):  6.737E-07 0.000E+00

     total cpu time spent up to now is        8.9 secs

     total energy              =    -325.59939190 Ry
     estimated scf accuracy    <       0.01932497 Ry

     iteration #  2     ecut=   370.00 Ry     beta= 0.70
     Davidson diagonalization with overlap
     ethr =  6.90E-05,  avg # of iterations =  4.3

     total cpu time spent up to now is       12.6 secs

     total energy              =    -325.60821257 Ry
     estimated scf accuracy    <       0.01129487 Ry

     iteration #  3     ecut=   370.00 Ry     beta= 0.70
     Davidson diagonalization with overlap
     ethr =  4.03E-05,  avg # of iterations =  3.7

     total cpu time spent up to now is       15.5 secs

     total energy              =    -325.61522658 Ry
     estimated scf accuracy    <       0.00717878 Ry

     iteration #  4     ecut=   370.00 Ry     beta= 0.70
     Davidson diagonalization with overlap
     ethr =  2.56E-05,  avg # of iterations =  1.0

     total cpu time spent up to now is       17.7 secs

     total energy              =    -325.63881847 Ry
     estimated scf accuracy    <       0.00487241 Ry

     iteration #  5     ecut=   370.00 Ry     beta= 0.70
     Davidson diagonalization with overlap
     ethr =  1.74E-05,  avg # of iterations =  2.1

     total cpu time spent up to now is       20.2 secs

     total energy              =    -325.63988893 Ry
     estimated scf accuracy    <       0.00024405 Ry

     iteration #  6     ecut=   370.00 Ry     beta= 0.70
     Davidson diagonalization with overlap
     ethr =  8.72E-07,  avg # of iterations =  2.7

     total cpu time spent up to now is       23.1 secs

     total energy              =    -325.64060227 Ry
     estimated scf accuracy    <       0.00000702 Ry

     iteration #  7     ecut=   370.00 Ry     beta= 0.70
     Davidson diagonalization with overlap
     ethr =  2.51E-08,  avg # of iterations =  4.2

     total cpu time spent up to now is       26.7 secs

     total energy              =    -325.64098187 Ry
     estimated scf accuracy    <       0.00000631 Ry

     iteration #  8     ecut=   370.00 Ry     beta= 0.70
     Davidson diagonalization with overlap
     ethr =  2.25E-08,  avg # of iterations =  2.0

     total cpu time spent up to now is       29.2 secs

     total energy              =    -325.64098944 Ry
     estimated scf accuracy    <       0.00000067 Ry

     iteration #  9     ecut=   370.00 Ry     beta= 0.70
     Davidson diagonalization with overlap
     ethr =  2.39E-09,  avg # of iterations =  2.2

     total cpu time spent up to now is       32.2 secs

     total energy              =    -325.64098955 Ry
     estimated scf accuracy    <       0.00000013 Ry

     iteration # 10     ecut=   370.00 Ry     beta= 0.70
     Davidson diagonalization with overlap
     ethr =  4.57E-10,  avg # of iterations =  2.3

     total cpu time spent up to now is       34.8 secs

     End of self-consistent calculation

     Number of k-points >= 100: set verbosity='high' to print the bands.

     highest occupied level (ev):     5.2865

!    total energy              =    -325.64098957 Ry
     estimated scf accuracy    <          8.0E-10 Ry

     The total energy is the sum of the following terms:
     one-electron contribution =    -172.85320214 Ry
     hartree contribution      =     101.49778966 Ry
     xc contribution           =     -95.00565978 Ry
     ewald contribution        =    -159.27991731 Ry

     convergence has been achieved in  10 iterations

     Writing all to output data dir ./alpha-EOS/alpha.save/ :
     XML data file, charge density, pseudopotentials, collected wavefunctions

     init_run     :      2.73s CPU      2.81s WALL (       1 calls)
     electrons    :     31.17s CPU     31.79s WALL (       1 calls)

     Called by init_run:
     wfcinit      :      1.07s CPU      1.09s WALL (       1 calls)
     potinit      :      0.09s CPU      0.11s WALL (       1 calls)
     hinit0       :      0.89s CPU      0.91s WALL (       1 calls)

     Called by electrons:
     c_bands      :     25.20s CPU     25.57s WALL (      11 calls)
     sum_band     :      4.85s CPU      4.92s WALL (      11 calls)
     v_of_rho     :      0.69s CPU      0.73s WALL (      11 calls)
     newd         :      0.30s CPU      0.32s WALL (      11 calls)
     mix_rho      :      0.12s CPU      0.12s WALL (      11 calls)

     Called by c_bands:
     init_us_2    :      0.72s CPU      0.75s WALL (     598 calls)
     cegterg      :     23.46s CPU     23.66s WALL (     286 calls)

     Called by *egterg:
     cdiaghg      :      0.44s CPU      0.44s WALL (    1193 calls)
     h_psi        :     20.97s CPU     21.14s WALL (    1245 calls)
     s_psi        :      0.44s CPU      0.45s WALL (    1245 calls)
     g_psi        :      0.06s CPU      0.06s WALL (     933 calls)

     Called by h_psi:
     h_psi:calbec :      1.18s CPU      1.19s WALL (    1245 calls)
     vloc_psi     :     19.09s CPU     19.24s WALL (    1245 calls)
     add_vuspsi   :      0.53s CPU      0.54s WALL (    1245 calls)

     General routines
     calbec       :      1.40s CPU      1.42s WALL (    1531 calls)
     fft          :      1.19s CPU      1.25s WALL (     122 calls)
     ffts         :      0.04s CPU      0.04s WALL (      11 calls)
     fftw         :     19.45s CPU     19.61s WALL (   25648 calls)

     Parallel routines

     PWSCF        :     34.69s CPU     38.21s WALL


   This run was terminated on:   0: 1: 4  26Feb2026            

=------------------------------------------------------------------------------=
   JOB DONE.
=------------------------------------------------------------------------------=
