
     Program PWSCF v.7.3.1 starts on 26Feb2026 at  0: 1:48 

     This program is part of the open-source Quantum ESPRESSO suite
     for quantum simulation of materials; please cite
         "P. Giannozzi et al., J. Phys.:Condens. Matter 21 395502 (2009);
         "P. Giannozzi et al., J. Phys.:Condens. Matter 29 465901 (2017);
         "P. Giannozzi et al., J. Chem. Phys. 152 154105 (2020);
          URL http://www.quantum-espresso.org", 
     in publications or presentations arising from this work. More details at
     http://www.quantum-espresso.org/quote

     Parallel version (MPI), running on   128 processors

     MPI processes distributed on     1 nodes
     236264 MiB available memory on the printing compute node when the environment starts

     Waiting for input...
     Reading input from standard input
     Message from routine read_cards :
     DEPRECATED: no units specified in ATOMIC_POSITIONS card
     Message from routine read_cards :
     ATOMIC_POSITIONS: units set to alat

     Current dimensions of program PWSCF are:
     Max number of different atomic species (ntypx) = 10
     Max number of k-points (npk) =  40000
     Max angular momentum in pseudopotentials (lmaxx) =  4

     K-points division:     npool     =       4
     R & G space division:  proc/nbgrp/npool/nimage =      32
     Subspace diagonalization in iterative solution of the eigenvalue problem:
     a serial algorithm will be used


     Parallelization info
     --------------------
     sticks:   dense  smooth     PW     G-vecs:    dense   smooth      PW
     Min         282     282     75                17709    17709    2438
     Max         283     283     76                17712    17712    2441
     Sum        9031    9031   2407               566705   566705   78031

     Using Slab Decomposition



     bravais-lattice index     =            2
     lattice parameter (alat)  =      13.3062  a.u.
     unit-cell volume          =     588.9875 (a.u.)^3
     number of atoms/cell      =            2
     number of atomic types    =            1
     number of electrons       =        28.00
     number of Kohn-Sham states=           14
     kinetic-energy cutoff     =     370.0000  Ry
     charge density cutoff     =    1480.0000  Ry
     scf convergence threshold =      1.0E-07
     mixing beta               =       0.7000
     number of iterations used =            8  plain     mixing
     Exchange-correlation=  SLA  PW   GGX  GGC
                           (   1   4   2   2   0   0   0)

     celldm(1)=  13.306240  celldm(2)=   0.000000  celldm(3)=   0.000000
     celldm(4)=   0.000000  celldm(5)=   0.000000  celldm(6)=   0.000000

     crystal axes: (cart. coord. in units of alat)
               a(1) = (  -0.500000   0.000000   0.500000 )  
               a(2) = (   0.000000   0.500000   0.500000 )  
               a(3) = (  -0.500000   0.500000   0.000000 )  

     reciprocal axes: (cart. coord. in units 2 pi/alat)
               b(1) = ( -1.000000 -1.000000  1.000000 )  
               b(2) = (  1.000000  1.000000  1.000000 )  
               b(3) = ( -1.000000  1.000000 -1.000000 )  


     PseudoPot. # 1 for Sn read from file:
     ./Sn.pw91-n-van.UPF
     MD5 check sum: a38d2a872edd1a4efd76c0a1a38f7031
     Pseudo is Ultrasoft + core correction, Zval = 14.0
     Generated by new atomic code, or converted to UPF format
     Using radial grid of  891 points,  6 beta functions with: 
                l(1) =   0
                l(2) =   0
                l(3) =   1
                l(4) =   1
                l(5) =   2
                l(6) =   2
     Q(r) pseudized with  8 coefficients,  rinner =    1.100   1.100   1.100
                                                       1.100   1.100

     atomic species   valence    mass     pseudopotential
     Sn               14.00   118.70000     Sn( 1.00)

     48 Sym. Ops., with inversion, found (24 have fractional translation)



   Cartesian axes

     site n.     atom                  positions (alat units)
         1        Sn     tau(   1) = (   0.0000000   0.0000000   0.0000000  )
         2        Sn     tau(   2) = (   0.2500000   0.2500000   0.2500000  )

     number of k points=   104

     Number of k-points >= 100: set verbosity='high' to print them.

     Dense  grid:   566705 G-vectors     FFT dimensions: ( 120, 120, 120)

     Estimated max dynamical RAM per process >      41.28 MB

     Estimated total dynamical RAM >       4.75 GB

     Initial potential from superposition of free atoms

     starting charge      27.9964, renormalised to      28.0000

     negative rho (up, down):  1.951E-06 0.000E+00
     Starting wfcs are   18 randomized atomic wfcs

     total cpu time spent up to now is        3.1 secs

     per-process dynamical memory:    35.7 Mb

     Self-consistent Calculation

     iteration #  1     ecut=   370.00 Ry     beta= 0.70
     Davidson diagonalization with overlap
     ethr =  1.00E-02,  avg # of iterations =  2.3

     Threshold (ethr) on eigenvalues was too large:
     Diagonalizing with lowered threshold

     Davidson diagonalization with overlap
     ethr =  5.81E-05,  avg # of iterations =  4.5

     negative rho (up, down):  8.963E-07 0.000E+00

     total cpu time spent up to now is        9.0 secs

     total energy              =    -325.60210509 Ry
     estimated scf accuracy    <       0.01951307 Ry

     iteration #  2     ecut=   370.00 Ry     beta= 0.70
     Davidson diagonalization with overlap
     ethr =  6.97E-05,  avg # of iterations =  4.2

     total cpu time spent up to now is       12.7 secs

     total energy              =    -325.60666731 Ry
     estimated scf accuracy    <       0.01007052 Ry

     iteration #  3     ecut=   370.00 Ry     beta= 0.70
     Davidson diagonalization with overlap
     ethr =  3.60E-05,  avg # of iterations =  3.9

     total cpu time spent up to now is       15.6 secs

     total energy              =    -325.61255525 Ry
     estimated scf accuracy    <       0.00705310 Ry

     iteration #  4     ecut=   370.00 Ry     beta= 0.70
     Davidson diagonalization with overlap
     ethr =  2.52E-05,  avg # of iterations =  1.0

     total cpu time spent up to now is       17.8 secs

     total energy              =    -325.63691147 Ry
     estimated scf accuracy    <       0.00571770 Ry

     iteration #  5     ecut=   370.00 Ry     beta= 0.70
     Davidson diagonalization with overlap
     ethr =  2.04E-05,  avg # of iterations =  2.0

     total cpu time spent up to now is       20.3 secs

     total energy              =    -325.63810259 Ry
     estimated scf accuracy    <       0.00020552 Ry

     iteration #  6     ecut=   370.00 Ry     beta= 0.70
     Davidson diagonalization with overlap
     ethr =  7.34E-07,  avg # of iterations =  3.1

     total cpu time spent up to now is       23.2 secs

     total energy              =    -325.63891354 Ry
     estimated scf accuracy    <       0.00001282 Ry

     iteration #  7     ecut=   370.00 Ry     beta= 0.70
     Davidson diagonalization with overlap
     ethr =  4.58E-08,  avg # of iterations =  3.2

     total cpu time spent up to now is       26.6 secs

     total energy              =    -325.63913063 Ry
     estimated scf accuracy    <       0.00000103 Ry

     iteration #  8     ecut=   370.00 Ry     beta= 0.70
     Davidson diagonalization with overlap
     ethr =  3.68E-09,  avg # of iterations =  3.2

     total cpu time spent up to now is       30.0 secs

     total energy              =    -325.63917349 Ry
     estimated scf accuracy    <       0.00000068 Ry

     iteration #  9     ecut=   370.00 Ry     beta= 0.70
     Davidson diagonalization with overlap
     ethr =  2.41E-09,  avg # of iterations =  2.4

     total cpu time spent up to now is       32.6 secs

     End of self-consistent calculation

     Number of k-points >= 100: set verbosity='high' to print the bands.

     highest occupied level (ev):     5.1785

!    total energy              =    -325.63917387 Ry
     estimated scf accuracy    <          6.2E-10 Ry

     The total energy is the sum of the following terms:
     one-electron contribution =    -173.82277332 Ry
     hartree contribution      =     101.87501689 Ry
     xc contribution           =     -94.99708807 Ry
     ewald contribution        =    -158.69432938 Ry

     convergence has been achieved in   9 iterations

     Writing all to output data dir ./alpha-EOS/alpha.save/ :
     XML data file, charge density, pseudopotentials, collected wavefunctions

     init_run     :      2.73s CPU      2.82s WALL (       1 calls)
     electrons    :     29.03s CPU     29.66s WALL (       1 calls)

     Called by init_run:
     wfcinit      :      1.07s CPU      1.08s WALL (       1 calls)
     potinit      :      0.08s CPU      0.09s WALL (       1 calls)
     hinit0       :      0.89s CPU      0.91s WALL (       1 calls)

     Called by electrons:
     c_bands      :     23.69s CPU     24.07s WALL (      10 calls)
     sum_band     :      4.36s CPU      4.45s WALL (      10 calls)
     v_of_rho     :      0.61s CPU      0.66s WALL (      10 calls)
     newd         :      0.29s CPU      0.30s WALL (      10 calls)
     mix_rho      :      0.10s CPU      0.11s WALL (      10 calls)

     Called by c_bands:
     init_us_2    :      0.67s CPU      0.70s WALL (     546 calls)
     cegterg      :     22.09s CPU     22.31s WALL (     260 calls)

     Called by *egterg:
     cdiaghg      :      0.41s CPU      0.42s WALL (    1130 calls)
     h_psi        :     19.74s CPU     19.93s WALL (    1182 calls)
     s_psi        :      0.41s CPU      0.42s WALL (    1182 calls)
     g_psi        :      0.06s CPU      0.06s WALL (     896 calls)

     Called by h_psi:
     h_psi:calbec :      1.12s CPU      1.14s WALL (    1182 calls)
     vloc_psi     :     17.95s CPU     18.11s WALL (    1182 calls)
     add_vuspsi   :      0.51s CPU      0.51s WALL (    1182 calls)

     General routines
     calbec       :      1.32s CPU      1.35s WALL (    1442 calls)
     fft          :      1.17s CPU      1.21s WALL (     111 calls)
     ffts         :      0.03s CPU      0.04s WALL (      10 calls)
     fftw         :     18.16s CPU     18.33s WALL (   23704 calls)

     Parallel routines

     PWSCF        :     32.52s CPU     35.96s WALL


   This run was terminated on:   0: 2:24  26Feb2026            

=------------------------------------------------------------------------------=
   JOB DONE.
=------------------------------------------------------------------------------=
