
     Program PWSCF v.7.3.1 starts on 25Feb2026 at 20: 9:58 

     This program is part of the open-source Quantum ESPRESSO suite
     for quantum simulation of materials; please cite
         "P. Giannozzi et al., J. Phys.:Condens. Matter 21 395502 (2009);
         "P. Giannozzi et al., J. Phys.:Condens. Matter 29 465901 (2017);
         "P. Giannozzi et al., J. Chem. Phys. 152 154105 (2020);
          URL http://www.quantum-espresso.org", 
     in publications or presentations arising from this work. More details at
     http://www.quantum-espresso.org/quote

     Parallel version (MPI), running on   128 processors

     MPI processes distributed on     1 nodes
     238958 MiB available memory on the printing compute node when the environment starts

     Waiting for input...
     Reading input from standard input
     Message from routine read_cards :
     DEPRECATED: no units specified in ATOMIC_POSITIONS card
     Message from routine read_cards :
     ATOMIC_POSITIONS: units set to alat

     Current dimensions of program PWSCF are:
     Max number of different atomic species (ntypx) = 10
     Max number of k-points (npk) =  40000
     Max angular momentum in pseudopotentials (lmaxx) =  4

     K-points division:     npool     =       4
     R & G space division:  proc/nbgrp/npool/nimage =      32
     Subspace diagonalization in iterative solution of the eigenvalue problem:
     a serial algorithm will be used


     Parallelization info
     --------------------
     sticks:   dense  smooth     PW     G-vecs:    dense   smooth      PW
     Min         282     282     75                17797    17797    2447
     Max         283     283     76                17802    17802    2451
     Sum        9055    9055   2407               569609   569609   78343

     Using Slab Decomposition



     bravais-lattice index     =            2
     lattice parameter (alat)  =      13.3307  a.u.
     unit-cell volume          =     592.2416 (a.u.)^3
     number of atoms/cell      =            2
     number of atomic types    =            1
     number of electrons       =        28.00
     number of Kohn-Sham states=           14
     kinetic-energy cutoff     =     370.0000  Ry
     charge density cutoff     =    1480.0000  Ry
     scf convergence threshold =      1.0E-07
     mixing beta               =       0.7000
     number of iterations used =            8  plain     mixing
     Exchange-correlation=  SLA  PW   GGX  GGC
                           (   1   4   2   2   0   0   0)

     celldm(1)=  13.330700  celldm(2)=   0.000000  celldm(3)=   0.000000
     celldm(4)=   0.000000  celldm(5)=   0.000000  celldm(6)=   0.000000

     crystal axes: (cart. coord. in units of alat)
               a(1) = (  -0.500000   0.000000   0.500000 )  
               a(2) = (   0.000000   0.500000   0.500000 )  
               a(3) = (  -0.500000   0.500000   0.000000 )  

     reciprocal axes: (cart. coord. in units 2 pi/alat)
               b(1) = ( -1.000000 -1.000000  1.000000 )  
               b(2) = (  1.000000  1.000000  1.000000 )  
               b(3) = ( -1.000000  1.000000 -1.000000 )  


     PseudoPot. # 1 for Sn read from file:
     ./Sn.pw91-n-van.UPF
     MD5 check sum: a38d2a872edd1a4efd76c0a1a38f7031
     Pseudo is Ultrasoft + core correction, Zval = 14.0
     Generated by new atomic code, or converted to UPF format
     Using radial grid of  891 points,  6 beta functions with: 
                l(1) =   0
                l(2) =   0
                l(3) =   1
                l(4) =   1
                l(5) =   2
                l(6) =   2
     Q(r) pseudized with  8 coefficients,  rinner =    1.100   1.100   1.100
                                                       1.100   1.100

     atomic species   valence    mass     pseudopotential
     Sn               14.00   118.70000     Sn( 1.00)

     48 Sym. Ops., with inversion, found (24 have fractional translation)



   Cartesian axes

     site n.     atom                  positions (alat units)
         1        Sn     tau(   1) = (   0.0000000   0.0000000   0.0000000  )
         2        Sn     tau(   2) = (   0.2500000   0.2500000   0.2500000  )

     number of k points=   104

     Number of k-points >= 100: set verbosity='high' to print them.

     Dense  grid:   569609 G-vectors     FFT dimensions: ( 120, 120, 120)

     Estimated max dynamical RAM per process >      41.46 MB

     Estimated total dynamical RAM >       4.78 GB

     Initial potential from superposition of free atoms

     starting charge      27.9964, renormalised to      28.0000

     negative rho (up, down):  6.331E-07 0.000E+00
     Starting wfcs are   18 randomized atomic wfcs

     total cpu time spent up to now is        3.2 secs

     per-process dynamical memory:    35.8 Mb

     Self-consistent Calculation

     iteration #  1     ecut=   370.00 Ry     beta= 0.70
     Davidson diagonalization with overlap
     ethr =  1.00E-02,  avg # of iterations =  2.3

     Threshold (ethr) on eigenvalues was too large:
     Diagonalizing with lowered threshold

     Davidson diagonalization with overlap
     ethr =  5.83E-05,  avg # of iterations =  4.4

     total cpu time spent up to now is        9.0 secs

     total energy              =    -325.60022427 Ry
     estimated scf accuracy    <       0.01922446 Ry

     iteration #  2     ecut=   370.00 Ry     beta= 0.70
     Davidson diagonalization with overlap
     ethr =  6.87E-05,  avg # of iterations =  4.3

     total cpu time spent up to now is       12.7 secs

     total energy              =    -325.60517536 Ry
     estimated scf accuracy    <       0.01002786 Ry

     iteration #  3     ecut=   370.00 Ry     beta= 0.70
     Davidson diagonalization with overlap
     ethr =  3.58E-05,  avg # of iterations =  4.0

     total cpu time spent up to now is       15.6 secs

     total energy              =    -325.61146807 Ry
     estimated scf accuracy    <       0.00712689 Ry

     iteration #  4     ecut=   370.00 Ry     beta= 0.70
     Davidson diagonalization with overlap
     ethr =  2.55E-05,  avg # of iterations =  1.0

     total cpu time spent up to now is       17.9 secs

     total energy              =    -325.63612582 Ry
     estimated scf accuracy    <       0.00618654 Ry

     iteration #  5     ecut=   370.00 Ry     beta= 0.70
     Davidson diagonalization with overlap
     ethr =  2.21E-05,  avg # of iterations =  2.0

     total cpu time spent up to now is       20.4 secs

     total energy              =    -325.63728018 Ry
     estimated scf accuracy    <       0.00019736 Ry

     iteration #  6     ecut=   370.00 Ry     beta= 0.70
     Davidson diagonalization with overlap
     ethr =  7.05E-07,  avg # of iterations =  3.1

     total cpu time spent up to now is       23.3 secs

     total energy              =    -325.63783179 Ry
     estimated scf accuracy    <       0.00001554 Ry

     iteration #  7     ecut=   370.00 Ry     beta= 0.70
     Davidson diagonalization with overlap
     ethr =  5.55E-08,  avg # of iterations =  3.3

     total cpu time spent up to now is       26.7 secs

     total energy              =    -325.63822468 Ry
     estimated scf accuracy    <       0.00000150 Ry

     iteration #  8     ecut=   370.00 Ry     beta= 0.70
     Davidson diagonalization with overlap
     ethr =  5.37E-09,  avg # of iterations =  3.3

     total cpu time spent up to now is       30.2 secs

     total energy              =    -325.63823521 Ry
     estimated scf accuracy    <       0.00000042 Ry

     iteration #  9     ecut=   370.00 Ry     beta= 0.70
     Davidson diagonalization with overlap
     ethr =  1.50E-09,  avg # of iterations =  3.2

     total cpu time spent up to now is       33.1 secs

     End of self-consistent calculation

     Number of k-points >= 100: set verbosity='high' to print the bands.

     highest occupied level (ev):     5.1255

!    total energy              =    -325.63823534 Ry
     estimated scf accuracy    <       0.00000002 Ry

     The total energy is the sum of the following terms:
     one-electron contribution =    -174.30496665 Ry
     hartree contribution      =     102.06269587 Ry
     xc contribution           =     -94.99281744 Ry
     ewald contribution        =    -158.40314712 Ry

     convergence has been achieved in   9 iterations

     Writing all to output data dir ./alpha-EOS/alpha.save/ :
     XML data file, charge density, pseudopotentials, collected wavefunctions

     init_run     :      2.75s CPU      2.85s WALL (       1 calls)
     electrons    :     29.50s CPU     30.07s WALL (       1 calls)

     Called by init_run:
     wfcinit      :      1.07s CPU      1.10s WALL (       1 calls)
     potinit      :      0.09s CPU      0.10s WALL (       1 calls)
     hinit0       :      0.90s CPU      0.91s WALL (       1 calls)

     Called by electrons:
     c_bands      :     24.06s CPU     24.41s WALL (      10 calls)
     sum_band     :      4.44s CPU      4.51s WALL (      10 calls)
     v_of_rho     :      0.64s CPU      0.67s WALL (      10 calls)
     newd         :      0.27s CPU      0.30s WALL (      10 calls)
     mix_rho      :      0.10s CPU      0.11s WALL (      10 calls)

     Called by c_bands:
     init_us_2    :      0.66s CPU      0.69s WALL (     546 calls)
     cegterg      :     22.41s CPU     22.59s WALL (     260 calls)

     Called by *egterg:
     cdiaghg      :      0.44s CPU      0.44s WALL (    1151 calls)
     h_psi        :     19.97s CPU     20.13s WALL (    1203 calls)
     s_psi        :      0.42s CPU      0.42s WALL (    1203 calls)
     g_psi        :      0.06s CPU      0.06s WALL (     917 calls)

     Called by h_psi:
     h_psi:calbec :      1.16s CPU      1.17s WALL (    1203 calls)
     vloc_psi     :     18.15s CPU     18.29s WALL (    1203 calls)
     add_vuspsi   :      0.51s CPU      0.52s WALL (    1203 calls)

     General routines
     calbec       :      1.37s CPU      1.38s WALL (    1463 calls)
     fft          :      1.18s CPU      1.22s WALL (     111 calls)
     ffts         :      0.03s CPU      0.04s WALL (      10 calls)
     fftw         :     18.32s CPU     18.45s WALL (   23858 calls)

     Parallel routines

     PWSCF        :     32.99s CPU     35.68s WALL


   This run was terminated on:  20:10:34  25Feb2026            

=------------------------------------------------------------------------------=
   JOB DONE.
=------------------------------------------------------------------------------=
