
     Program PWSCF v.7.3.1 starts on 26Feb2026 at  0: 3: 5 

     This program is part of the open-source Quantum ESPRESSO suite
     for quantum simulation of materials; please cite
         "P. Giannozzi et al., J. Phys.:Condens. Matter 21 395502 (2009);
         "P. Giannozzi et al., J. Phys.:Condens. Matter 29 465901 (2017);
         "P. Giannozzi et al., J. Chem. Phys. 152 154105 (2020);
          URL http://www.quantum-espresso.org", 
     in publications or presentations arising from this work. More details at
     http://www.quantum-espresso.org/quote

     Parallel version (MPI), running on   128 processors

     MPI processes distributed on     1 nodes
     236191 MiB available memory on the printing compute node when the environment starts

     Waiting for input...
     Reading input from standard input
     Message from routine read_cards :
     DEPRECATED: no units specified in ATOMIC_POSITIONS card
     Message from routine read_cards :
     ATOMIC_POSITIONS: units set to alat

     Current dimensions of program PWSCF are:
     Max number of different atomic species (ntypx) = 10
     Max number of k-points (npk) =  40000
     Max angular momentum in pseudopotentials (lmaxx) =  4

     K-points division:     npool     =       4
     R & G space division:  proc/nbgrp/npool/nimage =      32
     Subspace diagonalization in iterative solution of the eigenvalue problem:
     a serial algorithm will be used


     Parallelization info
     --------------------
     sticks:   dense  smooth     PW     G-vecs:    dense   smooth      PW
     Min         283     283     75                17885    17885    2457
     Max         284     284     76                17889    17889    2462
     Sum        9073    9073   2407               572393   572393   78679

     Using Slab Decomposition



     bravais-lattice index     =            2
     lattice parameter (alat)  =      13.3552  a.u.
     unit-cell volume          =     595.5076 (a.u.)^3
     number of atoms/cell      =            2
     number of atomic types    =            1
     number of electrons       =        28.00
     number of Kohn-Sham states=           14
     kinetic-energy cutoff     =     370.0000  Ry
     charge density cutoff     =    1480.0000  Ry
     scf convergence threshold =      1.0E-07
     mixing beta               =       0.7000
     number of iterations used =            8  plain     mixing
     Exchange-correlation=  SLA  PW   GGX  GGC
                           (   1   4   2   2   0   0   0)

     celldm(1)=  13.355160  celldm(2)=   0.000000  celldm(3)=   0.000000
     celldm(4)=   0.000000  celldm(5)=   0.000000  celldm(6)=   0.000000

     crystal axes: (cart. coord. in units of alat)
               a(1) = (  -0.500000   0.000000   0.500000 )  
               a(2) = (   0.000000   0.500000   0.500000 )  
               a(3) = (  -0.500000   0.500000   0.000000 )  

     reciprocal axes: (cart. coord. in units 2 pi/alat)
               b(1) = ( -1.000000 -1.000000  1.000000 )  
               b(2) = (  1.000000  1.000000  1.000000 )  
               b(3) = ( -1.000000  1.000000 -1.000000 )  


     PseudoPot. # 1 for Sn read from file:
     ./Sn.pw91-n-van.UPF
     MD5 check sum: a38d2a872edd1a4efd76c0a1a38f7031
     Pseudo is Ultrasoft + core correction, Zval = 14.0
     Generated by new atomic code, or converted to UPF format
     Using radial grid of  891 points,  6 beta functions with: 
                l(1) =   0
                l(2) =   0
                l(3) =   1
                l(4) =   1
                l(5) =   2
                l(6) =   2
     Q(r) pseudized with  8 coefficients,  rinner =    1.100   1.100   1.100
                                                       1.100   1.100

     atomic species   valence    mass     pseudopotential
     Sn               14.00   118.70000     Sn( 1.00)

     48 Sym. Ops., with inversion, found (24 have fractional translation)



   Cartesian axes

     site n.     atom                  positions (alat units)
         1        Sn     tau(   1) = (   0.0000000   0.0000000   0.0000000  )
         2        Sn     tau(   2) = (   0.2500000   0.2500000   0.2500000  )

     number of k points=   104

     Number of k-points >= 100: set verbosity='high' to print them.

     Dense  grid:   572393 G-vectors     FFT dimensions: ( 120, 120, 120)

     Estimated max dynamical RAM per process >      41.64 MB

     Estimated total dynamical RAM >       4.80 GB

     Initial potential from superposition of free atoms

     starting charge      27.9964, renormalised to      28.0000
     Starting wfcs are   18 randomized atomic wfcs

     total cpu time spent up to now is        3.2 secs

     per-process dynamical memory:    36.0 Mb

     Self-consistent Calculation

     iteration #  1     ecut=   370.00 Ry     beta= 0.70
     Davidson diagonalization with overlap
     ethr =  1.00E-02,  avg # of iterations =  2.2

     Threshold (ethr) on eigenvalues was too large:
     Diagonalizing with lowered threshold

     Davidson diagonalization with overlap
     ethr =  5.79E-05,  avg # of iterations =  4.4

     total cpu time spent up to now is        9.0 secs

     total energy              =    -325.60153708 Ry
     estimated scf accuracy    <       0.01931030 Ry

     iteration #  2     ecut=   370.00 Ry     beta= 0.70
     Davidson diagonalization with overlap
     ethr =  6.90E-05,  avg # of iterations =  4.2

     total cpu time spent up to now is       12.7 secs

     total energy              =    -325.60397681 Ry
     estimated scf accuracy    <       0.00947565 Ry

     iteration #  3     ecut=   370.00 Ry     beta= 0.70
     Davidson diagonalization with overlap
     ethr =  3.38E-05,  avg # of iterations =  4.2

     total cpu time spent up to now is       15.7 secs

     total energy              =    -325.61008442 Ry
     estimated scf accuracy    <       0.00705971 Ry

     iteration #  4     ecut=   370.00 Ry     beta= 0.70
     Davidson diagonalization with overlap
     ethr =  2.52E-05,  avg # of iterations =  1.0

     total cpu time spent up to now is       17.9 secs

     total energy              =    -325.63520152 Ry
     estimated scf accuracy    <       0.00659429 Ry

     iteration #  5     ecut=   370.00 Ry     beta= 0.70
     Davidson diagonalization with overlap
     ethr =  2.36E-05,  avg # of iterations =  2.0

     total cpu time spent up to now is       20.5 secs

     total energy              =    -325.63634729 Ry
     estimated scf accuracy    <       0.00011246 Ry

     iteration #  6     ecut=   370.00 Ry     beta= 0.70
     Davidson diagonalization with overlap
     ethr =  4.02E-07,  avg # of iterations =  3.5

     total cpu time spent up to now is       23.5 secs

     total energy              =    -325.63672793 Ry
     estimated scf accuracy    <       0.00001787 Ry

     iteration #  7     ecut=   370.00 Ry     beta= 0.70
     Davidson diagonalization with overlap
     ethr =  6.38E-08,  avg # of iterations =  4.1

     total cpu time spent up to now is       27.0 secs

     total energy              =    -325.63727580 Ry
     estimated scf accuracy    <       0.00000537 Ry

     iteration #  8     ecut=   370.00 Ry     beta= 0.70
     Davidson diagonalization with overlap
     ethr =  1.92E-08,  avg # of iterations =  2.7

     total cpu time spent up to now is       29.7 secs

     total energy              =    -325.63727625 Ry
     estimated scf accuracy    <       0.00000030 Ry

     iteration #  9     ecut=   370.00 Ry     beta= 0.70
     Davidson diagonalization with overlap
     ethr =  1.06E-09,  avg # of iterations =  2.7

     total cpu time spent up to now is       32.5 secs

     End of self-consistent calculation

     Number of k-points >= 100: set verbosity='high' to print the bands.

     highest occupied level (ev):     5.0717

!    total energy              =    -325.63727734 Ry
     estimated scf accuracy    <       0.00000005 Ry

     The total energy is the sum of the following terms:
     one-electron contribution =    -174.78759359 Ry
     hartree contribution      =     102.25234608 Ry
     xc contribution           =     -94.98899836 Ry
     ewald contribution        =    -158.11303147 Ry

     convergence has been achieved in   9 iterations

     Writing all to output data dir ./alpha-EOS/alpha.save/ :
     XML data file, charge density, pseudopotentials, collected wavefunctions

     init_run     :      2.75s CPU      2.86s WALL (       1 calls)
     electrons    :     28.82s CPU     29.51s WALL (       1 calls)

     Called by init_run:
     wfcinit      :      1.04s CPU      1.08s WALL (       1 calls)
     potinit      :      0.09s CPU      0.10s WALL (       1 calls)
     hinit0       :      0.94s CPU      0.95s WALL (       1 calls)

     Called by electrons:
     c_bands      :     23.45s CPU     23.82s WALL (      10 calls)
     sum_band     :      4.38s CPU      4.46s WALL (      10 calls)
     v_of_rho     :      0.62s CPU      0.66s WALL (      10 calls)
     newd         :      0.29s CPU      0.31s WALL (      10 calls)
     mix_rho      :      0.10s CPU      0.11s WALL (      10 calls)

     Called by c_bands:
     init_us_2    :      0.68s CPU      0.70s WALL (     546 calls)
     cegterg      :     21.71s CPU     21.91s WALL (     260 calls)

     Called by *egterg:
     cdiaghg      :      0.42s CPU      0.42s WALL (    1157 calls)
     h_psi        :     19.30s CPU     19.50s WALL (    1209 calls)
     s_psi        :      0.42s CPU      0.42s WALL (    1209 calls)
     g_psi        :      0.06s CPU      0.06s WALL (     923 calls)

     Called by h_psi:
     h_psi:calbec :      1.15s CPU      1.16s WALL (    1209 calls)
     vloc_psi     :     17.47s CPU     17.65s WALL (    1209 calls)
     add_vuspsi   :      0.52s CPU      0.53s WALL (    1209 calls)

     General routines
     calbec       :      1.36s CPU      1.38s WALL (    1469 calls)
     fft          :      1.16s CPU      1.21s WALL (     111 calls)
     ffts         :      0.03s CPU      0.03s WALL (      10 calls)
     fftw         :     17.77s CPU     17.96s WALL (   23312 calls)

     Parallel routines

     PWSCF        :     32.50s CPU     35.33s WALL


   This run was terminated on:   0: 3:41  26Feb2026            

=------------------------------------------------------------------------------=
   JOB DONE.
=------------------------------------------------------------------------------=
