
     Program PWSCF v.7.3.1 starts on 26Feb2026 at  0: 3:47 

     This program is part of the open-source Quantum ESPRESSO suite
     for quantum simulation of materials; please cite
         "P. Giannozzi et al., J. Phys.:Condens. Matter 21 395502 (2009);
         "P. Giannozzi et al., J. Phys.:Condens. Matter 29 465901 (2017);
         "P. Giannozzi et al., J. Chem. Phys. 152 154105 (2020);
          URL http://www.quantum-espresso.org", 
     in publications or presentations arising from this work. More details at
     http://www.quantum-espresso.org/quote

     Parallel version (MPI), running on   128 processors

     MPI processes distributed on     1 nodes
     236226 MiB available memory on the printing compute node when the environment starts

     Waiting for input...
     Reading input from standard input
     Message from routine read_cards :
     DEPRECATED: no units specified in ATOMIC_POSITIONS card
     Message from routine read_cards :
     ATOMIC_POSITIONS: units set to alat

     Current dimensions of program PWSCF are:
     Max number of different atomic species (ntypx) = 10
     Max number of k-points (npk) =  40000
     Max angular momentum in pseudopotentials (lmaxx) =  4

     K-points division:     npool     =       4
     R & G space division:  proc/nbgrp/npool/nimage =      32
     Subspace diagonalization in iterative solution of the eigenvalue problem:
     a serial algorithm will be used


     Parallelization info
     --------------------
     sticks:   dense  smooth     PW     G-vecs:    dense   smooth      PW
     Min         285     285     75                17992    17992    2474
     Max         286     286     76                17996    17996    2479
     Sum        9121    9121   2419               575777   575777   79231

     Using Slab Decomposition



     bravais-lattice index     =            2
     lattice parameter (alat)  =      13.3796  a.u.
     unit-cell volume          =     598.7856 (a.u.)^3
     number of atoms/cell      =            2
     number of atomic types    =            1
     number of electrons       =        28.00
     number of Kohn-Sham states=           14
     kinetic-energy cutoff     =     370.0000  Ry
     charge density cutoff     =    1480.0000  Ry
     scf convergence threshold =      1.0E-07
     mixing beta               =       0.7000
     number of iterations used =            8  plain     mixing
     Exchange-correlation=  SLA  PW   GGX  GGC
                           (   1   4   2   2   0   0   0)

     celldm(1)=  13.379620  celldm(2)=   0.000000  celldm(3)=   0.000000
     celldm(4)=   0.000000  celldm(5)=   0.000000  celldm(6)=   0.000000

     crystal axes: (cart. coord. in units of alat)
               a(1) = (  -0.500000   0.000000   0.500000 )  
               a(2) = (   0.000000   0.500000   0.500000 )  
               a(3) = (  -0.500000   0.500000   0.000000 )  

     reciprocal axes: (cart. coord. in units 2 pi/alat)
               b(1) = ( -1.000000 -1.000000  1.000000 )  
               b(2) = (  1.000000  1.000000  1.000000 )  
               b(3) = ( -1.000000  1.000000 -1.000000 )  


     PseudoPot. # 1 for Sn read from file:
     ./Sn.pw91-n-van.UPF
     MD5 check sum: a38d2a872edd1a4efd76c0a1a38f7031
     Pseudo is Ultrasoft + core correction, Zval = 14.0
     Generated by new atomic code, or converted to UPF format
     Using radial grid of  891 points,  6 beta functions with: 
                l(1) =   0
                l(2) =   0
                l(3) =   1
                l(4) =   1
                l(5) =   2
                l(6) =   2
     Q(r) pseudized with  8 coefficients,  rinner =    1.100   1.100   1.100
                                                       1.100   1.100

     atomic species   valence    mass     pseudopotential
     Sn               14.00   118.70000     Sn( 1.00)

     48 Sym. Ops., with inversion, found (24 have fractional translation)



   Cartesian axes

     site n.     atom                  positions (alat units)
         1        Sn     tau(   1) = (   0.0000000   0.0000000   0.0000000  )
         2        Sn     tau(   2) = (   0.2500000   0.2500000   0.2500000  )

     number of k points=   104

     Number of k-points >= 100: set verbosity='high' to print them.

     Dense  grid:   575777 G-vectors     FFT dimensions: ( 120, 120, 120)

     Estimated max dynamical RAM per process >      41.83 MB

     Estimated total dynamical RAM >       4.82 GB

     Initial potential from superposition of free atoms

     starting charge      27.9964, renormalised to      28.0000

     negative rho (up, down):  8.703E-07 0.000E+00
     Starting wfcs are   18 randomized atomic wfcs

     total cpu time spent up to now is        3.2 secs

     per-process dynamical memory:    36.3 Mb

     Self-consistent Calculation

     iteration #  1     ecut=   370.00 Ry     beta= 0.70
     Davidson diagonalization with overlap
     ethr =  1.00E-02,  avg # of iterations =  2.3

     Threshold (ethr) on eigenvalues was too large:
     Diagonalizing with lowered threshold

     Davidson diagonalization with overlap
     ethr =  5.95E-05,  avg # of iterations =  4.5

     negative rho (up, down):  1.621E-07 0.000E+00

     total cpu time spent up to now is        9.1 secs

     total energy              =    -325.60071981 Ry
     estimated scf accuracy    <       0.01962277 Ry

     iteration #  2     ecut=   370.00 Ry     beta= 0.70
     Davidson diagonalization with overlap
     ethr =  7.01E-05,  avg # of iterations =  4.2

     total cpu time spent up to now is       12.8 secs

     total energy              =    -325.60249407 Ry
     estimated scf accuracy    <       0.00936756 Ry

     iteration #  3     ecut=   370.00 Ry     beta= 0.70
     Davidson diagonalization with overlap
     ethr =  3.35E-05,  avg # of iterations =  4.1

     total cpu time spent up to now is       15.7 secs

     total energy              =    -325.60875393 Ry
     estimated scf accuracy    <       0.00714046 Ry

     iteration #  4     ecut=   370.00 Ry     beta= 0.70
     Davidson diagonalization with overlap
     ethr =  2.55E-05,  avg # of iterations =  1.0

     negative rho (up, down):  2.301E-06 0.000E+00

     total cpu time spent up to now is       18.0 secs

     total energy              =    -325.63406977 Ry
     estimated scf accuracy    <       0.00693314 Ry

     iteration #  5     ecut=   370.00 Ry     beta= 0.70
     Davidson diagonalization with overlap
     ethr =  2.48E-05,  avg # of iterations =  2.0

     negative rho (up, down):  8.287E-07 0.000E+00

     total cpu time spent up to now is       20.5 secs

     total energy              =    -325.63532885 Ry
     estimated scf accuracy    <       0.00013535 Ry

     iteration #  6     ecut=   370.00 Ry     beta= 0.70
     Davidson diagonalization with overlap
     ethr =  4.83E-07,  avg # of iterations =  3.4

     total cpu time spent up to now is       23.5 secs

     total energy              =    -325.63602649 Ry
     estimated scf accuracy    <       0.00003696 Ry

     iteration #  7     ecut=   370.00 Ry     beta= 0.70
     Davidson diagonalization with overlap
     ethr =  1.32E-07,  avg # of iterations =  3.2

     total cpu time spent up to now is       26.3 secs

     total energy              =    -325.63621813 Ry
     estimated scf accuracy    <       0.00001021 Ry

     iteration #  8     ecut=   370.00 Ry     beta= 0.70
     Davidson diagonalization with overlap
     ethr =  3.64E-08,  avg # of iterations =  2.1

     total cpu time spent up to now is       28.9 secs

     total energy              =    -325.63629878 Ry
     estimated scf accuracy    <       0.00000285 Ry

     iteration #  9     ecut=   370.00 Ry     beta= 0.70
     Davidson diagonalization with overlap
     ethr =  1.02E-08,  avg # of iterations =  2.3

     total cpu time spent up to now is       31.6 secs

     total energy              =    -325.63629891 Ry
     estimated scf accuracy    <       0.00000011 Ry

     iteration # 10     ecut=   370.00 Ry     beta= 0.70
     Davidson diagonalization with overlap
     ethr =  3.88E-10,  avg # of iterations =  4.3

     total cpu time spent up to now is       34.7 secs

     End of self-consistent calculation

     Number of k-points >= 100: set verbosity='high' to print the bands.

     highest occupied level (ev):     5.0191

!    total energy              =    -325.63630004 Ry
     estimated scf accuracy    <       0.00000005 Ry

     The total energy is the sum of the following terms:
     one-electron contribution =    -175.26637716 Ry
     hartree contribution      =     102.43872351 Ry
     xc contribution           =     -94.98466983 Ry
     ewald contribution        =    -157.82397656 Ry

     convergence has been achieved in  10 iterations

     Writing all to output data dir ./alpha-EOS/alpha.save/ :
     XML data file, charge density, pseudopotentials, collected wavefunctions

     init_run     :      2.83s CPU      2.94s WALL (       1 calls)
     electrons    :     30.98s CPU     31.62s WALL (       1 calls)

     Called by init_run:
     wfcinit      :      1.07s CPU      1.09s WALL (       1 calls)
     potinit      :      0.08s CPU      0.11s WALL (       1 calls)
     hinit0       :      0.90s CPU      0.91s WALL (       1 calls)

     Called by electrons:
     c_bands      :     24.94s CPU     25.29s WALL (      11 calls)
     sum_band     :      4.90s CPU      4.96s WALL (      11 calls)
     v_of_rho     :      0.68s CPU      0.73s WALL (      11 calls)
     newd         :      0.32s CPU      0.33s WALL (      11 calls)
     mix_rho      :      0.13s CPU      0.13s WALL (      11 calls)

     Called by c_bands:
     init_us_2    :      0.74s CPU      0.77s WALL (     598 calls)
     cegterg      :     23.23s CPU     23.40s WALL (     286 calls)

     Called by *egterg:
     cdiaghg      :      0.45s CPU      0.46s WALL (    1251 calls)
     h_psi        :     20.58s CPU     20.74s WALL (    1303 calls)
     s_psi        :      0.44s CPU      0.45s WALL (    1303 calls)
     g_psi        :      0.06s CPU      0.06s WALL (     991 calls)

     Called by h_psi:
     h_psi:calbec :      1.26s CPU      1.27s WALL (    1303 calls)
     vloc_psi     :     18.60s CPU     18.74s WALL (    1303 calls)
     add_vuspsi   :      0.55s CPU      0.56s WALL (    1303 calls)

     General routines
     calbec       :      1.50s CPU      1.51s WALL (    1589 calls)
     fft          :      1.20s CPU      1.24s WALL (     122 calls)
     ffts         :      0.03s CPU      0.04s WALL (      11 calls)
     fftw         :     18.94s CPU     19.08s WALL (   24980 calls)

     Parallel routines

     PWSCF        :     34.48s CPU     37.99s WALL


   This run was terminated on:   0: 4:25  26Feb2026            

=------------------------------------------------------------------------------=
   JOB DONE.
=------------------------------------------------------------------------------=
