
     Program PWSCF v.7.3.1 starts on 26Feb2026 at  0: 4:28 

     This program is part of the open-source Quantum ESPRESSO suite
     for quantum simulation of materials; please cite
         "P. Giannozzi et al., J. Phys.:Condens. Matter 21 395502 (2009);
         "P. Giannozzi et al., J. Phys.:Condens. Matter 29 465901 (2017);
         "P. Giannozzi et al., J. Chem. Phys. 152 154105 (2020);
          URL http://www.quantum-espresso.org", 
     in publications or presentations arising from this work. More details at
     http://www.quantum-espresso.org/quote

     Parallel version (MPI), running on   128 processors

     MPI processes distributed on     1 nodes
     236186 MiB available memory on the printing compute node when the environment starts

     Waiting for input...
     Reading input from standard input
     Message from routine read_cards :
     DEPRECATED: no units specified in ATOMIC_POSITIONS card
     Message from routine read_cards :
     ATOMIC_POSITIONS: units set to alat

     Current dimensions of program PWSCF are:
     Max number of different atomic species (ntypx) = 10
     Max number of k-points (npk) =  40000
     Max angular momentum in pseudopotentials (lmaxx) =  4

     K-points division:     npool     =       4
     R & G space division:  proc/nbgrp/npool/nimage =      32
     Subspace diagonalization in iterative solution of the eigenvalue problem:
     a serial algorithm will be used


     Parallelization info
     --------------------
     sticks:   dense  smooth     PW     G-vecs:    dense   smooth      PW
     Min         285     285     75                18083    18083    2474
     Max         286     286     76                18089    18089    2479
     Sum        9151    9151   2419               578723   578723   79231

     Using Slab Decomposition



     bravais-lattice index     =            2
     lattice parameter (alat)  =      13.4041  a.u.
     unit-cell volume          =     602.0756 (a.u.)^3
     number of atoms/cell      =            2
     number of atomic types    =            1
     number of electrons       =        28.00
     number of Kohn-Sham states=           14
     kinetic-energy cutoff     =     370.0000  Ry
     charge density cutoff     =    1480.0000  Ry
     scf convergence threshold =      1.0E-07
     mixing beta               =       0.7000
     number of iterations used =            8  plain     mixing
     Exchange-correlation=  SLA  PW   GGX  GGC
                           (   1   4   2   2   0   0   0)

     celldm(1)=  13.404080  celldm(2)=   0.000000  celldm(3)=   0.000000
     celldm(4)=   0.000000  celldm(5)=   0.000000  celldm(6)=   0.000000

     crystal axes: (cart. coord. in units of alat)
               a(1) = (  -0.500000   0.000000   0.500000 )  
               a(2) = (   0.000000   0.500000   0.500000 )  
               a(3) = (  -0.500000   0.500000   0.000000 )  

     reciprocal axes: (cart. coord. in units 2 pi/alat)
               b(1) = ( -1.000000 -1.000000  1.000000 )  
               b(2) = (  1.000000  1.000000  1.000000 )  
               b(3) = ( -1.000000  1.000000 -1.000000 )  


     PseudoPot. # 1 for Sn read from file:
     ./Sn.pw91-n-van.UPF
     MD5 check sum: a38d2a872edd1a4efd76c0a1a38f7031
     Pseudo is Ultrasoft + core correction, Zval = 14.0
     Generated by new atomic code, or converted to UPF format
     Using radial grid of  891 points,  6 beta functions with: 
                l(1) =   0
                l(2) =   0
                l(3) =   1
                l(4) =   1
                l(5) =   2
                l(6) =   2
     Q(r) pseudized with  8 coefficients,  rinner =    1.100   1.100   1.100
                                                       1.100   1.100

     atomic species   valence    mass     pseudopotential
     Sn               14.00   118.70000     Sn( 1.00)

     48 Sym. Ops., with inversion, found (24 have fractional translation)



   Cartesian axes

     site n.     atom                  positions (alat units)
         1        Sn     tau(   1) = (   0.0000000   0.0000000   0.0000000  )
         2        Sn     tau(   2) = (   0.2500000   0.2500000   0.2500000  )

     number of k points=   104

     Number of k-points >= 100: set verbosity='high' to print them.

     Dense  grid:   578723 G-vectors     FFT dimensions: ( 120, 120, 120)

     Estimated max dynamical RAM per process >      42.02 MB

     Estimated total dynamical RAM >       4.84 GB

     Initial potential from superposition of free atoms

     starting charge      27.9964, renormalised to      28.0000

     negative rho (up, down):  2.632E-06 0.000E+00
     Starting wfcs are   18 randomized atomic wfcs

     total cpu time spent up to now is        3.3 secs

     per-process dynamical memory:    36.0 Mb

     Self-consistent Calculation

     iteration #  1     ecut=   370.00 Ry     beta= 0.70
     Davidson diagonalization with overlap
     ethr =  1.00E-02,  avg # of iterations =  2.2

     Threshold (ethr) on eigenvalues was too large:
     Diagonalizing with lowered threshold

     Davidson diagonalization with overlap
     ethr =  5.87E-05,  avg # of iterations =  4.4

     negative rho (up, down):  1.151E-07 0.000E+00

     total cpu time spent up to now is        9.1 secs

     total energy              =    -325.60050519 Ry
     estimated scf accuracy    <       0.01955969 Ry

     iteration #  2     ecut=   370.00 Ry     beta= 0.70
     Davidson diagonalization with overlap
     ethr =  6.99E-05,  avg # of iterations =  4.2

     total cpu time spent up to now is       12.8 secs

     total energy              =    -325.60146518 Ry
     estimated scf accuracy    <       0.00904892 Ry

     iteration #  3     ecut=   370.00 Ry     beta= 0.70
     Davidson diagonalization with overlap
     ethr =  3.23E-05,  avg # of iterations =  4.2

     total cpu time spent up to now is       15.8 secs

     total energy              =    -325.60750083 Ry
     estimated scf accuracy    <       0.00694038 Ry

     iteration #  4     ecut=   370.00 Ry     beta= 0.70
     Davidson diagonalization with overlap
     ethr =  2.48E-05,  avg # of iterations =  1.0

     negative rho (up, down):  1.633E-06 0.000E+00

     total cpu time spent up to now is       18.0 secs

     total energy              =    -325.63291605 Ry
     estimated scf accuracy    <       0.00672063 Ry

     iteration #  5     ecut=   370.00 Ry     beta= 0.70
     Davidson diagonalization with overlap
     ethr =  2.40E-05,  avg # of iterations =  2.1

     negative rho (up, down):  4.566E-07 0.000E+00

     total cpu time spent up to now is       20.6 secs

     total energy              =    -325.63423637 Ry
     estimated scf accuracy    <       0.00009481 Ry

     iteration #  6     ecut=   370.00 Ry     beta= 0.70
     Davidson diagonalization with overlap
     ethr =  3.39E-07,  avg # of iterations =  3.9

     total cpu time spent up to now is       23.8 secs

     total energy              =    -325.63506369 Ry
     estimated scf accuracy    <       0.00003174 Ry

     iteration #  7     ecut=   370.00 Ry     beta= 0.70
     Davidson diagonalization with overlap
     ethr =  1.13E-07,  avg # of iterations =  3.3

     total cpu time spent up to now is       26.6 secs

     total energy              =    -325.63530260 Ry
     estimated scf accuracy    <       0.00000615 Ry

     iteration #  8     ecut=   370.00 Ry     beta= 0.70
     Davidson diagonalization with overlap
     ethr =  2.20E-08,  avg # of iterations =  2.0

     total cpu time spent up to now is       29.2 secs

     total energy              =    -325.63529795 Ry
     estimated scf accuracy    <       0.00000245 Ry

     iteration #  9     ecut=   370.00 Ry     beta= 0.70
     Davidson diagonalization with overlap
     ethr =  8.75E-09,  avg # of iterations =  2.1

     total cpu time spent up to now is       31.8 secs

     total energy              =    -325.63530351 Ry
     estimated scf accuracy    <       0.00000045 Ry

     iteration # 10     ecut=   370.00 Ry     beta= 0.70
     Davidson diagonalization with overlap
     ethr =  1.60E-09,  avg # of iterations =  2.7

     total cpu time spent up to now is       34.6 secs

     End of self-consistent calculation

     Number of k-points >= 100: set verbosity='high' to print the bands.

     highest occupied level (ev):     4.9673

!    total energy              =    -325.63530393 Ry
     estimated scf accuracy    <       0.00000003 Ry

     The total energy is the sum of the following terms:
     one-electron contribution =    -175.74411069 Ry
     hartree contribution      =     102.62537628 Ry
     xc contribution           =     -94.98059291 Ry
     ewald contribution        =    -157.53597661 Ry

     convergence has been achieved in  10 iterations

     Writing all to output data dir ./alpha-EOS/alpha.save/ :
     XML data file, charge density, pseudopotentials, collected wavefunctions

     init_run     :      2.83s CPU      2.96s WALL (       1 calls)
     electrons    :     30.79s CPU     31.44s WALL (       1 calls)

     Called by init_run:
     wfcinit      :      1.05s CPU      1.10s WALL (       1 calls)
     potinit      :      0.07s CPU      0.10s WALL (       1 calls)
     hinit0       :      0.90s CPU      0.91s WALL (       1 calls)

     Called by electrons:
     c_bands      :     24.79s CPU     25.20s WALL (      11 calls)
     sum_band     :      4.90s CPU      4.97s WALL (      11 calls)
     v_of_rho     :      0.67s CPU      0.73s WALL (      11 calls)
     newd         :      0.32s CPU      0.33s WALL (      11 calls)
     mix_rho      :      0.13s CPU      0.13s WALL (      11 calls)

     Called by c_bands:
     init_us_2    :      0.76s CPU      0.79s WALL (     598 calls)
     cegterg      :     23.09s CPU     23.28s WALL (     286 calls)

     Called by *egterg:
     cdiaghg      :      0.44s CPU      0.44s WALL (    1220 calls)
     h_psi        :     20.50s CPU     20.69s WALL (    1272 calls)
     s_psi        :      0.44s CPU      0.45s WALL (    1272 calls)
     g_psi        :      0.06s CPU      0.06s WALL (     960 calls)

     Called by h_psi:
     h_psi:calbec :      1.23s CPU      1.25s WALL (    1272 calls)
     vloc_psi     :     18.53s CPU     18.69s WALL (    1272 calls)
     add_vuspsi   :      0.56s CPU      0.57s WALL (    1272 calls)

     General routines
     calbec       :      1.46s CPU      1.48s WALL (    1558 calls)
     fft          :      1.18s CPU      1.24s WALL (     122 calls)
     ffts         :      0.03s CPU      0.04s WALL (      11 calls)
     fftw         :     18.92s CPU     19.08s WALL (   24800 calls)

     Parallel routines

     PWSCF        :     34.40s CPU     37.54s WALL


   This run was terminated on:   0: 5: 6  26Feb2026            

=------------------------------------------------------------------------------=
   JOB DONE.
=------------------------------------------------------------------------------=
