
     Program PWSCF v.7.3.1 starts on 26Feb2026 at  0: 5:11 

     This program is part of the open-source Quantum ESPRESSO suite
     for quantum simulation of materials; please cite
         "P. Giannozzi et al., J. Phys.:Condens. Matter 21 395502 (2009);
         "P. Giannozzi et al., J. Phys.:Condens. Matter 29 465901 (2017);
         "P. Giannozzi et al., J. Chem. Phys. 152 154105 (2020);
          URL http://www.quantum-espresso.org", 
     in publications or presentations arising from this work. More details at
     http://www.quantum-espresso.org/quote

     Parallel version (MPI), running on   128 processors

     MPI processes distributed on     1 nodes
     236152 MiB available memory on the printing compute node when the environment starts

     Waiting for input...
     Reading input from standard input

     Current dimensions of program PWSCF are:
     Max number of different atomic species (ntypx) = 10
     Max number of k-points (npk) =  40000
     Max angular momentum in pseudopotentials (lmaxx) =  4

     K-points division:     npool     =       4
     R & G space division:  proc/nbgrp/npool/nimage =      32
     Subspace diagonalization in iterative solution of the eigenvalue problem:
     a serial algorithm will be used


     Parallelization info
     --------------------
     sticks:   dense  smooth     PW     G-vecs:    dense   smooth      PW
     Min         287     287     76                18191    18191    2496
     Max         288     288     77                18196    18196    2499
     Sum        9199    9199   2437               582155   582155   79915

     Using Slab Decomposition



     bravais-lattice index     =            2
     lattice parameter (alat)  =      13.4285  a.u.
     unit-cell volume          =     605.3777 (a.u.)^3
     number of atoms/cell      =            2
     number of atomic types    =            1
     number of electrons       =        28.00
     number of Kohn-Sham states=           14
     kinetic-energy cutoff     =     370.0000  Ry
     charge density cutoff     =    1480.0000  Ry
     scf convergence threshold =      1.0E-07
     mixing beta               =       0.7000
     number of iterations used =            8  plain     mixing
     Exchange-correlation=  SLA  PW   GGX  GGC
                           (   1   4   2   2   0   0   0)

     celldm(1)=  13.428540  celldm(2)=   0.000000  celldm(3)=   0.000000
     celldm(4)=   0.000000  celldm(5)=   0.000000  celldm(6)=   0.000000

     crystal axes: (cart. coord. in units of alat)
               a(1) = (  -0.500000   0.000000   0.500000 )  
               a(2) = (   0.000000   0.500000   0.500000 )  
               a(3) = (  -0.500000   0.500000   0.000000 )  

     reciprocal axes: (cart. coord. in units 2 pi/alat)
               b(1) = ( -1.000000 -1.000000  1.000000 )  
               b(2) = (  1.000000  1.000000  1.000000 )  
               b(3) = ( -1.000000  1.000000 -1.000000 )  


     PseudoPot. # 1 for Sn read from file:
     ./Sn.pw91-n-van.UPF
     MD5 check sum: a38d2a872edd1a4efd76c0a1a38f7031
     Pseudo is Ultrasoft + core correction, Zval = 14.0
     Generated by new atomic code, or converted to UPF format
     Using radial grid of  891 points,  6 beta functions with: 
                l(1) =   0
                l(2) =   0
                l(3) =   1
                l(4) =   1
                l(5) =   2
                l(6) =   2
     Q(r) pseudized with  8 coefficients,  rinner =    1.100   1.100   1.100
                                                       1.100   1.100

     atomic species   valence    mass     pseudopotential
     Sn               14.00   118.70000     Sn( 1.00)

      8 Sym. Ops., with inversion, found ( 4 have fractional translation)



   Cartesian axes

     site n.     atom                  positions (alat units)
         1        Sn     tau(   1) = (  -0.1875000   0.0000000   0.0625000  )
         2        Sn     tau(   2) = (   0.1875000   0.0000000  -0.0625000  )

     number of k points=   428

     Number of k-points >= 100: set verbosity='high' to print them.

     Dense  grid:   582155 G-vectors     FFT dimensions: ( 120, 120, 120)

     Estimated max dynamical RAM per process >      81.55 MB

     Estimated total dynamical RAM >       9.78 GB

     Initial potential from superposition of free atoms

     starting charge      27.9964, renormalised to      28.0000
     Starting wfcs are   18 randomized atomic wfcs

     total cpu time spent up to now is        6.6 secs

     per-process dynamical memory:    77.7 Mb

     Self-consistent Calculation

     iteration #  1     ecut=   370.00 Ry     beta= 0.70
     Davidson diagonalization with overlap
     ethr =  1.00E-02,  avg # of iterations =  2.4

     Threshold (ethr) on eigenvalues was too large:
     Diagonalizing with lowered threshold

     Davidson diagonalization with overlap
     ethr =  7.12E-05,  avg # of iterations =  5.1

     total cpu time spent up to now is       30.2 secs

     total energy              =    -325.52038156 Ry
     estimated scf accuracy    <       0.02410969 Ry

     iteration #  2     ecut=   370.00 Ry     beta= 0.70
     Davidson diagonalization with overlap
     ethr =  8.61E-05,  avg # of iterations =  5.3

     total cpu time spent up to now is       45.9 secs

     total energy              =    -325.51534672 Ry
     estimated scf accuracy    <       0.01337825 Ry

     iteration #  3     ecut=   370.00 Ry     beta= 0.70
     Davidson diagonalization with overlap
     ethr =  4.78E-05,  avg # of iterations =  4.2

     total cpu time spent up to now is       58.0 secs

     total energy              =    -325.52578520 Ry
     estimated scf accuracy    <       0.00605274 Ry

     iteration #  4     ecut=   370.00 Ry     beta= 0.70
     Davidson diagonalization with overlap
     ethr =  2.16E-05,  avg # of iterations =  2.0

     total cpu time spent up to now is       67.6 secs

     total energy              =    -325.54961729 Ry
     estimated scf accuracy    <       0.00226068 Ry

     iteration #  5     ecut=   370.00 Ry     beta= 0.70
     Davidson diagonalization with overlap
     ethr =  8.07E-06,  avg # of iterations =  3.8

     total cpu time spent up to now is       79.5 secs

     total energy              =    -325.55113970 Ry
     estimated scf accuracy    <       0.00018381 Ry

     iteration #  6     ecut=   370.00 Ry     beta= 0.70
     Davidson diagonalization with overlap
     ethr =  6.56E-07,  avg # of iterations =  2.8

     total cpu time spent up to now is       90.9 secs

     total energy              =    -325.55151629 Ry
     estimated scf accuracy    <       0.00000447 Ry

     iteration #  7     ecut=   370.00 Ry     beta= 0.70
     Davidson diagonalization with overlap
     ethr =  1.60E-08,  avg # of iterations =  4.4

     total cpu time spent up to now is      103.5 secs

     total energy              =    -325.55152033 Ry
     estimated scf accuracy    <       0.00000057 Ry

     iteration #  8     ecut=   370.00 Ry     beta= 0.70
     Davidson diagonalization with overlap
     ethr =  2.05E-09,  avg # of iterations =  2.7

     total cpu time spent up to now is      114.5 secs

     total energy              =    -325.55152038 Ry
     estimated scf accuracy    <       0.00000012 Ry

     iteration #  9     ecut=   370.00 Ry     beta= 0.70
     Davidson diagonalization with overlap
     ethr =  4.43E-10,  avg # of iterations =  4.2

     total cpu time spent up to now is      127.5 secs

     End of self-consistent calculation

     Number of k-points >= 100: set verbosity='high' to print the bands.

     highest occupied level (ev):     5.8371

!    total energy              =    -325.55152041 Ry
     estimated scf accuracy    <       0.00000007 Ry

     The total energy is the sum of the following terms:
     one-electron contribution =    -172.64165398 Ry
     hartree contribution      =     100.92914697 Ry
     xc contribution           =     -94.94845838 Ry
     ewald contribution        =    -158.89055502 Ry

     convergence has been achieved in   9 iterations

     Writing all to output data dir ./alpha-EOS/alpha.save/ :
     XML data file, charge density, pseudopotentials, collected wavefunctions

     init_run     :      6.13s CPU      6.31s WALL (       1 calls)
     electrons    :    119.30s CPU    121.08s WALL (       1 calls)

     Called by init_run:
     wfcinit      :      4.35s CPU      4.43s WALL (       1 calls)
     potinit      :      0.07s CPU      0.10s WALL (       1 calls)
     hinit0       :      0.96s CPU      0.98s WALL (       1 calls)

     Called by electrons:
     c_bands      :    101.43s CPU    102.86s WALL (      10 calls)
     sum_band     :     16.87s CPU     17.02s WALL (      10 calls)
     v_of_rho     :      0.61s CPU      0.67s WALL (      10 calls)
     newd         :      0.28s CPU      0.30s WALL (      10 calls)
     mix_rho      :      0.11s CPU      0.11s WALL (      10 calls)

     Called by c_bands:
     init_us_2    :      2.86s CPU      2.93s WALL (    2247 calls)
     cegterg      :     89.01s CPU     89.73s WALL (    1070 calls)

     Called by *egterg:
     cdiaghg      :      1.74s CPU      1.76s WALL (    4689 calls)
     h_psi        :     78.98s CPU     79.68s WALL (    4903 calls)
     s_psi        :      1.72s CPU      1.74s WALL (    4903 calls)
     g_psi        :      0.23s CPU      0.23s WALL (    3726 calls)

     Called by h_psi:
     h_psi:calbec :      4.88s CPU      4.93s WALL (    4903 calls)
     vloc_psi     :     71.24s CPU     71.86s WALL (    4903 calls)
     add_vuspsi   :      2.17s CPU      2.20s WALL (    4903 calls)

     General routines
     calbec       :      5.79s CPU      5.86s WALL (    5973 calls)
     fft          :      1.14s CPU      1.21s WALL (     111 calls)
     ffts         :      0.03s CPU      0.03s WALL (      10 calls)
     fftw         :     72.43s CPU     73.01s WALL (   94904 calls)

     Parallel routines

     PWSCF        :   2m 9.66s CPU   2m22.61s WALL


   This run was terminated on:   0: 7:34  26Feb2026            

=------------------------------------------------------------------------------=
   JOB DONE.
=------------------------------------------------------------------------------=
