
     Program PWSCF v.7.3.1 starts on 25Feb2026 at 23:14: 3 

     This program is part of the open-source Quantum ESPRESSO suite
     for quantum simulation of materials; please cite
         "P. Giannozzi et al., J. Phys.:Condens. Matter 21 395502 (2009);
         "P. Giannozzi et al., J. Phys.:Condens. Matter 29 465901 (2017);
         "P. Giannozzi et al., J. Chem. Phys. 152 154105 (2020);
          URL http://www.quantum-espresso.org", 
     in publications or presentations arising from this work. More details at
     http://www.quantum-espresso.org/quote

     Parallel version (MPI), running on   128 processors

     MPI processes distributed on     1 nodes
     240512 MiB available memory on the printing compute node when the environment starts

     Waiting for input...
     Reading input from standard input
     Message from routine read_cards :
     DEPRECATED: no units specified in ATOMIC_POSITIONS card
     Message from routine read_cards :
     ATOMIC_POSITIONS: units set to alat

     Current dimensions of program PWSCF are:
     Max number of different atomic species (ntypx) = 10
     Max number of k-points (npk) =  40000
     Max angular momentum in pseudopotentials (lmaxx) =  4

     K-points division:     npool     =       4
     R & G space division:  proc/nbgrp/npool/nimage =      32
     Subspace diagonalization in iterative solution of the eigenvalue problem:
     a serial algorithm will be used


     Parallelization info
     --------------------
     sticks:   dense  smooth     PW     G-vecs:    dense   smooth      PW
     Min         194     194     52                10147    10147    1426
     Max         195     195     54                10152    10152    1428
     Sum        6217    6217   1675               324763   324763   45671

     Using Slab Decomposition



     bravais-lattice index     =            2
     lattice parameter (alat)  =      11.0559  a.u.
     unit-cell volume          =     337.8506 (a.u.)^3
     number of atoms/cell      =            2
     number of atomic types    =            1
     number of electrons       =        28.00
     number of Kohn-Sham states=           14
     kinetic-energy cutoff     =     370.0000  Ry
     charge density cutoff     =    1480.0000  Ry
     scf convergence threshold =      1.0E-07
     mixing beta               =       0.7000
     number of iterations used =            8  plain     mixing
     Exchange-correlation=  SLA  PW   GGX  GGC
                           (   1   4   2   2   0   0   0)

     celldm(1)=  11.055920  celldm(2)=   0.000000  celldm(3)=   0.000000
     celldm(4)=   0.000000  celldm(5)=   0.000000  celldm(6)=   0.000000

     crystal axes: (cart. coord. in units of alat)
               a(1) = (  -0.500000   0.000000   0.500000 )  
               a(2) = (   0.000000   0.500000   0.500000 )  
               a(3) = (  -0.500000   0.500000   0.000000 )  

     reciprocal axes: (cart. coord. in units 2 pi/alat)
               b(1) = ( -1.000000 -1.000000  1.000000 )  
               b(2) = (  1.000000  1.000000  1.000000 )  
               b(3) = ( -1.000000  1.000000 -1.000000 )  


     PseudoPot. # 1 for Sn read from file:
     ./Sn.pw91-n-van.UPF
     MD5 check sum: a38d2a872edd1a4efd76c0a1a38f7031
     Pseudo is Ultrasoft + core correction, Zval = 14.0
     Generated by new atomic code, or converted to UPF format
     Using radial grid of  891 points,  6 beta functions with: 
                l(1) =   0
                l(2) =   0
                l(3) =   1
                l(4) =   1
                l(5) =   2
                l(6) =   2
     Q(r) pseudized with  8 coefficients,  rinner =    1.100   1.100   1.100
                                                       1.100   1.100

     atomic species   valence    mass     pseudopotential
     Sn               14.00   118.70000     Sn( 1.00)

     48 Sym. Ops., with inversion, found (24 have fractional translation)



   Cartesian axes

     site n.     atom                  positions (alat units)
         1        Sn     tau(   1) = (   0.0000000   0.0000000   0.0000000  )
         2        Sn     tau(   2) = (   0.2500000   0.2500000   0.2500000  )

     number of k points=   104

     Number of k-points >= 100: set verbosity='high' to print them.

     Dense  grid:   324763 G-vectors     FFT dimensions: (  96,  96,  96)

     Estimated max dynamical RAM per process >      24.61 MB

     Estimated total dynamical RAM >       2.84 GB

     Initial potential from superposition of free atoms

     starting charge      27.9964, renormalised to      28.0000
     Starting wfcs are   18 randomized atomic wfcs

     total cpu time spent up to now is        1.9 secs

     per-process dynamical memory:    24.9 Mb

     Self-consistent Calculation

     iteration #  1     ecut=   370.00 Ry     beta= 0.70
     Davidson diagonalization with overlap
     ethr =  1.00E-02,  avg # of iterations =  3.2

     Threshold (ethr) on eigenvalues was too large:
     Diagonalizing with lowered threshold

     Davidson diagonalization with overlap
     ethr =  5.65E-05,  avg # of iterations =  4.0

     total cpu time spent up to now is        4.9 secs

     total energy              =    -325.41441623 Ry
     estimated scf accuracy    <       0.01902830 Ry

     iteration #  2     ecut=   370.00 Ry     beta= 0.70
     Davidson diagonalization with overlap
     ethr =  6.80E-05,  avg # of iterations =  4.8

     total cpu time spent up to now is        6.8 secs

     total energy              =    -325.49599091 Ry
     estimated scf accuracy    <       0.04151126 Ry

     iteration #  3     ecut=   370.00 Ry     beta= 0.70
     Davidson diagonalization with overlap
     ethr =  6.80E-05,  avg # of iterations =  2.0

     total cpu time spent up to now is        8.0 secs

     total energy              =    -325.52321294 Ry
     estimated scf accuracy    <       0.01778562 Ry

     iteration #  4     ecut=   370.00 Ry     beta= 0.70
     Davidson diagonalization with overlap
     ethr =  6.35E-05,  avg # of iterations =  2.1

     total cpu time spent up to now is        9.3 secs

     total energy              =    -325.52703800 Ry
     estimated scf accuracy    <       0.00088353 Ry

     iteration #  5     ecut=   370.00 Ry     beta= 0.70
     Davidson diagonalization with overlap
     ethr =  3.16E-06,  avg # of iterations =  2.1

     total cpu time spent up to now is       10.6 secs

     total energy              =    -325.52734426 Ry
     estimated scf accuracy    <       0.00002946 Ry

     iteration #  6     ecut=   370.00 Ry     beta= 0.70
     Davidson diagonalization with overlap
     ethr =  1.05E-07,  avg # of iterations =  2.4

     total cpu time spent up to now is       12.2 secs

     total energy              =    -325.52735337 Ry
     estimated scf accuracy    <       0.00000374 Ry

     iteration #  7     ecut=   370.00 Ry     beta= 0.70
     Davidson diagonalization with overlap
     ethr =  1.34E-08,  avg # of iterations =  2.3

     total cpu time spent up to now is       13.6 secs

     total energy              =    -325.52735408 Ry
     estimated scf accuracy    <       0.00000022 Ry

     iteration #  8     ecut=   370.00 Ry     beta= 0.70
     Davidson diagonalization with overlap
     ethr =  7.82E-10,  avg # of iterations =  2.2

     total cpu time spent up to now is       14.9 secs

     End of self-consistent calculation

     Number of k-points >= 100: set verbosity='high' to print the bands.

     highest occupied level (ev):    12.7137

!    total energy              =    -325.52735410 Ry
     estimated scf accuracy    <          1.9E-09 Ry

     The total energy is the sum of the following terms:
     one-electron contribution =    -121.47618505 Ry
     hartree contribution      =      82.54408183 Ry
     xc contribution           =     -95.60030579 Ry
     ewald contribution        =    -190.99494509 Ry

     convergence has been achieved in   8 iterations

     Writing all to output data dir ./alpha-EOS/alpha.save/ :
     XML data file, charge density, pseudopotentials, collected wavefunctions

     init_run     :      1.54s CPU      1.63s WALL (       1 calls)
     electrons    :     12.65s CPU     13.05s WALL (       1 calls)

     Called by init_run:
     wfcinit      :      0.55s CPU      0.56s WALL (       1 calls)
     potinit      :      0.04s CPU      0.06s WALL (       1 calls)
     hinit0       :      0.69s CPU      0.70s WALL (       1 calls)

     Called by electrons:
     c_bands      :     10.37s CPU     10.60s WALL (       9 calls)
     sum_band     :      1.86s CPU      1.93s WALL (       9 calls)
     v_of_rho     :      0.25s CPU      0.28s WALL (       9 calls)
     newd         :      0.14s CPU      0.16s WALL (       9 calls)
     mix_rho      :      0.04s CPU      0.04s WALL (       9 calls)

     Called by c_bands:
     init_us_2    :      0.28s CPU      0.30s WALL (     494 calls)
     cegterg      :      9.71s CPU      9.83s WALL (     234 calls)

     Called by *egterg:
     cdiaghg      :      0.34s CPU      0.35s WALL (     970 calls)
     h_psi        :      8.59s CPU      8.70s WALL (    1022 calls)
     s_psi        :      0.21s CPU      0.21s WALL (    1022 calls)
     g_psi        :      0.03s CPU      0.03s WALL (     762 calls)

     Called by h_psi:
     h_psi:calbec :      0.35s CPU      0.35s WALL (    1022 calls)
     vloc_psi     :      7.96s CPU      8.06s WALL (    1022 calls)
     add_vuspsi   :      0.22s CPU      0.22s WALL (    1022 calls)

     General routines
     calbec       :      0.42s CPU      0.43s WALL (    1256 calls)
     fft          :      0.79s CPU      0.82s WALL (     100 calls)
     ffts         :      0.01s CPU      0.02s WALL (       9 calls)
     fftw         :      8.32s CPU      8.43s WALL (   21554 calls)

     Parallel routines

     PWSCF        :     14.93s CPU     16.68s WALL


   This run was terminated on:  23:14:20  25Feb2026            

=------------------------------------------------------------------------------=
   JOB DONE.
=------------------------------------------------------------------------------=
