
     Program PWSCF v.7.3.1 starts on 25Feb2026 at 23:16:19 

     This program is part of the open-source Quantum ESPRESSO suite
     for quantum simulation of materials; please cite
         "P. Giannozzi et al., J. Phys.:Condens. Matter 21 395502 (2009);
         "P. Giannozzi et al., J. Phys.:Condens. Matter 29 465901 (2017);
         "P. Giannozzi et al., J. Chem. Phys. 152 154105 (2020);
          URL http://www.quantum-espresso.org", 
     in publications or presentations arising from this work. More details at
     http://www.quantum-espresso.org/quote

     Parallel version (MPI), running on   128 processors

     MPI processes distributed on     1 nodes
     240542 MiB available memory on the printing compute node when the environment starts

     Waiting for input...
     Reading input from standard input
     Message from routine read_cards :
     DEPRECATED: no units specified in ATOMIC_POSITIONS card
     Message from routine read_cards :
     ATOMIC_POSITIONS: units set to alat

     Current dimensions of program PWSCF are:
     Max number of different atomic species (ntypx) = 10
     Max number of k-points (npk) =  40000
     Max angular momentum in pseudopotentials (lmaxx) =  4

     K-points division:     npool     =       4
     R & G space division:  proc/nbgrp/npool/nimage =      32
     Subspace diagonalization in iterative solution of the eigenvalue problem:
     a serial algorithm will be used


     Parallelization info
     --------------------
     sticks:   dense  smooth     PW     G-vecs:    dense   smooth      PW
     Min         200     200     54                10556    10556    1482
     Max         201     201     55                10559    10559    1484
     Sum        6409    6409   1735               337837   337837   47447

     Using Slab Decomposition



     bravais-lattice index     =            2
     lattice parameter (alat)  =      11.2027  a.u.
     unit-cell volume          =     351.4842 (a.u.)^3
     number of atoms/cell      =            2
     number of atomic types    =            1
     number of electrons       =        28.00
     number of Kohn-Sham states=           14
     kinetic-energy cutoff     =     370.0000  Ry
     charge density cutoff     =    1480.0000  Ry
     scf convergence threshold =      1.0E-07
     mixing beta               =       0.7000
     number of iterations used =            8  plain     mixing
     Exchange-correlation=  SLA  PW   GGX  GGC
                           (   1   4   2   2   0   0   0)

     celldm(1)=  11.202680  celldm(2)=   0.000000  celldm(3)=   0.000000
     celldm(4)=   0.000000  celldm(5)=   0.000000  celldm(6)=   0.000000

     crystal axes: (cart. coord. in units of alat)
               a(1) = (  -0.500000   0.000000   0.500000 )  
               a(2) = (   0.000000   0.500000   0.500000 )  
               a(3) = (  -0.500000   0.500000   0.000000 )  

     reciprocal axes: (cart. coord. in units 2 pi/alat)
               b(1) = ( -1.000000 -1.000000  1.000000 )  
               b(2) = (  1.000000  1.000000  1.000000 )  
               b(3) = ( -1.000000  1.000000 -1.000000 )  


     PseudoPot. # 1 for Sn read from file:
     ./Sn.pw91-n-van.UPF
     MD5 check sum: a38d2a872edd1a4efd76c0a1a38f7031
     Pseudo is Ultrasoft + core correction, Zval = 14.0
     Generated by new atomic code, or converted to UPF format
     Using radial grid of  891 points,  6 beta functions with: 
                l(1) =   0
                l(2) =   0
                l(3) =   1
                l(4) =   1
                l(5) =   2
                l(6) =   2
     Q(r) pseudized with  8 coefficients,  rinner =    1.100   1.100   1.100
                                                       1.100   1.100

     atomic species   valence    mass     pseudopotential
     Sn               14.00   118.70000     Sn( 1.00)

     48 Sym. Ops., with inversion, found (24 have fractional translation)



   Cartesian axes

     site n.     atom                  positions (alat units)
         1        Sn     tau(   1) = (   0.0000000   0.0000000   0.0000000  )
         2        Sn     tau(   2) = (   0.2500000   0.2500000   0.2500000  )

     number of k points=   104

     Number of k-points >= 100: set verbosity='high' to print them.

     Dense  grid:   337837 G-vectors     FFT dimensions: ( 100, 100, 100)

     Estimated max dynamical RAM per process >      26.25 MB

     Estimated total dynamical RAM >       3.04 GB

     Initial potential from superposition of free atoms

     starting charge      27.9964, renormalised to      28.0000
     Starting wfcs are   18 randomized atomic wfcs

     total cpu time spent up to now is        1.9 secs

     per-process dynamical memory:    25.9 Mb

     Self-consistent Calculation

     iteration #  1     ecut=   370.00 Ry     beta= 0.70
     Davidson diagonalization with overlap
     ethr =  1.00E-02,  avg # of iterations =  3.2

     Threshold (ethr) on eigenvalues was too large:
     Diagonalizing with lowered threshold

     Davidson diagonalization with overlap
     ethr =  5.70E-05,  avg # of iterations =  4.2

     total cpu time spent up to now is        5.8 secs

     total energy              =    -325.43224227 Ry
     estimated scf accuracy    <       0.01990717 Ry

     iteration #  2     ecut=   370.00 Ry     beta= 0.70
     Davidson diagonalization with overlap
     ethr =  7.11E-05,  avg # of iterations =  4.9

     total cpu time spent up to now is        8.3 secs

     total energy              =    -325.52391041 Ry
     estimated scf accuracy    <       0.04659785 Ry

     iteration #  3     ecut=   370.00 Ry     beta= 0.70
     Davidson diagonalization with overlap
     ethr =  7.11E-05,  avg # of iterations =  2.0

     total cpu time spent up to now is        9.9 secs

     total energy              =    -325.55204336 Ry
     estimated scf accuracy    <       0.01984695 Ry

     iteration #  4     ecut=   370.00 Ry     beta= 0.70
     Davidson diagonalization with overlap
     ethr =  7.09E-05,  avg # of iterations =  2.2

     total cpu time spent up to now is       11.6 secs

     total energy              =    -325.55625497 Ry
     estimated scf accuracy    <       0.00073602 Ry

     iteration #  5     ecut=   370.00 Ry     beta= 0.70
     Davidson diagonalization with overlap
     ethr =  2.63E-06,  avg # of iterations =  2.2

     total cpu time spent up to now is       13.4 secs

     total energy              =    -325.55646751 Ry
     estimated scf accuracy    <       0.00003344 Ry

     iteration #  6     ecut=   370.00 Ry     beta= 0.70
     Davidson diagonalization with overlap
     ethr =  1.19E-07,  avg # of iterations =  2.3

     total cpu time spent up to now is       15.3 secs

     total energy              =    -325.55647712 Ry
     estimated scf accuracy    <       0.00000366 Ry

     iteration #  7     ecut=   370.00 Ry     beta= 0.70
     Davidson diagonalization with overlap
     ethr =  1.31E-08,  avg # of iterations =  2.3

     total cpu time spent up to now is       17.3 secs

     total energy              =    -325.55647783 Ry
     estimated scf accuracy    <       0.00000021 Ry

     iteration #  8     ecut=   370.00 Ry     beta= 0.70
     Davidson diagonalization with overlap
     ethr =  7.67E-10,  avg # of iterations =  2.3

     total cpu time spent up to now is       18.9 secs

     End of self-consistent calculation

     Number of k-points >= 100: set verbosity='high' to print the bands.

     highest occupied level (ev):    12.0042

!    total energy              =    -325.55647785 Ry
     estimated scf accuracy    <          2.7E-09 Ry

     The total energy is the sum of the following terms:
     one-electron contribution =    -125.45884099 Ry
     hartree contribution      =      83.93860363 Ry
     xc contribution           =     -95.54341258 Ry
     ewald contribution        =    -188.49282790 Ry

     convergence has been achieved in   8 iterations

     Writing all to output data dir ./alpha-EOS/alpha.save/ :
     XML data file, charge density, pseudopotentials, collected wavefunctions

     init_run     :      1.54s CPU      1.63s WALL (       1 calls)
     electrons    :     16.60s CPU     17.11s WALL (       1 calls)

     Called by init_run:
     wfcinit      :      0.75s CPU      0.75s WALL (       1 calls)
     potinit      :      0.06s CPU      0.07s WALL (       1 calls)
     hinit0       :      0.46s CPU      0.49s WALL (       1 calls)

     Called by electrons:
     c_bands      :     13.58s CPU     13.93s WALL (       9 calls)
     sum_band     :      2.50s CPU      2.55s WALL (       9 calls)
     v_of_rho     :      0.34s CPU      0.37s WALL (       9 calls)
     newd         :      0.14s CPU      0.17s WALL (       9 calls)
     mix_rho      :      0.05s CPU      0.05s WALL (       9 calls)

     Called by c_bands:
     init_us_2    :      0.30s CPU      0.31s WALL (     494 calls)
     cegterg      :     12.90s CPU     13.12s WALL (     234 calls)

     Called by *egterg:
     cdiaghg      :      0.35s CPU      0.36s WALL (     994 calls)
     h_psi        :     11.84s CPU     12.03s WALL (    1046 calls)
     s_psi        :      0.22s CPU      0.22s WALL (    1046 calls)
     g_psi        :      0.03s CPU      0.03s WALL (     786 calls)

     Called by h_psi:
     h_psi:calbec :      0.42s CPU      0.43s WALL (    1046 calls)
     vloc_psi     :     11.11s CPU     11.28s WALL (    1046 calls)
     add_vuspsi   :      0.24s CPU      0.24s WALL (    1046 calls)

     General routines
     calbec       :      0.50s CPU      0.50s WALL (    1280 calls)
     fft          :      0.60s CPU      0.64s WALL (     100 calls)
     ffts         :      0.02s CPU      0.02s WALL (       9 calls)
     fftw         :     11.59s CPU     11.76s WALL (   21542 calls)

     Parallel routines

     PWSCF        :     18.76s CPU     20.68s WALL


   This run was terminated on:  23:16:40  25Feb2026            

=------------------------------------------------------------------------------=
   JOB DONE.
=------------------------------------------------------------------------------=
