
     Program PWSCF v.7.3.1 starts on 25Feb2026 at 23:18: 3 

     This program is part of the open-source Quantum ESPRESSO suite
     for quantum simulation of materials; please cite
         "P. Giannozzi et al., J. Phys.:Condens. Matter 21 395502 (2009);
         "P. Giannozzi et al., J. Phys.:Condens. Matter 29 465901 (2017);
         "P. Giannozzi et al., J. Chem. Phys. 152 154105 (2020);
          URL http://www.quantum-espresso.org", 
     in publications or presentations arising from this work. More details at
     http://www.quantum-espresso.org/quote

     Parallel version (MPI), running on   128 processors

     MPI processes distributed on     1 nodes
     240465 MiB available memory on the printing compute node when the environment starts

     Waiting for input...
     Reading input from standard input

     Current dimensions of program PWSCF are:
     Max number of different atomic species (ntypx) = 10
     Max number of k-points (npk) =  40000
     Max angular momentum in pseudopotentials (lmaxx) =  4

     K-points division:     npool     =       4
     R & G space division:  proc/nbgrp/npool/nimage =      32
     Subspace diagonalization in iterative solution of the eigenvalue problem:
     a serial algorithm will be used


     Parallelization info
     --------------------
     sticks:   dense  smooth     PW     G-vecs:    dense   smooth      PW
     Min         203     203     54                10851    10851    1511
     Max         204     204     55                10854    10854    1516
     Sum        6505    6505   1759               347269   347269   48455

     Using Slab Decomposition



     bravais-lattice index     =            2
     lattice parameter (alat)  =      11.3005  a.u.
     unit-cell volume          =     360.7741 (a.u.)^3
     number of atoms/cell      =            2
     number of atomic types    =            1
     number of electrons       =        28.00
     number of Kohn-Sham states=           14
     kinetic-energy cutoff     =     370.0000  Ry
     charge density cutoff     =    1480.0000  Ry
     scf convergence threshold =      1.0E-07
     mixing beta               =       0.7000
     number of iterations used =            8  plain     mixing
     Exchange-correlation=  SLA  PW   GGX  GGC
                           (   1   4   2   2   0   0   0)

     celldm(1)=  11.300520  celldm(2)=   0.000000  celldm(3)=   0.000000
     celldm(4)=   0.000000  celldm(5)=   0.000000  celldm(6)=   0.000000

     crystal axes: (cart. coord. in units of alat)
               a(1) = (  -0.500000   0.000000   0.500000 )  
               a(2) = (   0.000000   0.500000   0.500000 )  
               a(3) = (  -0.500000   0.500000   0.000000 )  

     reciprocal axes: (cart. coord. in units 2 pi/alat)
               b(1) = ( -1.000000 -1.000000  1.000000 )  
               b(2) = (  1.000000  1.000000  1.000000 )  
               b(3) = ( -1.000000  1.000000 -1.000000 )  


     PseudoPot. # 1 for Sn read from file:
     ./Sn.pw91-n-van.UPF
     MD5 check sum: a38d2a872edd1a4efd76c0a1a38f7031
     Pseudo is Ultrasoft + core correction, Zval = 14.0
     Generated by new atomic code, or converted to UPF format
     Using radial grid of  891 points,  6 beta functions with: 
                l(1) =   0
                l(2) =   0
                l(3) =   1
                l(4) =   1
                l(5) =   2
                l(6) =   2
     Q(r) pseudized with  8 coefficients,  rinner =    1.100   1.100   1.100
                                                       1.100   1.100

     atomic species   valence    mass     pseudopotential
     Sn               14.00   118.70000     Sn( 1.00)

      8 Sym. Ops., with inversion, found ( 4 have fractional translation)



   Cartesian axes

     site n.     atom                  positions (alat units)
         1        Sn     tau(   1) = (  -0.1875000   0.0000000   0.0625000  )
         2        Sn     tau(   2) = (   0.1875000   0.0000000  -0.0625000  )

     number of k points=   428

     Number of k-points >= 100: set verbosity='high' to print them.

     Dense  grid:   347269 G-vectors     FFT dimensions: ( 100, 100, 100)

     Estimated max dynamical RAM per process >      50.26 MB

     Estimated total dynamical RAM >       6.03 GB

     Initial potential from superposition of free atoms

     starting charge      27.9964, renormalised to      28.0000
     Starting wfcs are   18 randomized atomic wfcs

     total cpu time spent up to now is        4.3 secs

     per-process dynamical memory:    52.1 Mb

     Self-consistent Calculation

     iteration #  1     ecut=   370.00 Ry     beta= 0.70
     Davidson diagonalization with overlap
     ethr =  1.00E-02,  avg # of iterations =  3.5

     Threshold (ethr) on eigenvalues was too large:
     Diagonalizing with lowered threshold

     Davidson diagonalization with overlap
     ethr =  8.95E-05,  avg # of iterations =  4.6

     total cpu time spent up to now is       19.6 secs

     total energy              =    -325.29330163 Ry
     estimated scf accuracy    <       0.03009836 Ry

     iteration #  2     ecut=   370.00 Ry     beta= 0.70
     Davidson diagonalization with overlap
     ethr =  1.07E-04,  avg # of iterations =  5.2

     total cpu time spent up to now is       29.6 secs

     total energy              =    -325.39548444 Ry
     estimated scf accuracy    <       0.03777909 Ry

     iteration #  3     ecut=   370.00 Ry     beta= 0.70
     Davidson diagonalization with overlap
     ethr =  1.07E-04,  avg # of iterations =  2.0

     total cpu time spent up to now is       36.2 secs

     total energy              =    -325.42747756 Ry
     estimated scf accuracy    <       0.01009089 Ry

     iteration #  4     ecut=   370.00 Ry     beta= 0.70
     Davidson diagonalization with overlap
     ethr =  3.60E-05,  avg # of iterations =  2.6

     total cpu time spent up to now is       43.1 secs

     total energy              =    -325.43221861 Ry
     estimated scf accuracy    <       0.00006738 Ry

     iteration #  5     ecut=   370.00 Ry     beta= 0.70
     Davidson diagonalization with overlap
     ethr =  2.41E-07,  avg # of iterations =  4.8

     total cpu time spent up to now is       51.3 secs

     total energy              =    -325.43255820 Ry
     estimated scf accuracy    <       0.00000721 Ry

     iteration #  6     ecut=   370.00 Ry     beta= 0.70
     Davidson diagonalization with overlap
     ethr =  2.57E-08,  avg # of iterations =  2.1

     total cpu time spent up to now is       58.0 secs

     End of self-consistent calculation

     Number of k-points >= 100: set verbosity='high' to print the bands.

     highest occupied level (ev):    12.3688

!    total energy              =    -325.43255905 Ry
     estimated scf accuracy    <       0.00000005 Ry

     The total energy is the sum of the following terms:
     one-electron contribution =    -123.65099898 Ry
     hartree contribution      =      82.47955233 Ry
     xc contribution           =     -95.44960871 Ry
     ewald contribution        =    -188.81150369 Ry

     convergence has been achieved in   6 iterations

     Writing all to output data dir ./alpha-EOS/alpha.save/ :
     XML data file, charge density, pseudopotentials, collected wavefunctions

     init_run     :      3.78s CPU      3.92s WALL (       1 calls)
     electrons    :     52.52s CPU     53.79s WALL (       1 calls)

     Called by init_run:
     wfcinit      :      2.92s CPU      3.00s WALL (       1 calls)
     potinit      :      0.04s CPU      0.06s WALL (       1 calls)
     hinit0       :      0.50s CPU      0.52s WALL (       1 calls)

     Called by electrons:
     c_bands      :     44.70s CPU     45.76s WALL (       7 calls)
     sum_band     :      7.42s CPU      7.51s WALL (       7 calls)
     v_of_rho     :      0.26s CPU      0.29s WALL (       7 calls)
     newd         :      0.14s CPU      0.14s WALL (       7 calls)
     mix_rho      :      0.03s CPU      0.03s WALL (       7 calls)

     Called by c_bands:
     init_us_2    :      1.00s CPU      1.03s WALL (    1605 calls)
     cegterg      :     41.10s CPU     41.75s WALL (     749 calls)

     Called by *egterg:
     cdiaghg      :      1.21s CPU      1.23s WALL (    3357 calls)
     h_psi        :     37.87s CPU     38.48s WALL (    3571 calls)
     s_psi        :      0.73s CPU      0.74s WALL (    3571 calls)
     g_psi        :      0.10s CPU      0.10s WALL (    2715 calls)

     Called by h_psi:
     h_psi:calbec :      1.37s CPU      1.40s WALL (    3571 calls)
     vloc_psi     :     35.47s CPU     36.02s WALL (    3571 calls)
     add_vuspsi   :      0.80s CPU      0.81s WALL (    3571 calls)

     General routines
     calbec       :      1.62s CPU      1.65s WALL (    4320 calls)
     fft          :      0.57s CPU      0.61s WALL (      78 calls)
     ffts         :      0.02s CPU      0.02s WALL (       7 calls)
     fftw         :     36.94s CPU     37.46s WALL (   68962 calls)

     Parallel routines

     PWSCF        :     57.68s CPU   1m 6.80s WALL


   This run was terminated on:  23:19: 9  25Feb2026            

=------------------------------------------------------------------------------=
   JOB DONE.
=------------------------------------------------------------------------------=
