
     Program PWSCF v.7.3.1 starts on 25Feb2026 at 23:19:37 

     This program is part of the open-source Quantum ESPRESSO suite
     for quantum simulation of materials; please cite
         "P. Giannozzi et al., J. Phys.:Condens. Matter 21 395502 (2009);
         "P. Giannozzi et al., J. Phys.:Condens. Matter 29 465901 (2017);
         "P. Giannozzi et al., J. Chem. Phys. 152 154105 (2020);
          URL http://www.quantum-espresso.org", 
     in publications or presentations arising from this work. More details at
     http://www.quantum-espresso.org/quote

     Parallel version (MPI), running on   128 processors

     MPI processes distributed on     1 nodes
     236949 MiB available memory on the printing compute node when the environment starts

     Waiting for input...
     Reading input from standard input
     Message from routine read_cards :
     DEPRECATED: no units specified in ATOMIC_POSITIONS card
     Message from routine read_cards :
     ATOMIC_POSITIONS: units set to alat

     Current dimensions of program PWSCF are:
     Max number of different atomic species (ntypx) = 10
     Max number of k-points (npk) =  40000
     Max angular momentum in pseudopotentials (lmaxx) =  4

     K-points division:     npool     =       4
     R & G space division:  proc/nbgrp/npool/nimage =      32
     Subspace diagonalization in iterative solution of the eigenvalue problem:
     a serial algorithm will be used


     Parallelization info
     --------------------
     sticks:   dense  smooth     PW     G-vecs:    dense   smooth      PW
     Min         205     205     55                10977    10977    1537
     Max         206     206     56                10980    10980    1540
     Sum        6565    6565   1777               351285   351285   49229

     Using Slab Decomposition



     bravais-lattice index     =            2
     lattice parameter (alat)  =      11.3494  a.u.
     unit-cell volume          =     365.4797 (a.u.)^3
     number of atoms/cell      =            2
     number of atomic types    =            1
     number of electrons       =        28.00
     number of Kohn-Sham states=           14
     kinetic-energy cutoff     =     370.0000  Ry
     charge density cutoff     =    1480.0000  Ry
     scf convergence threshold =      1.0E-07
     mixing beta               =       0.7000
     number of iterations used =            8  plain     mixing
     Exchange-correlation=  SLA  PW   GGX  GGC
                           (   1   4   2   2   0   0   0)

     celldm(1)=  11.349440  celldm(2)=   0.000000  celldm(3)=   0.000000
     celldm(4)=   0.000000  celldm(5)=   0.000000  celldm(6)=   0.000000

     crystal axes: (cart. coord. in units of alat)
               a(1) = (  -0.500000   0.000000   0.500000 )  
               a(2) = (   0.000000   0.500000   0.500000 )  
               a(3) = (  -0.500000   0.500000   0.000000 )  

     reciprocal axes: (cart. coord. in units 2 pi/alat)
               b(1) = ( -1.000000 -1.000000  1.000000 )  
               b(2) = (  1.000000  1.000000  1.000000 )  
               b(3) = ( -1.000000  1.000000 -1.000000 )  


     PseudoPot. # 1 for Sn read from file:
     ./Sn.pw91-n-van.UPF
     MD5 check sum: a38d2a872edd1a4efd76c0a1a38f7031
     Pseudo is Ultrasoft + core correction, Zval = 14.0
     Generated by new atomic code, or converted to UPF format
     Using radial grid of  891 points,  6 beta functions with: 
                l(1) =   0
                l(2) =   0
                l(3) =   1
                l(4) =   1
                l(5) =   2
                l(6) =   2
     Q(r) pseudized with  8 coefficients,  rinner =    1.100   1.100   1.100
                                                       1.100   1.100

     atomic species   valence    mass     pseudopotential
     Sn               14.00   118.70000     Sn( 1.00)

     48 Sym. Ops., with inversion, found (24 have fractional translation)



   Cartesian axes

     site n.     atom                  positions (alat units)
         1        Sn     tau(   1) = (   0.0000000   0.0000000   0.0000000  )
         2        Sn     tau(   2) = (   0.2500000   0.2500000   0.2500000  )

     number of k points=   104

     Number of k-points >= 100: set verbosity='high' to print them.

     Dense  grid:   351285 G-vectors     FFT dimensions: ( 100, 100, 100)

     Estimated max dynamical RAM per process >      27.06 MB

     Estimated total dynamical RAM >       3.13 GB

     Initial potential from superposition of free atoms

     starting charge      27.9964, renormalised to      28.0000
     Starting wfcs are   18 randomized atomic wfcs

     total cpu time spent up to now is        1.9 secs

     per-process dynamical memory:    26.6 Mb

     Self-consistent Calculation

     iteration #  1     ecut=   370.00 Ry     beta= 0.70
     Davidson diagonalization with overlap
     ethr =  1.00E-02,  avg # of iterations =  3.1

     Threshold (ethr) on eigenvalues was too large:
     Diagonalizing with lowered threshold

     Davidson diagonalization with overlap
     ethr =  5.87E-05,  avg # of iterations =  4.1

     total cpu time spent up to now is        5.8 secs

     total energy              =    -325.45573314 Ry
     estimated scf accuracy    <       0.02025276 Ry

     iteration #  2     ecut=   370.00 Ry     beta= 0.70
     Davidson diagonalization with overlap
     ethr =  7.23E-05,  avg # of iterations =  4.9

     total cpu time spent up to now is        8.3 secs

     total energy              =    -325.54793363 Ry
     estimated scf accuracy    <       0.04720483 Ry

     iteration #  3     ecut=   370.00 Ry     beta= 0.70
     Davidson diagonalization with overlap
     ethr =  7.23E-05,  avg # of iterations =  2.0

     total cpu time spent up to now is       10.0 secs

     total energy              =    -325.57634640 Ry
     estimated scf accuracy    <       0.01993435 Ry

     iteration #  4     ecut=   370.00 Ry     beta= 0.70
     Davidson diagonalization with overlap
     ethr =  7.12E-05,  avg # of iterations =  2.1

     total cpu time spent up to now is       11.7 secs

     total energy              =    -325.58046980 Ry
     estimated scf accuracy    <       0.00070111 Ry

     iteration #  5     ecut=   370.00 Ry     beta= 0.70
     Davidson diagonalization with overlap
     ethr =  2.50E-06,  avg # of iterations =  2.3

     total cpu time spent up to now is       13.5 secs

     total energy              =    -325.58068125 Ry
     estimated scf accuracy    <       0.00003749 Ry

     iteration #  6     ecut=   370.00 Ry     beta= 0.70
     Davidson diagonalization with overlap
     ethr =  1.34E-07,  avg # of iterations =  2.4

     total cpu time spent up to now is       15.5 secs

     total energy              =    -325.58074154 Ry
     estimated scf accuracy    <       0.00000355 Ry

     iteration #  7     ecut=   370.00 Ry     beta= 0.70
     Davidson diagonalization with overlap
     ethr =  1.27E-08,  avg # of iterations =  2.5

     total cpu time spent up to now is       17.5 secs

     total energy              =    -325.58074228 Ry
     estimated scf accuracy    <       0.00000051 Ry

     iteration #  8     ecut=   370.00 Ry     beta= 0.70
     Davidson diagonalization with overlap
     ethr =  1.83E-09,  avg # of iterations =  2.0

     total cpu time spent up to now is       19.2 secs

     End of self-consistent calculation

     Number of k-points >= 100: set verbosity='high' to print the bands.

     highest occupied level (ev):    11.3351

!    total energy              =    -325.58074232 Ry
     estimated scf accuracy    <       0.00000001 Ry

     The total energy is the sum of the following terms:
     one-electron contribution =    -129.34808397 Ry
     hartree contribution      =      85.31243087 Ry
     xc contribution           =     -95.48966858 Ry
     ewald contribution        =    -186.05542065 Ry

     convergence has been achieved in   8 iterations

     Writing all to output data dir ./alpha-EOS/alpha.save/ :
     XML data file, charge density, pseudopotentials, collected wavefunctions

     init_run     :      1.56s CPU      1.65s WALL (       1 calls)
     electrons    :     16.93s CPU     17.31s WALL (       1 calls)

     Called by init_run:
     wfcinit      :      0.70s CPU      0.74s WALL (       1 calls)
     potinit      :      0.05s CPU      0.07s WALL (       1 calls)
     hinit0       :      0.48s CPU      0.48s WALL (       1 calls)

     Called by electrons:
     c_bands      :     13.85s CPU     14.09s WALL (       9 calls)
     sum_band     :      2.55s CPU      2.59s WALL (       9 calls)
     v_of_rho     :      0.35s CPU      0.37s WALL (       9 calls)
     newd         :      0.16s CPU      0.18s WALL (       9 calls)
     mix_rho      :      0.05s CPU      0.05s WALL (       9 calls)

     Called by c_bands:
     init_us_2    :      0.30s CPU      0.32s WALL (     494 calls)
     cegterg      :     13.14s CPU     13.24s WALL (     234 calls)

     Called by *egterg:
     cdiaghg      :      0.36s CPU      0.36s WALL (     984 calls)
     h_psi        :     11.95s CPU     12.06s WALL (    1036 calls)
     s_psi        :      0.23s CPU      0.23s WALL (    1036 calls)
     g_psi        :      0.03s CPU      0.03s WALL (     776 calls)

     Called by h_psi:
     h_psi:calbec :      0.44s CPU      0.44s WALL (    1036 calls)
     vloc_psi     :     11.21s CPU     11.31s WALL (    1036 calls)
     add_vuspsi   :      0.24s CPU      0.25s WALL (    1036 calls)

     General routines
     calbec       :      0.51s CPU      0.52s WALL (    1270 calls)
     fft          :      0.63s CPU      0.65s WALL (     100 calls)
     ffts         :      0.02s CPU      0.02s WALL (       9 calls)
     fftw         :     11.71s CPU     11.80s WALL (   21566 calls)

     Parallel routines

     PWSCF        :     19.02s CPU     21.15s WALL


   This run was terminated on:  23:19:58  25Feb2026            

=------------------------------------------------------------------------------=
   JOB DONE.
=------------------------------------------------------------------------------=
