
     Program PWSCF v.7.3.1 starts on 25Feb2026 at 23:20:50 

     This program is part of the open-source Quantum ESPRESSO suite
     for quantum simulation of materials; please cite
         "P. Giannozzi et al., J. Phys.:Condens. Matter 21 395502 (2009);
         "P. Giannozzi et al., J. Phys.:Condens. Matter 29 465901 (2017);
         "P. Giannozzi et al., J. Chem. Phys. 152 154105 (2020);
          URL http://www.quantum-espresso.org", 
     in publications or presentations arising from this work. More details at
     http://www.quantum-espresso.org/quote

     Parallel version (MPI), running on   128 processors

     MPI processes distributed on     1 nodes
     236925 MiB available memory on the printing compute node when the environment starts

     Waiting for input...
     Reading input from standard input
     Message from routine read_cards :
     DEPRECATED: no units specified in ATOMIC_POSITIONS card
     Message from routine read_cards :
     ATOMIC_POSITIONS: units set to alat

     Current dimensions of program PWSCF are:
     Max number of different atomic species (ntypx) = 10
     Max number of k-points (npk) =  40000
     Max angular momentum in pseudopotentials (lmaxx) =  4

     K-points division:     npool     =       4
     R & G space division:  proc/nbgrp/npool/nimage =      32
     Subspace diagonalization in iterative solution of the eigenvalue problem:
     a serial algorithm will be used


     Parallelization info
     --------------------
     sticks:   dense  smooth     PW     G-vecs:    dense   smooth      PW
     Min         208     208     55                11206    11206    1566
     Max         209     209     56                11210    11210    1571
     Sum        6661    6661   1789               358629   358629   50237

     Using Slab Decomposition



     bravais-lattice index     =            2
     lattice parameter (alat)  =      11.4228  a.u.
     unit-cell volume          =     372.6147 (a.u.)^3
     number of atoms/cell      =            2
     number of atomic types    =            1
     number of electrons       =        28.00
     number of Kohn-Sham states=           14
     kinetic-energy cutoff     =     370.0000  Ry
     charge density cutoff     =    1480.0000  Ry
     scf convergence threshold =      1.0E-07
     mixing beta               =       0.7000
     number of iterations used =            8  plain     mixing
     Exchange-correlation=  SLA  PW   GGX  GGC
                           (   1   4   2   2   0   0   0)

     celldm(1)=  11.422820  celldm(2)=   0.000000  celldm(3)=   0.000000
     celldm(4)=   0.000000  celldm(5)=   0.000000  celldm(6)=   0.000000

     crystal axes: (cart. coord. in units of alat)
               a(1) = (  -0.500000   0.000000   0.500000 )  
               a(2) = (   0.000000   0.500000   0.500000 )  
               a(3) = (  -0.500000   0.500000   0.000000 )  

     reciprocal axes: (cart. coord. in units 2 pi/alat)
               b(1) = ( -1.000000 -1.000000  1.000000 )  
               b(2) = (  1.000000  1.000000  1.000000 )  
               b(3) = ( -1.000000  1.000000 -1.000000 )  


     PseudoPot. # 1 for Sn read from file:
     ./Sn.pw91-n-van.UPF
     MD5 check sum: a38d2a872edd1a4efd76c0a1a38f7031
     Pseudo is Ultrasoft + core correction, Zval = 14.0
     Generated by new atomic code, or converted to UPF format
     Using radial grid of  891 points,  6 beta functions with: 
                l(1) =   0
                l(2) =   0
                l(3) =   1
                l(4) =   1
                l(5) =   2
                l(6) =   2
     Q(r) pseudized with  8 coefficients,  rinner =    1.100   1.100   1.100
                                                       1.100   1.100

     atomic species   valence    mass     pseudopotential
     Sn               14.00   118.70000     Sn( 1.00)

     48 Sym. Ops., with inversion, found (24 have fractional translation)



   Cartesian axes

     site n.     atom                  positions (alat units)
         1        Sn     tau(   1) = (   0.0000000   0.0000000   0.0000000  )
         2        Sn     tau(   2) = (   0.2500000   0.2500000   0.2500000  )

     number of k points=   104

     Number of k-points >= 100: set verbosity='high' to print them.

     Dense  grid:   358629 G-vectors     FFT dimensions: ( 100, 100, 100)

     Estimated max dynamical RAM per process >      27.50 MB

     Estimated total dynamical RAM >       3.18 GB

     Initial potential from superposition of free atoms

     starting charge      27.9964, renormalised to      28.0000
     Starting wfcs are   18 randomized atomic wfcs

     total cpu time spent up to now is        1.9 secs

     per-process dynamical memory:    26.8 Mb

     Self-consistent Calculation

     iteration #  1     ecut=   370.00 Ry     beta= 0.70
     Davidson diagonalization with overlap
     ethr =  1.00E-02,  avg # of iterations =  3.2

     Threshold (ethr) on eigenvalues was too large:
     Diagonalizing with lowered threshold

     Davidson diagonalization with overlap
     ethr =  5.90E-05,  avg # of iterations =  4.2

     total cpu time spent up to now is        5.9 secs

     total energy              =    -325.46326097 Ry
     estimated scf accuracy    <       0.02056759 Ry

     iteration #  2     ecut=   370.00 Ry     beta= 0.70
     Davidson diagonalization with overlap
     ethr =  7.35E-05,  avg # of iterations =  5.0

     total cpu time spent up to now is        8.4 secs

     total energy              =    -325.55819995 Ry
     estimated scf accuracy    <       0.04835881 Ry

     iteration #  3     ecut=   370.00 Ry     beta= 0.70
     Davidson diagonalization with overlap
     ethr =  7.35E-05,  avg # of iterations =  2.0

     total cpu time spent up to now is       10.1 secs

     total energy              =    -325.58678846 Ry
     estimated scf accuracy    <       0.02037420 Ry

     iteration #  4     ecut=   370.00 Ry     beta= 0.70
     Davidson diagonalization with overlap
     ethr =  7.28E-05,  avg # of iterations =  2.1

     total cpu time spent up to now is       11.8 secs

     total energy              =    -325.59096240 Ry
     estimated scf accuracy    <       0.00062524 Ry

     iteration #  5     ecut=   370.00 Ry     beta= 0.70
     Davidson diagonalization with overlap
     ethr =  2.23E-06,  avg # of iterations =  2.4

     total cpu time spent up to now is       13.6 secs

     total energy              =    -325.59121187 Ry
     estimated scf accuracy    <       0.00003873 Ry

     iteration #  6     ecut=   370.00 Ry     beta= 0.70
     Davidson diagonalization with overlap
     ethr =  1.38E-07,  avg # of iterations =  2.3

     total cpu time spent up to now is       15.5 secs

     total energy              =    -325.59122571 Ry
     estimated scf accuracy    <       0.00000264 Ry

     iteration #  7     ecut=   370.00 Ry     beta= 0.70
     Davidson diagonalization with overlap
     ethr =  9.44E-09,  avg # of iterations =  2.6

     total cpu time spent up to now is       17.6 secs

     total energy              =    -325.59122629 Ry
     estimated scf accuracy    <       0.00000018 Ry

     iteration #  8     ecut=   370.00 Ry     beta= 0.70
     Davidson diagonalization with overlap
     ethr =  6.48E-10,  avg # of iterations =  2.2

     total cpu time spent up to now is       19.4 secs

     End of self-consistent calculation

     Number of k-points >= 100: set verbosity='high' to print the bands.

     highest occupied level (ev):    11.0145

!    total energy              =    -325.59122631 Ry
     estimated scf accuracy    <          1.9E-09 Ry

     The total energy is the sum of the following terms:
     one-electron contribution =    -131.25939095 Ry
     hartree contribution      =      85.99239430 Ry
     xc contribution           =     -95.46402585 Ry
     ewald contribution        =    -184.86020381 Ry

     convergence has been achieved in   8 iterations

     Writing all to output data dir ./alpha-EOS/alpha.save/ :
     XML data file, charge density, pseudopotentials, collected wavefunctions

     init_run     :      1.51s CPU      1.63s WALL (       1 calls)
     electrons    :     17.10s CPU     17.53s WALL (       1 calls)

     Called by init_run:
     wfcinit      :      0.71s CPU      0.75s WALL (       1 calls)
     potinit      :      0.04s CPU      0.07s WALL (       1 calls)
     hinit0       :      0.46s CPU      0.48s WALL (       1 calls)

     Called by electrons:
     c_bands      :     13.98s CPU     14.27s WALL (       9 calls)
     sum_band     :      2.56s CPU      2.61s WALL (       9 calls)
     v_of_rho     :      0.34s CPU      0.37s WALL (       9 calls)
     newd         :      0.17s CPU      0.18s WALL (       9 calls)
     mix_rho      :      0.04s CPU      0.05s WALL (       9 calls)

     Called by c_bands:
     init_us_2    :      0.31s CPU      0.33s WALL (     494 calls)
     cegterg      :     13.21s CPU     13.37s WALL (     234 calls)

     Called by *egterg:
     cdiaghg      :      0.36s CPU      0.37s WALL (    1010 calls)
     h_psi        :     12.00s CPU     12.15s WALL (    1062 calls)
     s_psi        :      0.23s CPU      0.23s WALL (    1062 calls)
     g_psi        :      0.03s CPU      0.03s WALL (     802 calls)

     Called by h_psi:
     h_psi:calbec :      0.45s CPU      0.46s WALL (    1062 calls)
     vloc_psi     :     11.22s CPU     11.36s WALL (    1062 calls)
     add_vuspsi   :      0.25s CPU      0.26s WALL (    1062 calls)

     General routines
     calbec       :      0.53s CPU      0.54s WALL (    1296 calls)
     fft          :      0.62s CPU      0.66s WALL (     100 calls)
     ffts         :      0.02s CPU      0.02s WALL (       9 calls)
     fftw         :     11.71s CPU     11.85s WALL (   21594 calls)

     Parallel routines

     PWSCF        :     19.43s CPU     21.58s WALL


   This run was terminated on:  23:21:12  25Feb2026            

=------------------------------------------------------------------------------=
   JOB DONE.
=------------------------------------------------------------------------------=
