
     Program PWSCF v.7.3.1 starts on 25Feb2026 at 23:22:28 

     This program is part of the open-source Quantum ESPRESSO suite
     for quantum simulation of materials; please cite
         "P. Giannozzi et al., J. Phys.:Condens. Matter 21 395502 (2009);
         "P. Giannozzi et al., J. Phys.:Condens. Matter 29 465901 (2017);
         "P. Giannozzi et al., J. Chem. Phys. 152 154105 (2020);
          URL http://www.quantum-espresso.org", 
     in publications or presentations arising from this work. More details at
     http://www.quantum-espresso.org/quote

     Parallel version (MPI), running on   128 processors

     MPI processes distributed on     1 nodes
     236843 MiB available memory on the printing compute node when the environment starts

     Waiting for input...
     Reading input from standard input
     Message from routine read_cards :
     DEPRECATED: no units specified in ATOMIC_POSITIONS card
     Message from routine read_cards :
     ATOMIC_POSITIONS: units set to alat

     Current dimensions of program PWSCF are:
     Max number of different atomic species (ntypx) = 10
     Max number of k-points (npk) =  40000
     Max angular momentum in pseudopotentials (lmaxx) =  4

     K-points division:     npool     =       4
     R & G space division:  proc/nbgrp/npool/nimage =      32
     Subspace diagonalization in iterative solution of the eigenvalue problem:
     a serial algorithm will be used


     Parallelization info
     --------------------
     sticks:   dense  smooth     PW     G-vecs:    dense   smooth      PW
     Min         210     210     56                11477    11477    1605
     Max         211     211     57                11484    11484    1610
     Sum        6751    6751   1813               367419   367419   51445

     Using Slab Decomposition



     bravais-lattice index     =            2
     lattice parameter (alat)  =      11.5207  a.u.
     unit-cell volume          =     382.2716 (a.u.)^3
     number of atoms/cell      =            2
     number of atomic types    =            1
     number of electrons       =        28.00
     number of Kohn-Sham states=           14
     kinetic-energy cutoff     =     370.0000  Ry
     charge density cutoff     =    1480.0000  Ry
     scf convergence threshold =      1.0E-07
     mixing beta               =       0.7000
     number of iterations used =            8  plain     mixing
     Exchange-correlation=  SLA  PW   GGX  GGC
                           (   1   4   2   2   0   0   0)

     celldm(1)=  11.520660  celldm(2)=   0.000000  celldm(3)=   0.000000
     celldm(4)=   0.000000  celldm(5)=   0.000000  celldm(6)=   0.000000

     crystal axes: (cart. coord. in units of alat)
               a(1) = (  -0.500000   0.000000   0.500000 )  
               a(2) = (   0.000000   0.500000   0.500000 )  
               a(3) = (  -0.500000   0.500000   0.000000 )  

     reciprocal axes: (cart. coord. in units 2 pi/alat)
               b(1) = ( -1.000000 -1.000000  1.000000 )  
               b(2) = (  1.000000  1.000000  1.000000 )  
               b(3) = ( -1.000000  1.000000 -1.000000 )  


     PseudoPot. # 1 for Sn read from file:
     ./Sn.pw91-n-van.UPF
     MD5 check sum: a38d2a872edd1a4efd76c0a1a38f7031
     Pseudo is Ultrasoft + core correction, Zval = 14.0
     Generated by new atomic code, or converted to UPF format
     Using radial grid of  891 points,  6 beta functions with: 
                l(1) =   0
                l(2) =   0
                l(3) =   1
                l(4) =   1
                l(5) =   2
                l(6) =   2
     Q(r) pseudized with  8 coefficients,  rinner =    1.100   1.100   1.100
                                                       1.100   1.100

     atomic species   valence    mass     pseudopotential
     Sn               14.00   118.70000     Sn( 1.00)

     48 Sym. Ops., with inversion, found (24 have fractional translation)



   Cartesian axes

     site n.     atom                  positions (alat units)
         1        Sn     tau(   1) = (   0.0000000   0.0000000   0.0000000  )
         2        Sn     tau(   2) = (   0.2500000   0.2500000   0.2500000  )

     number of k points=   104

     Number of k-points >= 100: set verbosity='high' to print them.

     Dense  grid:   367419 G-vectors     FFT dimensions: ( 100, 100, 100)

     Estimated max dynamical RAM per process >      28.04 MB

     Estimated total dynamical RAM >       3.24 GB

     Initial potential from superposition of free atoms

     starting charge      27.9964, renormalised to      28.0000
     Starting wfcs are   18 randomized atomic wfcs

     total cpu time spent up to now is        2.0 secs

     per-process dynamical memory:    27.5 Mb

     Self-consistent Calculation

     iteration #  1     ecut=   370.00 Ry     beta= 0.70
     Davidson diagonalization with overlap
     ethr =  1.00E-02,  avg # of iterations =  3.1

     Threshold (ethr) on eigenvalues was too large:
     Diagonalizing with lowered threshold

     Davidson diagonalization with overlap
     ethr =  6.01E-05,  avg # of iterations =  4.1

     total cpu time spent up to now is        5.9 secs

     total energy              =    -325.47240055 Ry
     estimated scf accuracy    <       0.02096821 Ry

     iteration #  2     ecut=   370.00 Ry     beta= 0.70
     Davidson diagonalization with overlap
     ethr =  7.49E-05,  avg # of iterations =  5.1

     total cpu time spent up to now is        8.5 secs

     total energy              =    -325.57025774 Ry
     estimated scf accuracy    <       0.04963297 Ry

     iteration #  3     ecut=   370.00 Ry     beta= 0.70
     Davidson diagonalization with overlap
     ethr =  7.49E-05,  avg # of iterations =  2.0

     total cpu time spent up to now is       10.2 secs

     total energy              =    -325.59913093 Ry
     estimated scf accuracy    <       0.02085480 Ry

     iteration #  4     ecut=   370.00 Ry     beta= 0.70
     Davidson diagonalization with overlap
     ethr =  7.45E-05,  avg # of iterations =  2.1

     total cpu time spent up to now is       11.9 secs

     total energy              =    -325.60338918 Ry
     estimated scf accuracy    <       0.00055521 Ry

     iteration #  5     ecut=   370.00 Ry     beta= 0.70
     Davidson diagonalization with overlap
     ethr =  1.98E-06,  avg # of iterations =  2.5

     total cpu time spent up to now is       13.8 secs

     total energy              =    -325.60359381 Ry
     estimated scf accuracy    <       0.00004220 Ry

     iteration #  6     ecut=   370.00 Ry     beta= 0.70
     Davidson diagonalization with overlap
     ethr =  1.51E-07,  avg # of iterations =  2.3

     total cpu time spent up to now is       15.6 secs

     total energy              =    -325.60363780 Ry
     estimated scf accuracy    <       0.00000284 Ry

     iteration #  7     ecut=   370.00 Ry     beta= 0.70
     Davidson diagonalization with overlap
     ethr =  1.01E-08,  avg # of iterations =  2.6

     total cpu time spent up to now is       17.8 secs

     total energy              =    -325.60363840 Ry
     estimated scf accuracy    <       0.00000051 Ry

     iteration #  8     ecut=   370.00 Ry     beta= 0.70
     Davidson diagonalization with overlap
     ethr =  1.82E-09,  avg # of iterations =  2.1

     total cpu time spent up to now is       19.6 secs

     End of self-consistent calculation

     Number of k-points >= 100: set verbosity='high' to print the bands.

     highest occupied level (ev):    10.6015

!    total energy              =    -325.60363844 Ry
     estimated scf accuracy    <       0.00000001 Ry

     The total energy is the sum of the following terms:
     one-electron contribution =    -133.77301171 Ry
     hartree contribution      =      86.89043593 Ry
     xc contribution           =     -95.43079688 Ry
     ewald contribution        =    -183.29026578 Ry

     convergence has been achieved in   8 iterations

     Writing all to output data dir ./alpha-EOS/alpha.save/ :
     XML data file, charge density, pseudopotentials, collected wavefunctions

     init_run     :      1.57s CPU      1.69s WALL (       1 calls)
     electrons    :     17.19s CPU     17.70s WALL (       1 calls)

     Called by init_run:
     wfcinit      :      0.75s CPU      0.78s WALL (       1 calls)
     potinit      :      0.04s CPU      0.07s WALL (       1 calls)
     hinit0       :      0.46s CPU      0.48s WALL (       1 calls)

     Called by electrons:
     c_bands      :     14.07s CPU     14.38s WALL (       9 calls)
     sum_band     :      2.58s CPU      2.62s WALL (       9 calls)
     v_of_rho     :      0.34s CPU      0.38s WALL (       9 calls)
     newd         :      0.17s CPU      0.19s WALL (       9 calls)
     mix_rho      :      0.05s CPU      0.05s WALL (       9 calls)

     Called by c_bands:
     init_us_2    :      0.32s CPU      0.34s WALL (     494 calls)
     cegterg      :     13.26s CPU     13.43s WALL (     234 calls)

     Called by *egterg:
     cdiaghg      :      0.36s CPU      0.36s WALL (    1003 calls)
     h_psi        :     12.03s CPU     12.19s WALL (    1055 calls)
     s_psi        :      0.24s CPU      0.24s WALL (    1055 calls)
     g_psi        :      0.03s CPU      0.03s WALL (     795 calls)

     Called by h_psi:
     h_psi:calbec :      0.47s CPU      0.48s WALL (    1055 calls)
     vloc_psi     :     11.22s CPU     11.36s WALL (    1055 calls)
     add_vuspsi   :      0.26s CPU      0.26s WALL (    1055 calls)

     General routines
     calbec       :      0.55s CPU      0.56s WALL (    1289 calls)
     fft          :      0.62s CPU      0.66s WALL (     100 calls)
     ffts         :      0.03s CPU      0.03s WALL (       9 calls)
     fftw         :     11.68s CPU     11.82s WALL (   21414 calls)

     Parallel routines

     PWSCF        :     19.34s CPU     21.09s WALL


   This run was terminated on:  23:22:49  25Feb2026            

=------------------------------------------------------------------------------=
   JOB DONE.
=------------------------------------------------------------------------------=
