
     Program PWSCF v.7.3.1 starts on 25Feb2026 at 23:22:53 

     This program is part of the open-source Quantum ESPRESSO suite
     for quantum simulation of materials; please cite
         "P. Giannozzi et al., J. Phys.:Condens. Matter 21 395502 (2009);
         "P. Giannozzi et al., J. Phys.:Condens. Matter 29 465901 (2017);
         "P. Giannozzi et al., J. Chem. Phys. 152 154105 (2020);
          URL http://www.quantum-espresso.org", 
     in publications or presentations arising from this work. More details at
     http://www.quantum-espresso.org/quote

     Parallel version (MPI), running on   128 processors

     MPI processes distributed on     1 nodes
     236885 MiB available memory on the printing compute node when the environment starts

     Waiting for input...
     Reading input from standard input
     Message from routine read_cards :
     DEPRECATED: no units specified in ATOMIC_POSITIONS card
     Message from routine read_cards :
     ATOMIC_POSITIONS: units set to alat

     Current dimensions of program PWSCF are:
     Max number of different atomic species (ntypx) = 10
     Max number of k-points (npk) =  40000
     Max angular momentum in pseudopotentials (lmaxx) =  4

     K-points division:     npool     =       4
     R & G space division:  proc/nbgrp/npool/nimage =      32
     Subspace diagonalization in iterative solution of the eigenvalue problem:
     a serial algorithm will be used


     Parallelization info
     --------------------
     sticks:   dense  smooth     PW     G-vecs:    dense   smooth      PW
     Min         212     212     56                11554    11554    1606
     Max         213     213     57                11556    11556    1612
     Sum        6787    6787   1813               369747   369747   51493

     Using Slab Decomposition



     bravais-lattice index     =            2
     lattice parameter (alat)  =      11.5451  a.u.
     unit-cell volume          =     384.7117 (a.u.)^3
     number of atoms/cell      =            2
     number of atomic types    =            1
     number of electrons       =        28.00
     number of Kohn-Sham states=           14
     kinetic-energy cutoff     =     370.0000  Ry
     charge density cutoff     =    1480.0000  Ry
     scf convergence threshold =      1.0E-07
     mixing beta               =       0.7000
     number of iterations used =            8  plain     mixing
     Exchange-correlation=  SLA  PW   GGX  GGC
                           (   1   4   2   2   0   0   0)

     celldm(1)=  11.545120  celldm(2)=   0.000000  celldm(3)=   0.000000
     celldm(4)=   0.000000  celldm(5)=   0.000000  celldm(6)=   0.000000

     crystal axes: (cart. coord. in units of alat)
               a(1) = (  -0.500000   0.000000   0.500000 )  
               a(2) = (   0.000000   0.500000   0.500000 )  
               a(3) = (  -0.500000   0.500000   0.000000 )  

     reciprocal axes: (cart. coord. in units 2 pi/alat)
               b(1) = ( -1.000000 -1.000000  1.000000 )  
               b(2) = (  1.000000  1.000000  1.000000 )  
               b(3) = ( -1.000000  1.000000 -1.000000 )  


     PseudoPot. # 1 for Sn read from file:
     ./Sn.pw91-n-van.UPF
     MD5 check sum: a38d2a872edd1a4efd76c0a1a38f7031
     Pseudo is Ultrasoft + core correction, Zval = 14.0
     Generated by new atomic code, or converted to UPF format
     Using radial grid of  891 points,  6 beta functions with: 
                l(1) =   0
                l(2) =   0
                l(3) =   1
                l(4) =   1
                l(5) =   2
                l(6) =   2
     Q(r) pseudized with  8 coefficients,  rinner =    1.100   1.100   1.100
                                                       1.100   1.100

     atomic species   valence    mass     pseudopotential
     Sn               14.00   118.70000     Sn( 1.00)

     48 Sym. Ops., with inversion, found (24 have fractional translation)



   Cartesian axes

     site n.     atom                  positions (alat units)
         1        Sn     tau(   1) = (   0.0000000   0.0000000   0.0000000  )
         2        Sn     tau(   2) = (   0.2500000   0.2500000   0.2500000  )

     number of k points=   104

     Number of k-points >= 100: set verbosity='high' to print them.

     Dense  grid:   369747 G-vectors     FFT dimensions: ( 100, 100, 100)

     Estimated max dynamical RAM per process >      28.18 MB

     Estimated total dynamical RAM >       3.26 GB

     Initial potential from superposition of free atoms

     starting charge      27.9964, renormalised to      28.0000
     Starting wfcs are   18 randomized atomic wfcs

     total cpu time spent up to now is        2.0 secs

     per-process dynamical memory:    27.2 Mb

     Self-consistent Calculation

     iteration #  1     ecut=   370.00 Ry     beta= 0.70
     Davidson diagonalization with overlap
     ethr =  1.00E-02,  avg # of iterations =  3.1

     Threshold (ethr) on eigenvalues was too large:
     Diagonalizing with lowered threshold

     Davidson diagonalization with overlap
     ethr =  6.00E-05,  avg # of iterations =  4.1

     total cpu time spent up to now is        6.0 secs

     total energy              =    -325.47851028 Ry
     estimated scf accuracy    <       0.02080483 Ry

     iteration #  2     ecut=   370.00 Ry     beta= 0.70
     Davidson diagonalization with overlap
     ethr =  7.43E-05,  avg # of iterations =  5.0

     total cpu time spent up to now is        8.5 secs

     total energy              =    -325.57320186 Ry
     estimated scf accuracy    <       0.04851256 Ry

     iteration #  3     ecut=   370.00 Ry     beta= 0.70
     Davidson diagonalization with overlap
     ethr =  7.43E-05,  avg # of iterations =  2.0

     total cpu time spent up to now is       10.2 secs

     total energy              =    -325.60207771 Ry
     estimated scf accuracy    <       0.02033729 Ry

     iteration #  4     ecut=   370.00 Ry     beta= 0.70
     Davidson diagonalization with overlap
     ethr =  7.26E-05,  avg # of iterations =  2.1

     total cpu time spent up to now is       12.0 secs

     total energy              =    -325.60623428 Ry
     estimated scf accuracy    <       0.00057619 Ry

     iteration #  5     ecut=   370.00 Ry     beta= 0.70
     Davidson diagonalization with overlap
     ethr =  2.06E-06,  avg # of iterations =  2.4

     total cpu time spent up to now is       13.8 secs

     total energy              =    -325.60643433 Ry
     estimated scf accuracy    <       0.00004344 Ry

     iteration #  6     ecut=   370.00 Ry     beta= 0.70
     Davidson diagonalization with overlap
     ethr =  1.55E-07,  avg # of iterations =  2.3

     total cpu time spent up to now is       15.7 secs

     total energy              =    -325.60647587 Ry
     estimated scf accuracy    <       0.00000291 Ry

     iteration #  7     ecut=   370.00 Ry     beta= 0.70
     Davidson diagonalization with overlap
     ethr =  1.04E-08,  avg # of iterations =  2.7

     total cpu time spent up to now is       17.8 secs

     total energy              =    -325.60647650 Ry
     estimated scf accuracy    <       0.00000053 Ry

     iteration #  8     ecut=   370.00 Ry     beta= 0.70
     Davidson diagonalization with overlap
     ethr =  1.91E-09,  avg # of iterations =  2.1

     total cpu time spent up to now is       19.6 secs

     End of self-consistent calculation

     Number of k-points >= 100: set verbosity='high' to print the bands.

     highest occupied level (ev):    10.5007

!    total energy              =    -325.60647654 Ry
     estimated scf accuracy    <       0.00000001 Ry

     The total energy is the sum of the following terms:
     one-electron contribution =    -134.39552688 Ry
     hartree contribution      =      87.11368970 Ry
     xc contribution           =     -95.42270043 Ry
     ewald contribution        =    -182.90193894 Ry

     convergence has been achieved in   8 iterations

     Writing all to output data dir ./alpha-EOS/alpha.save/ :
     XML data file, charge density, pseudopotentials, collected wavefunctions

     init_run     :      1.59s CPU      1.68s WALL (       1 calls)
     electrons    :     17.20s CPU     17.67s WALL (       1 calls)

     Called by init_run:
     wfcinit      :      0.73s CPU      0.75s WALL (       1 calls)
     potinit      :      0.05s CPU      0.07s WALL (       1 calls)
     hinit0       :      0.47s CPU      0.48s WALL (       1 calls)

     Called by electrons:
     c_bands      :     14.06s CPU     14.34s WALL (       9 calls)
     sum_band     :      2.61s CPU      2.65s WALL (       9 calls)
     v_of_rho     :      0.34s CPU      0.38s WALL (       9 calls)
     newd         :      0.17s CPU      0.19s WALL (       9 calls)
     mix_rho      :      0.04s CPU      0.05s WALL (       9 calls)

     Called by c_bands:
     init_us_2    :      0.33s CPU      0.35s WALL (     494 calls)
     cegterg      :     13.20s CPU     13.36s WALL (     234 calls)

     Called by *egterg:
     cdiaghg      :      0.35s CPU      0.36s WALL (    1001 calls)
     h_psi        :     11.97s CPU     12.12s WALL (    1053 calls)
     s_psi        :      0.23s CPU      0.24s WALL (    1053 calls)
     g_psi        :      0.03s CPU      0.03s WALL (     793 calls)

     Called by h_psi:
     h_psi:calbec :      0.47s CPU      0.48s WALL (    1053 calls)
     vloc_psi     :     11.16s CPU     11.30s WALL (    1053 calls)
     add_vuspsi   :      0.26s CPU      0.26s WALL (    1053 calls)

     General routines
     calbec       :      0.55s CPU      0.56s WALL (    1287 calls)
     fft          :      0.62s CPU      0.66s WALL (     100 calls)
     ffts         :      0.02s CPU      0.02s WALL (       9 calls)
     fftw         :     11.66s CPU     11.80s WALL (   21388 calls)

     Parallel routines

     PWSCF        :     19.45s CPU     21.10s WALL


   This run was terminated on:  23:23:14  25Feb2026            

=------------------------------------------------------------------------------=
   JOB DONE.
=------------------------------------------------------------------------------=
