
     Program PWSCF v.7.3.1 starts on 25Feb2026 at 23:23:17 

     This program is part of the open-source Quantum ESPRESSO suite
     for quantum simulation of materials; please cite
         "P. Giannozzi et al., J. Phys.:Condens. Matter 21 395502 (2009);
         "P. Giannozzi et al., J. Phys.:Condens. Matter 29 465901 (2017);
         "P. Giannozzi et al., J. Chem. Phys. 152 154105 (2020);
          URL http://www.quantum-espresso.org", 
     in publications or presentations arising from this work. More details at
     http://www.quantum-espresso.org/quote

     Parallel version (MPI), running on   128 processors

     MPI processes distributed on     1 nodes
     236837 MiB available memory on the printing compute node when the environment starts

     Waiting for input...
     Reading input from standard input
     Message from routine read_cards :
     DEPRECATED: no units specified in ATOMIC_POSITIONS card
     Message from routine read_cards :
     ATOMIC_POSITIONS: units set to alat

     Current dimensions of program PWSCF are:
     Max number of different atomic species (ntypx) = 10
     Max number of k-points (npk) =  40000
     Max angular momentum in pseudopotentials (lmaxx) =  4

     K-points division:     npool     =       4
     R & G space division:  proc/nbgrp/npool/nimage =      32
     Subspace diagonalization in iterative solution of the eigenvalue problem:
     a serial algorithm will be used


     Parallelization info
     --------------------
     sticks:   dense  smooth     PW     G-vecs:    dense   smooth      PW
     Min         213     213     56                11629    11629    1613
     Max         214     214     57                11633    11633    1619
     Sum        6829    6829   1813               372183   372183   51733

     Using Slab Decomposition



     bravais-lattice index     =            2
     lattice parameter (alat)  =      11.5696  a.u.
     unit-cell volume          =     387.1621 (a.u.)^3
     number of atoms/cell      =            2
     number of atomic types    =            1
     number of electrons       =        28.00
     number of Kohn-Sham states=           14
     kinetic-energy cutoff     =     370.0000  Ry
     charge density cutoff     =    1480.0000  Ry
     scf convergence threshold =      1.0E-07
     mixing beta               =       0.7000
     number of iterations used =            8  plain     mixing
     Exchange-correlation=  SLA  PW   GGX  GGC
                           (   1   4   2   2   0   0   0)

     celldm(1)=  11.569580  celldm(2)=   0.000000  celldm(3)=   0.000000
     celldm(4)=   0.000000  celldm(5)=   0.000000  celldm(6)=   0.000000

     crystal axes: (cart. coord. in units of alat)
               a(1) = (  -0.500000   0.000000   0.500000 )  
               a(2) = (   0.000000   0.500000   0.500000 )  
               a(3) = (  -0.500000   0.500000   0.000000 )  

     reciprocal axes: (cart. coord. in units 2 pi/alat)
               b(1) = ( -1.000000 -1.000000  1.000000 )  
               b(2) = (  1.000000  1.000000  1.000000 )  
               b(3) = ( -1.000000  1.000000 -1.000000 )  


     PseudoPot. # 1 for Sn read from file:
     ./Sn.pw91-n-van.UPF
     MD5 check sum: a38d2a872edd1a4efd76c0a1a38f7031
     Pseudo is Ultrasoft + core correction, Zval = 14.0
     Generated by new atomic code, or converted to UPF format
     Using radial grid of  891 points,  6 beta functions with: 
                l(1) =   0
                l(2) =   0
                l(3) =   1
                l(4) =   1
                l(5) =   2
                l(6) =   2
     Q(r) pseudized with  8 coefficients,  rinner =    1.100   1.100   1.100
                                                       1.100   1.100

     atomic species   valence    mass     pseudopotential
     Sn               14.00   118.70000     Sn( 1.00)

     48 Sym. Ops., with inversion, found (24 have fractional translation)



   Cartesian axes

     site n.     atom                  positions (alat units)
         1        Sn     tau(   1) = (   0.0000000   0.0000000   0.0000000  )
         2        Sn     tau(   2) = (   0.2500000   0.2500000   0.2500000  )

     number of k points=   104

     Number of k-points >= 100: set verbosity='high' to print them.

     Dense  grid:   372183 G-vectors     FFT dimensions: ( 108, 108, 108)

     Estimated max dynamical RAM per process >      28.78 MB

     Estimated total dynamical RAM >       3.33 GB

     Initial potential from superposition of free atoms

     starting charge      27.9964, renormalised to      28.0000
     Starting wfcs are   18 randomized atomic wfcs

     total cpu time spent up to now is        2.1 secs

     per-process dynamical memory:    28.8 Mb

     Self-consistent Calculation

     iteration #  1     ecut=   370.00 Ry     beta= 0.70
     Davidson diagonalization with overlap
     ethr =  1.00E-02,  avg # of iterations =  3.2

     Threshold (ethr) on eigenvalues was too large:
     Diagonalizing with lowered threshold

     Davidson diagonalization with overlap
     ethr =  5.83E-05,  avg # of iterations =  4.0

     total cpu time spent up to now is        6.9 secs

     total energy              =    -325.49047464 Ry
     estimated scf accuracy    <       0.02005903 Ry

     iteration #  2     ecut=   370.00 Ry     beta= 0.70
     Davidson diagonalization with overlap
     ethr =  7.16E-05,  avg # of iterations =  4.9

     total cpu time spent up to now is        9.9 secs

     total energy              =    -325.57640871 Ry
     estimated scf accuracy    <       0.04467521 Ry

     iteration #  3     ecut=   370.00 Ry     beta= 0.70
     Davidson diagonalization with overlap
     ethr =  7.16E-05,  avg # of iterations =  2.0

     total cpu time spent up to now is       11.9 secs

     total energy              =    -325.60511182 Ry
     estimated scf accuracy    <       0.01885128 Ry

     iteration #  4     ecut=   370.00 Ry     beta= 0.70
     Davidson diagonalization with overlap
     ethr =  6.73E-05,  avg # of iterations =  2.1

     total cpu time spent up to now is       13.9 secs

     total energy              =    -325.60897057 Ry
     estimated scf accuracy    <       0.00070518 Ry

     iteration #  5     ecut=   370.00 Ry     beta= 0.70
     Davidson diagonalization with overlap
     ethr =  2.52E-06,  avg # of iterations =  2.3

     total cpu time spent up to now is       16.0 secs

     total energy              =    -325.60917254 Ry
     estimated scf accuracy    <       0.00004863 Ry

     iteration #  6     ecut=   370.00 Ry     beta= 0.70
     Davidson diagonalization with overlap
     ethr =  1.74E-07,  avg # of iterations =  2.3

     total cpu time spent up to now is       18.2 secs

     total energy              =    -325.60921229 Ry
     estimated scf accuracy    <       0.00000344 Ry

     iteration #  7     ecut=   370.00 Ry     beta= 0.70
     Davidson diagonalization with overlap
     ethr =  1.23E-08,  avg # of iterations =  2.7

     total cpu time spent up to now is       20.7 secs

     total energy              =    -325.60921297 Ry
     estimated scf accuracy    <       0.00000067 Ry

     iteration #  8     ecut=   370.00 Ry     beta= 0.70
     Davidson diagonalization with overlap
     ethr =  2.41E-09,  avg # of iterations =  2.1

     total cpu time spent up to now is       22.8 secs

     End of self-consistent calculation

     Number of k-points >= 100: set verbosity='high' to print the bands.

     highest occupied level (ev):    10.4007

!    total energy              =    -325.60921303 Ry
     estimated scf accuracy    <          8.8E-09 Ry

     The total energy is the sum of the following terms:
     one-electron contribution =    -135.01571634 Ry
     hartree contribution      =      87.33644428 Ry
     xc contribution           =     -95.41468689 Ry
     ewald contribution        =    -182.51525408 Ry

     convergence has been achieved in   8 iterations

     Writing all to output data dir ./alpha-EOS/alpha.save/ :
     XML data file, charge density, pseudopotentials, collected wavefunctions

     init_run     :      1.74s CPU      1.83s WALL (       1 calls)
     electrons    :     20.29s CPU     20.80s WALL (       1 calls)

     Called by init_run:
     wfcinit      :      0.86s CPU      0.88s WALL (       1 calls)
     potinit      :      0.06s CPU      0.07s WALL (       1 calls)
     hinit0       :      0.50s CPU      0.51s WALL (       1 calls)

     Called by electrons:
     c_bands      :     16.63s CPU     16.93s WALL (       9 calls)
     sum_band     :      3.06s CPU      3.12s WALL (       9 calls)
     v_of_rho     :      0.40s CPU      0.44s WALL (       9 calls)
     newd         :      0.17s CPU      0.19s WALL (       9 calls)
     mix_rho      :      0.05s CPU      0.05s WALL (       9 calls)

     Called by c_bands:
     init_us_2    :      0.34s CPU      0.35s WALL (     494 calls)
     cegterg      :     15.71s CPU     15.88s WALL (     234 calls)

     Called by *egterg:
     cdiaghg      :      0.36s CPU      0.36s WALL (     998 calls)
     h_psi        :     14.55s CPU     14.71s WALL (    1050 calls)
     s_psi        :      0.24s CPU      0.24s WALL (    1050 calls)
     g_psi        :      0.03s CPU      0.03s WALL (     790 calls)

     Called by h_psi:
     h_psi:calbec :      0.51s CPU      0.52s WALL (    1050 calls)
     vloc_psi     :     13.70s CPU     13.85s WALL (    1050 calls)
     add_vuspsi   :      0.27s CPU      0.27s WALL (    1050 calls)

     General routines
     calbec       :      0.60s CPU      0.61s WALL (    1284 calls)
     fft          :      0.66s CPU      0.69s WALL (     100 calls)
     ffts         :      0.02s CPU      0.02s WALL (       9 calls)
     fftw         :     14.27s CPU     14.41s WALL (   21348 calls)

     Parallel routines

     PWSCF        :     22.60s CPU     25.38s WALL


   This run was terminated on:  23:23:42  25Feb2026            

=------------------------------------------------------------------------------=
   JOB DONE.
=------------------------------------------------------------------------------=
