
     Program PWSCF v.7.3.1 starts on 25Feb2026 at 23:23:46 

     This program is part of the open-source Quantum ESPRESSO suite
     for quantum simulation of materials; please cite
         "P. Giannozzi et al., J. Phys.:Condens. Matter 21 395502 (2009);
         "P. Giannozzi et al., J. Phys.:Condens. Matter 29 465901 (2017);
         "P. Giannozzi et al., J. Chem. Phys. 152 154105 (2020);
          URL http://www.quantum-espresso.org", 
     in publications or presentations arising from this work. More details at
     http://www.quantum-espresso.org/quote

     Parallel version (MPI), running on   128 processors

     MPI processes distributed on     1 nodes
     236814 MiB available memory on the printing compute node when the environment starts

     Waiting for input...
     Reading input from standard input
     Message from routine read_cards :
     DEPRECATED: no units specified in ATOMIC_POSITIONS card
     Message from routine read_cards :
     ATOMIC_POSITIONS: units set to alat

     Current dimensions of program PWSCF are:
     Max number of different atomic species (ntypx) = 10
     Max number of k-points (npk) =  40000
     Max angular momentum in pseudopotentials (lmaxx) =  4

     K-points division:     npool     =       4
     R & G space division:  proc/nbgrp/npool/nimage =      32
     Subspace diagonalization in iterative solution of the eigenvalue problem:
     a serial algorithm will be used


     Parallelization info
     --------------------
     sticks:   dense  smooth     PW     G-vecs:    dense   smooth      PW
     Min         213     213     57                11694    11694    1630
     Max         214     214     59                11700    11700    1632
     Sum        6841    6841   1843               374343   374343   52201

     Using Slab Decomposition



     bravais-lattice index     =            2
     lattice parameter (alat)  =      11.5940  a.u.
     unit-cell volume          =     389.6228 (a.u.)^3
     number of atoms/cell      =            2
     number of atomic types    =            1
     number of electrons       =        28.00
     number of Kohn-Sham states=           14
     kinetic-energy cutoff     =     370.0000  Ry
     charge density cutoff     =    1480.0000  Ry
     scf convergence threshold =      1.0E-07
     mixing beta               =       0.7000
     number of iterations used =            8  plain     mixing
     Exchange-correlation=  SLA  PW   GGX  GGC
                           (   1   4   2   2   0   0   0)

     celldm(1)=  11.594040  celldm(2)=   0.000000  celldm(3)=   0.000000
     celldm(4)=   0.000000  celldm(5)=   0.000000  celldm(6)=   0.000000

     crystal axes: (cart. coord. in units of alat)
               a(1) = (  -0.500000   0.000000   0.500000 )  
               a(2) = (   0.000000   0.500000   0.500000 )  
               a(3) = (  -0.500000   0.500000   0.000000 )  

     reciprocal axes: (cart. coord. in units 2 pi/alat)
               b(1) = ( -1.000000 -1.000000  1.000000 )  
               b(2) = (  1.000000  1.000000  1.000000 )  
               b(3) = ( -1.000000  1.000000 -1.000000 )  


     PseudoPot. # 1 for Sn read from file:
     ./Sn.pw91-n-van.UPF
     MD5 check sum: a38d2a872edd1a4efd76c0a1a38f7031
     Pseudo is Ultrasoft + core correction, Zval = 14.0
     Generated by new atomic code, or converted to UPF format
     Using radial grid of  891 points,  6 beta functions with: 
                l(1) =   0
                l(2) =   0
                l(3) =   1
                l(4) =   1
                l(5) =   2
                l(6) =   2
     Q(r) pseudized with  8 coefficients,  rinner =    1.100   1.100   1.100
                                                       1.100   1.100

     atomic species   valence    mass     pseudopotential
     Sn               14.00   118.70000     Sn( 1.00)

     48 Sym. Ops., with inversion, found (24 have fractional translation)



   Cartesian axes

     site n.     atom                  positions (alat units)
         1        Sn     tau(   1) = (   0.0000000   0.0000000   0.0000000  )
         2        Sn     tau(   2) = (   0.2500000   0.2500000   0.2500000  )

     number of k points=   104

     Number of k-points >= 100: set verbosity='high' to print them.

     Dense  grid:   374343 G-vectors     FFT dimensions: ( 108, 108, 108)

     Estimated max dynamical RAM per process >      28.92 MB

     Estimated total dynamical RAM >       3.35 GB

     Initial potential from superposition of free atoms

     starting charge      27.9964, renormalised to      28.0000
     Starting wfcs are   18 randomized atomic wfcs

     total cpu time spent up to now is        2.1 secs

     per-process dynamical memory:    27.9 Mb

     Self-consistent Calculation

     iteration #  1     ecut=   370.00 Ry     beta= 0.70
     Davidson diagonalization with overlap
     ethr =  1.00E-02,  avg # of iterations =  3.1

     Threshold (ethr) on eigenvalues was too large:
     Diagonalizing with lowered threshold

     Davidson diagonalization with overlap
     ethr =  5.89E-05,  avg # of iterations =  4.0

     total cpu time spent up to now is        6.8 secs

     total energy              =    -325.49191110 Ry
     estimated scf accuracy    <       0.02011192 Ry

     iteration #  2     ecut=   370.00 Ry     beta= 0.70
     Davidson diagonalization with overlap
     ethr =  7.18E-05,  avg # of iterations =  4.9

     total cpu time spent up to now is        9.9 secs

     total energy              =    -325.57849755 Ry
     estimated scf accuracy    <       0.04483836 Ry

     iteration #  3     ecut=   370.00 Ry     beta= 0.70
     Davidson diagonalization with overlap
     ethr =  7.18E-05,  avg # of iterations =  2.0

     total cpu time spent up to now is       11.9 secs

     total energy              =    -325.60737668 Ry
     estimated scf accuracy    <       0.01885728 Ry

     iteration #  4     ecut=   370.00 Ry     beta= 0.70
     Davidson diagonalization with overlap
     ethr =  6.73E-05,  avg # of iterations =  2.1

     total cpu time spent up to now is       14.0 secs

     total energy              =    -325.61123882 Ry
     estimated scf accuracy    <       0.00067753 Ry

     iteration #  5     ecut=   370.00 Ry     beta= 0.70
     Davidson diagonalization with overlap
     ethr =  2.42E-06,  avg # of iterations =  2.4

     total cpu time spent up to now is       16.1 secs

     total energy              =    -325.61180507 Ry
     estimated scf accuracy    <       0.00004707 Ry

     iteration #  6     ecut=   370.00 Ry     beta= 0.70
     Davidson diagonalization with overlap
     ethr =  1.68E-07,  avg # of iterations =  2.4

     total cpu time spent up to now is       18.4 secs

     total energy              =    -325.61184912 Ry
     estimated scf accuracy    <       0.00000251 Ry

     iteration #  7     ecut=   370.00 Ry     beta= 0.70
     Davidson diagonalization with overlap
     ethr =  8.95E-09,  avg # of iterations =  2.8

     total cpu time spent up to now is       21.0 secs

     total energy              =    -325.61184971 Ry
     estimated scf accuracy    <       0.00000042 Ry

     iteration #  8     ecut=   370.00 Ry     beta= 0.70
     Davidson diagonalization with overlap
     ethr =  1.51E-09,  avg # of iterations =  2.1

     total cpu time spent up to now is       23.0 secs

     End of self-consistent calculation

     Number of k-points >= 100: set verbosity='high' to print the bands.

     highest occupied level (ev):    10.3018

!    total energy              =    -325.61184975 Ry
     estimated scf accuracy    <          8.6E-09 Ry

     The total energy is the sum of the following terms:
     one-electron contribution =    -135.63355193 Ry
     hartree contribution      =      87.55864785 Ry
     xc contribution           =     -95.40674486 Ry
     ewald contribution        =    -182.13020080 Ry

     convergence has been achieved in   8 iterations

     Writing all to output data dir ./alpha-EOS/alpha.save/ :
     XML data file, charge density, pseudopotentials, collected wavefunctions

     init_run     :      1.73s CPU      1.85s WALL (       1 calls)
     electrons    :     20.47s CPU     21.04s WALL (       1 calls)

     Called by init_run:
     wfcinit      :      0.84s CPU      0.89s WALL (       1 calls)
     potinit      :      0.06s CPU      0.08s WALL (       1 calls)
     hinit0       :      0.49s CPU      0.51s WALL (       1 calls)

     Called by electrons:
     c_bands      :     16.79s CPU     17.13s WALL (       9 calls)
     sum_band     :      3.07s CPU      3.13s WALL (       9 calls)
     v_of_rho     :      0.40s CPU      0.44s WALL (       9 calls)
     newd         :      0.17s CPU      0.19s WALL (       9 calls)
     mix_rho      :      0.05s CPU      0.05s WALL (       9 calls)

     Called by c_bands:
     init_us_2    :      0.33s CPU      0.35s WALL (     494 calls)
     cegterg      :     15.92s CPU     16.10s WALL (     234 calls)

     Called by *egterg:
     cdiaghg      :      0.36s CPU      0.37s WALL (    1007 calls)
     h_psi        :     14.72s CPU     14.92s WALL (    1059 calls)
     s_psi        :      0.24s CPU      0.24s WALL (    1059 calls)
     g_psi        :      0.03s CPU      0.03s WALL (     799 calls)

     Called by h_psi:
     h_psi:calbec :      0.52s CPU      0.53s WALL (    1059 calls)
     vloc_psi     :     13.85s CPU     14.04s WALL (    1059 calls)
     add_vuspsi   :      0.27s CPU      0.27s WALL (    1059 calls)

     General routines
     calbec       :      0.61s CPU      0.62s WALL (    1293 calls)
     fft          :      0.66s CPU      0.70s WALL (     100 calls)
     ffts         :      0.02s CPU      0.02s WALL (       9 calls)
     fftw         :     14.44s CPU     14.62s WALL (   21472 calls)

     Parallel routines

     PWSCF        :     22.93s CPU     25.45s WALL


   This run was terminated on:  23:24:11  25Feb2026            

=------------------------------------------------------------------------------=
   JOB DONE.
=------------------------------------------------------------------------------=
