
     Program PWSCF v.7.3.1 starts on 25Feb2026 at 23:25:41 

     This program is part of the open-source Quantum ESPRESSO suite
     for quantum simulation of materials; please cite
         "P. Giannozzi et al., J. Phys.:Condens. Matter 21 395502 (2009);
         "P. Giannozzi et al., J. Phys.:Condens. Matter 29 465901 (2017);
         "P. Giannozzi et al., J. Chem. Phys. 152 154105 (2020);
          URL http://www.quantum-espresso.org", 
     in publications or presentations arising from this work. More details at
     http://www.quantum-espresso.org/quote

     Parallel version (MPI), running on   128 processors

     MPI processes distributed on     1 nodes
     236869 MiB available memory on the printing compute node when the environment starts

     Waiting for input...
     Reading input from standard input
     Message from routine read_cards :
     DEPRECATED: no units specified in ATOMIC_POSITIONS card
     Message from routine read_cards :
     ATOMIC_POSITIONS: units set to alat

     Current dimensions of program PWSCF are:
     Max number of different atomic species (ntypx) = 10
     Max number of k-points (npk) =  40000
     Max angular momentum in pseudopotentials (lmaxx) =  4

     K-points division:     npool     =       4
     R & G space division:  proc/nbgrp/npool/nimage =      32
     Subspace diagonalization in iterative solution of the eigenvalue problem:
     a serial algorithm will be used


     Parallelization info
     --------------------
     sticks:   dense  smooth     PW     G-vecs:    dense   smooth      PW
     Min         217     217     59                12010    12010    1670
     Max         218     218     60                12017    12017    1673
     Sum        6961    6961   1891               384455   384455   53497

     Using Slab Decomposition



     bravais-lattice index     =            2
     lattice parameter (alat)  =      11.6919  a.u.
     unit-cell volume          =     399.5702 (a.u.)^3
     number of atoms/cell      =            2
     number of atomic types    =            1
     number of electrons       =        28.00
     number of Kohn-Sham states=           14
     kinetic-energy cutoff     =     370.0000  Ry
     charge density cutoff     =    1480.0000  Ry
     scf convergence threshold =      1.0E-07
     mixing beta               =       0.7000
     number of iterations used =            8  plain     mixing
     Exchange-correlation=  SLA  PW   GGX  GGC
                           (   1   4   2   2   0   0   0)

     celldm(1)=  11.691880  celldm(2)=   0.000000  celldm(3)=   0.000000
     celldm(4)=   0.000000  celldm(5)=   0.000000  celldm(6)=   0.000000

     crystal axes: (cart. coord. in units of alat)
               a(1) = (  -0.500000   0.000000   0.500000 )  
               a(2) = (   0.000000   0.500000   0.500000 )  
               a(3) = (  -0.500000   0.500000   0.000000 )  

     reciprocal axes: (cart. coord. in units 2 pi/alat)
               b(1) = ( -1.000000 -1.000000  1.000000 )  
               b(2) = (  1.000000  1.000000  1.000000 )  
               b(3) = ( -1.000000  1.000000 -1.000000 )  


     PseudoPot. # 1 for Sn read from file:
     ./Sn.pw91-n-van.UPF
     MD5 check sum: a38d2a872edd1a4efd76c0a1a38f7031
     Pseudo is Ultrasoft + core correction, Zval = 14.0
     Generated by new atomic code, or converted to UPF format
     Using radial grid of  891 points,  6 beta functions with: 
                l(1) =   0
                l(2) =   0
                l(3) =   1
                l(4) =   1
                l(5) =   2
                l(6) =   2
     Q(r) pseudized with  8 coefficients,  rinner =    1.100   1.100   1.100
                                                       1.100   1.100

     atomic species   valence    mass     pseudopotential
     Sn               14.00   118.70000     Sn( 1.00)

     48 Sym. Ops., with inversion, found (24 have fractional translation)



   Cartesian axes

     site n.     atom                  positions (alat units)
         1        Sn     tau(   1) = (   0.0000000   0.0000000   0.0000000  )
         2        Sn     tau(   2) = (   0.2500000   0.2500000   0.2500000  )

     number of k points=   104

     Number of k-points >= 100: set verbosity='high' to print them.

     Dense  grid:   384455 G-vectors     FFT dimensions: ( 108, 108, 108)

     Estimated max dynamical RAM per process >      29.51 MB

     Estimated total dynamical RAM >       3.41 GB

     Initial potential from superposition of free atoms

     starting charge      27.9964, renormalised to      28.0000
     Starting wfcs are   18 randomized atomic wfcs

     total cpu time spent up to now is        2.3 secs

     per-process dynamical memory:    28.4 Mb

     Self-consistent Calculation

     iteration #  1     ecut=   370.00 Ry     beta= 0.70
     Davidson diagonalization with overlap
     ethr =  1.00E-02,  avg # of iterations =  3.1

     Threshold (ethr) on eigenvalues was too large:
     Diagonalizing with lowered threshold

     Davidson diagonalization with overlap
     ethr =  6.10E-05,  avg # of iterations =  4.0

     total cpu time spent up to now is        7.0 secs

     total energy              =    -325.49607875 Ry
     estimated scf accuracy    <       0.02110199 Ry

     iteration #  2     ecut=   370.00 Ry     beta= 0.70
     Davidson diagonalization with overlap
     ethr =  7.54E-05,  avg # of iterations =  5.0

     total cpu time spent up to now is       10.1 secs

     total energy              =    -325.58835471 Ry
     estimated scf accuracy    <       0.04758872 Ry

     iteration #  3     ecut=   370.00 Ry     beta= 0.70
     Davidson diagonalization with overlap
     ethr =  7.54E-05,  avg # of iterations =  2.0

     total cpu time spent up to now is       12.1 secs

     total energy              =    -325.61717865 Ry
     estimated scf accuracy    <       0.01979899 Ry

     iteration #  4     ecut=   370.00 Ry     beta= 0.70
     Davidson diagonalization with overlap
     ethr =  7.07E-05,  avg # of iterations =  2.1

     total cpu time spent up to now is       14.2 secs

     total energy              =    -325.62121896 Ry
     estimated scf accuracy    <       0.00050185 Ry

     iteration #  5     ecut=   370.00 Ry     beta= 0.70
     Davidson diagonalization with overlap
     ethr =  1.79E-06,  avg # of iterations =  2.5

     total cpu time spent up to now is       16.4 secs

     total energy              =    -325.62141142 Ry
     estimated scf accuracy    <       0.00004830 Ry

     iteration #  6     ecut=   370.00 Ry     beta= 0.70
     Davidson diagonalization with overlap
     ethr =  1.72E-07,  avg # of iterations =  2.2

     total cpu time spent up to now is       18.6 secs

     total energy              =    -325.62143923 Ry
     estimated scf accuracy    <       0.00000258 Ry

     iteration #  7     ecut=   370.00 Ry     beta= 0.70
     Davidson diagonalization with overlap
     ethr =  9.22E-09,  avg # of iterations =  2.7

     total cpu time spent up to now is       21.2 secs

     total energy              =    -325.62143978 Ry
     estimated scf accuracy    <       0.00000046 Ry

     iteration #  8     ecut=   370.00 Ry     beta= 0.70
     Davidson diagonalization with overlap
     ethr =  1.66E-09,  avg # of iterations =  2.1

     total cpu time spent up to now is       23.3 secs

     End of self-consistent calculation

     Number of k-points >= 100: set verbosity='high' to print the bands.

     highest occupied level (ev):     9.9150

!    total energy              =    -325.62143982 Ry
     estimated scf accuracy    <          9.1E-09 Ry

     The total energy is the sum of the following terms:
     one-electron contribution =    -138.08162281 Ry
     hartree contribution      =      88.44196543 Ry
     xc contribution           =     -95.37568374 Ry
     ewald contribution        =    -180.60609870 Ry

     convergence has been achieved in   8 iterations

     Writing all to output data dir ./alpha-EOS/alpha.save/ :
     XML data file, charge density, pseudopotentials, collected wavefunctions

     init_run     :      1.79s CPU      1.89s WALL (       1 calls)
     electrons    :     20.67s CPU     21.16s WALL (       1 calls)

     Called by init_run:
     wfcinit      :      0.88s CPU      0.91s WALL (       1 calls)
     potinit      :      0.04s CPU      0.07s WALL (       1 calls)
     hinit0       :      0.50s CPU      0.52s WALL (       1 calls)

     Called by electrons:
     c_bands      :     16.91s CPU     17.21s WALL (       9 calls)
     sum_band     :      3.12s CPU      3.17s WALL (       9 calls)
     v_of_rho     :      0.41s CPU      0.45s WALL (       9 calls)
     newd         :      0.17s CPU      0.19s WALL (       9 calls)
     mix_rho      :      0.05s CPU      0.05s WALL (       9 calls)

     Called by c_bands:
     init_us_2    :      0.34s CPU      0.36s WALL (     494 calls)
     cegterg      :     15.99s CPU     16.14s WALL (     234 calls)

     Called by *egterg:
     cdiaghg      :      0.36s CPU      0.36s WALL (     996 calls)
     h_psi        :     14.81s CPU     14.95s WALL (    1048 calls)
     s_psi        :      0.25s CPU      0.25s WALL (    1048 calls)
     g_psi        :      0.04s CPU      0.04s WALL (     788 calls)

     Called by h_psi:
     h_psi:calbec :      0.54s CPU      0.54s WALL (    1048 calls)
     vloc_psi     :     13.92s CPU     14.04s WALL (    1048 calls)
     add_vuspsi   :      0.28s CPU      0.29s WALL (    1048 calls)

     General routines
     calbec       :      0.63s CPU      0.64s WALL (    1282 calls)
     fft          :      0.68s CPU      0.70s WALL (     100 calls)
     ffts         :      0.02s CPU      0.02s WALL (       9 calls)
     fftw         :     14.48s CPU     14.60s WALL (   21296 calls)

     Parallel routines

     PWSCF        :     23.21s CPU     25.16s WALL


   This run was terminated on:  23:26: 6  25Feb2026            

=------------------------------------------------------------------------------=
   JOB DONE.
=------------------------------------------------------------------------------=
