
     Program PWSCF v.7.3.1 starts on 25Feb2026 at 23:26:10 

     This program is part of the open-source Quantum ESPRESSO suite
     for quantum simulation of materials; please cite
         "P. Giannozzi et al., J. Phys.:Condens. Matter 21 395502 (2009);
         "P. Giannozzi et al., J. Phys.:Condens. Matter 29 465901 (2017);
         "P. Giannozzi et al., J. Chem. Phys. 152 154105 (2020);
          URL http://www.quantum-espresso.org", 
     in publications or presentations arising from this work. More details at
     http://www.quantum-espresso.org/quote

     Parallel version (MPI), running on   128 processors

     MPI processes distributed on     1 nodes
     236787 MiB available memory on the printing compute node when the environment starts

     Waiting for input...
     Reading input from standard input
     Message from routine read_cards :
     DEPRECATED: no units specified in ATOMIC_POSITIONS card
     Message from routine read_cards :
     ATOMIC_POSITIONS: units set to alat

     Current dimensions of program PWSCF are:
     Max number of different atomic species (ntypx) = 10
     Max number of k-points (npk) =  40000
     Max angular momentum in pseudopotentials (lmaxx) =  4

     K-points division:     npool     =       4
     R & G space division:  proc/nbgrp/npool/nimage =      32
     Subspace diagonalization in iterative solution of the eigenvalue problem:
     a serial algorithm will be used


     Parallelization info
     --------------------
     sticks:   dense  smooth     PW     G-vecs:    dense   smooth      PW
     Min         218     218     59                12085    12085    1686
     Max         220     220     60                12088    12088    1689
     Sum        6997    6997   1891               386783   386783   53977

     Using Slab Decomposition



     bravais-lattice index     =            2
     lattice parameter (alat)  =      11.7163  a.u.
     unit-cell volume          =     402.0832 (a.u.)^3
     number of atoms/cell      =            2
     number of atomic types    =            1
     number of electrons       =        28.00
     number of Kohn-Sham states=           14
     kinetic-energy cutoff     =     370.0000  Ry
     charge density cutoff     =    1480.0000  Ry
     scf convergence threshold =      1.0E-07
     mixing beta               =       0.7000
     number of iterations used =            8  plain     mixing
     Exchange-correlation=  SLA  PW   GGX  GGC
                           (   1   4   2   2   0   0   0)

     celldm(1)=  11.716340  celldm(2)=   0.000000  celldm(3)=   0.000000
     celldm(4)=   0.000000  celldm(5)=   0.000000  celldm(6)=   0.000000

     crystal axes: (cart. coord. in units of alat)
               a(1) = (  -0.500000   0.000000   0.500000 )  
               a(2) = (   0.000000   0.500000   0.500000 )  
               a(3) = (  -0.500000   0.500000   0.000000 )  

     reciprocal axes: (cart. coord. in units 2 pi/alat)
               b(1) = ( -1.000000 -1.000000  1.000000 )  
               b(2) = (  1.000000  1.000000  1.000000 )  
               b(3) = ( -1.000000  1.000000 -1.000000 )  


     PseudoPot. # 1 for Sn read from file:
     ./Sn.pw91-n-van.UPF
     MD5 check sum: a38d2a872edd1a4efd76c0a1a38f7031
     Pseudo is Ultrasoft + core correction, Zval = 14.0
     Generated by new atomic code, or converted to UPF format
     Using radial grid of  891 points,  6 beta functions with: 
                l(1) =   0
                l(2) =   0
                l(3) =   1
                l(4) =   1
                l(5) =   2
                l(6) =   2
     Q(r) pseudized with  8 coefficients,  rinner =    1.100   1.100   1.100
                                                       1.100   1.100

     atomic species   valence    mass     pseudopotential
     Sn               14.00   118.70000     Sn( 1.00)

     48 Sym. Ops., with inversion, found (24 have fractional translation)



   Cartesian axes

     site n.     atom                  positions (alat units)
         1        Sn     tau(   1) = (   0.0000000   0.0000000   0.0000000  )
         2        Sn     tau(   2) = (   0.2500000   0.2500000   0.2500000  )

     number of k points=   104

     Number of k-points >= 100: set verbosity='high' to print them.

     Dense  grid:   386783 G-vectors     FFT dimensions: ( 108, 108, 108)

     Estimated max dynamical RAM per process >      29.66 MB

     Estimated total dynamical RAM >       3.43 GB

     Initial potential from superposition of free atoms

     starting charge      27.9964, renormalised to      28.0000
     Starting wfcs are   18 randomized atomic wfcs

     total cpu time spent up to now is        2.2 secs

     per-process dynamical memory:    28.3 Mb

     Self-consistent Calculation

     iteration #  1     ecut=   370.00 Ry     beta= 0.70
     Davidson diagonalization with overlap
     ethr =  1.00E-02,  avg # of iterations =  3.1

     Threshold (ethr) on eigenvalues was too large:
     Diagonalizing with lowered threshold

     Davidson diagonalization with overlap
     ethr =  6.16E-05,  avg # of iterations =  4.1

     total cpu time spent up to now is        6.9 secs

     total energy              =    -325.49964833 Ry
     estimated scf accuracy    <       0.02125638 Ry

     iteration #  2     ecut=   370.00 Ry     beta= 0.70
     Davidson diagonalization with overlap
     ethr =  7.59E-05,  avg # of iterations =  5.0

     total cpu time spent up to now is       10.0 secs

     total energy              =    -325.59033065 Ry
     estimated scf accuracy    <       0.04717216 Ry

     iteration #  3     ecut=   370.00 Ry     beta= 0.70
     Davidson diagonalization with overlap
     ethr =  7.59E-05,  avg # of iterations =  2.0

     total cpu time spent up to now is       12.1 secs

     total energy              =    -325.61936600 Ry
     estimated scf accuracy    <       0.01956354 Ry

     iteration #  4     ecut=   370.00 Ry     beta= 0.70
     Davidson diagonalization with overlap
     ethr =  6.99E-05,  avg # of iterations =  2.1

     total cpu time spent up to now is       14.1 secs

     total energy              =    -325.62338878 Ry
     estimated scf accuracy    <       0.00051228 Ry

     iteration #  5     ecut=   370.00 Ry     beta= 0.70
     Davidson diagonalization with overlap
     ethr =  1.83E-06,  avg # of iterations =  2.5

     total cpu time spent up to now is       16.3 secs

     total energy              =    -325.62358114 Ry
     estimated scf accuracy    <       0.00005130 Ry

     iteration #  6     ecut=   370.00 Ry     beta= 0.70
     Davidson diagonalization with overlap
     ethr =  1.83E-07,  avg # of iterations =  2.1

     total cpu time spent up to now is       18.5 secs

     total energy              =    -325.62359615 Ry
     estimated scf accuracy    <       0.00000256 Ry

     iteration #  7     ecut=   370.00 Ry     beta= 0.70
     Davidson diagonalization with overlap
     ethr =  9.14E-09,  avg # of iterations =  2.9

     total cpu time spent up to now is       21.1 secs

     total energy              =    -325.62360745 Ry
     estimated scf accuracy    <       0.00000026 Ry

     iteration #  8     ecut=   370.00 Ry     beta= 0.70
     Davidson diagonalization with overlap
     ethr =  9.31E-10,  avg # of iterations =  2.2

     total cpu time spent up to now is       23.1 secs

     End of self-consistent calculation

     Number of k-points >= 100: set verbosity='high' to print the bands.

     highest occupied level (ev):     9.8210

!    total energy              =    -325.62360752 Ry
     estimated scf accuracy    <       0.00000006 Ry

     The total energy is the sum of the following terms:
     one-electron contribution =    -138.68731262 Ry
     hartree contribution      =      88.66072537 Ry
     xc contribution           =     -95.36796979 Ry
     ewald contribution        =    -180.22905048 Ry

     convergence has been achieved in   8 iterations

     Writing all to output data dir ./alpha-EOS/alpha.save/ :
     XML data file, charge density, pseudopotentials, collected wavefunctions

     init_run     :      1.80s CPU      1.89s WALL (       1 calls)
     electrons    :     20.51s CPU     21.03s WALL (       1 calls)

     Called by init_run:
     wfcinit      :      0.88s CPU      0.90s WALL (       1 calls)
     potinit      :      0.06s CPU      0.08s WALL (       1 calls)
     hinit0       :      0.49s CPU      0.51s WALL (       1 calls)

     Called by electrons:
     c_bands      :     16.79s CPU     17.11s WALL (       9 calls)
     sum_band     :      3.10s CPU      3.17s WALL (       9 calls)
     v_of_rho     :      0.42s CPU      0.45s WALL (       9 calls)
     newd         :      0.17s CPU      0.19s WALL (       9 calls)
     mix_rho      :      0.05s CPU      0.05s WALL (       9 calls)

     Called by c_bands:
     init_us_2    :      0.35s CPU      0.37s WALL (     494 calls)
     cegterg      :     15.85s CPU     16.03s WALL (     234 calls)

     Called by *egterg:
     cdiaghg      :      0.36s CPU      0.37s WALL (    1017 calls)
     h_psi        :     14.64s CPU     14.81s WALL (    1069 calls)
     s_psi        :      0.25s CPU      0.25s WALL (    1069 calls)
     g_psi        :      0.04s CPU      0.04s WALL (     809 calls)

     Called by h_psi:
     h_psi:calbec :      0.54s CPU      0.55s WALL (    1069 calls)
     vloc_psi     :     13.73s CPU     13.89s WALL (    1069 calls)
     add_vuspsi   :      0.28s CPU      0.29s WALL (    1069 calls)

     General routines
     calbec       :      0.63s CPU      0.64s WALL (    1303 calls)
     fft          :      0.67s CPU      0.70s WALL (     100 calls)
     ffts         :      0.02s CPU      0.03s WALL (       9 calls)
     fftw         :     14.31s CPU     14.47s WALL (   21180 calls)

     Parallel routines

     PWSCF        :     22.82s CPU     25.25s WALL


   This run was terminated on:  23:26:36  25Feb2026            

=------------------------------------------------------------------------------=
   JOB DONE.
=------------------------------------------------------------------------------=
