
     Program PWSCF v.7.3.1 starts on 25Feb2026 at 23:28:37 

     This program is part of the open-source Quantum ESPRESSO suite
     for quantum simulation of materials; please cite
         "P. Giannozzi et al., J. Phys.:Condens. Matter 21 395502 (2009);
         "P. Giannozzi et al., J. Phys.:Condens. Matter 29 465901 (2017);
         "P. Giannozzi et al., J. Chem. Phys. 152 154105 (2020);
          URL http://www.quantum-espresso.org", 
     in publications or presentations arising from this work. More details at
     http://www.quantum-espresso.org/quote

     Parallel version (MPI), running on   128 processors

     MPI processes distributed on     1 nodes
     236850 MiB available memory on the printing compute node when the environment starts

     Waiting for input...
     Reading input from standard input
     Message from routine read_cards :
     DEPRECATED: no units specified in ATOMIC_POSITIONS card
     Message from routine read_cards :
     ATOMIC_POSITIONS: units set to alat

     Current dimensions of program PWSCF are:
     Max number of different atomic species (ntypx) = 10
     Max number of k-points (npk) =  40000
     Max angular momentum in pseudopotentials (lmaxx) =  4

     K-points division:     npool     =       4
     R & G space division:  proc/nbgrp/npool/nimage =      32
     Subspace diagonalization in iterative solution of the eigenvalue problem:
     a serial algorithm will be used


     Parallelization info
     --------------------
     sticks:   dense  smooth     PW     G-vecs:    dense   smooth      PW
     Min         223     223     60                12463    12463    1731
     Max         224     224     61                12468    12468    1736
     Sum        7147    7147   1921               398885   398885   55465

     Using Slab Decomposition



     bravais-lattice index     =            2
     lattice parameter (alat)  =      11.8386  a.u.
     unit-cell volume          =     414.8064 (a.u.)^3
     number of atoms/cell      =            2
     number of atomic types    =            1
     number of electrons       =        28.00
     number of Kohn-Sham states=           14
     kinetic-energy cutoff     =     370.0000  Ry
     charge density cutoff     =    1480.0000  Ry
     scf convergence threshold =      1.0E-07
     mixing beta               =       0.7000
     number of iterations used =            8  plain     mixing
     Exchange-correlation=  SLA  PW   GGX  GGC
                           (   1   4   2   2   0   0   0)

     celldm(1)=  11.838640  celldm(2)=   0.000000  celldm(3)=   0.000000
     celldm(4)=   0.000000  celldm(5)=   0.000000  celldm(6)=   0.000000

     crystal axes: (cart. coord. in units of alat)
               a(1) = (  -0.500000   0.000000   0.500000 )  
               a(2) = (   0.000000   0.500000   0.500000 )  
               a(3) = (  -0.500000   0.500000   0.000000 )  

     reciprocal axes: (cart. coord. in units 2 pi/alat)
               b(1) = ( -1.000000 -1.000000  1.000000 )  
               b(2) = (  1.000000  1.000000  1.000000 )  
               b(3) = ( -1.000000  1.000000 -1.000000 )  


     PseudoPot. # 1 for Sn read from file:
     ./Sn.pw91-n-van.UPF
     MD5 check sum: a38d2a872edd1a4efd76c0a1a38f7031
     Pseudo is Ultrasoft + core correction, Zval = 14.0
     Generated by new atomic code, or converted to UPF format
     Using radial grid of  891 points,  6 beta functions with: 
                l(1) =   0
                l(2) =   0
                l(3) =   1
                l(4) =   1
                l(5) =   2
                l(6) =   2
     Q(r) pseudized with  8 coefficients,  rinner =    1.100   1.100   1.100
                                                       1.100   1.100

     atomic species   valence    mass     pseudopotential
     Sn               14.00   118.70000     Sn( 1.00)

     48 Sym. Ops., with inversion, found (24 have fractional translation)



   Cartesian axes

     site n.     atom                  positions (alat units)
         1        Sn     tau(   1) = (   0.0000000   0.0000000   0.0000000  )
         2        Sn     tau(   2) = (   0.2500000   0.2500000   0.2500000  )

     number of k points=   104

     Number of k-points >= 100: set verbosity='high' to print them.

     Dense  grid:   398885 G-vectors     FFT dimensions: ( 108, 108, 108)

     Estimated max dynamical RAM per process >      30.39 MB

     Estimated total dynamical RAM >       3.51 GB

     Initial potential from superposition of free atoms

     starting charge      27.9964, renormalised to      28.0000
     Starting wfcs are   18 randomized atomic wfcs

     total cpu time spent up to now is        2.2 secs

     per-process dynamical memory:    29.1 Mb

     Self-consistent Calculation

     iteration #  1     ecut=   370.00 Ry     beta= 0.70
     Davidson diagonalization with overlap
     ethr =  1.00E-02,  avg # of iterations =  3.0

     Threshold (ethr) on eigenvalues was too large:
     Diagonalizing with lowered threshold

     Davidson diagonalization with overlap
     ethr =  6.10E-05,  avg # of iterations =  4.2

     total cpu time spent up to now is        7.0 secs

     total energy              =    -325.51188038 Ry
     estimated scf accuracy    <       0.02117849 Ry

     iteration #  2     ecut=   370.00 Ry     beta= 0.70
     Davidson diagonalization with overlap
     ethr =  7.56E-05,  avg # of iterations =  5.0

     total cpu time spent up to now is       10.1 secs

     total energy              =    -325.59957838 Ry
     estimated scf accuracy    <       0.04565957 Ry

     iteration #  3     ecut=   370.00 Ry     beta= 0.70
     Davidson diagonalization with overlap
     ethr =  7.56E-05,  avg # of iterations =  2.0

     total cpu time spent up to now is       12.2 secs

     total energy              =    -325.62891595 Ry
     estimated scf accuracy    <       0.01902644 Ry

     iteration #  4     ecut=   370.00 Ry     beta= 0.70
     Davidson diagonalization with overlap
     ethr =  6.80E-05,  avg # of iterations =  2.1

     total cpu time spent up to now is       14.3 secs

     total energy              =    -325.63296156 Ry
     estimated scf accuracy    <       0.00047601 Ry

     iteration #  5     ecut=   370.00 Ry     beta= 0.70
     Davidson diagonalization with overlap
     ethr =  1.70E-06,  avg # of iterations =  2.6

     total cpu time spent up to now is       16.5 secs

     total energy              =    -325.63314667 Ry
     estimated scf accuracy    <       0.00006096 Ry

     iteration #  6     ecut=   370.00 Ry     beta= 0.70
     Davidson diagonalization with overlap
     ethr =  2.18E-07,  avg # of iterations =  2.1

     total cpu time spent up to now is       18.7 secs

     total energy              =    -325.63316273 Ry
     estimated scf accuracy    <       0.00000216 Ry

     iteration #  7     ecut=   370.00 Ry     beta= 0.70
     Davidson diagonalization with overlap
     ethr =  7.72E-09,  avg # of iterations =  2.9

     total cpu time spent up to now is       21.3 secs

     total energy              =    -325.63316317 Ry
     estimated scf accuracy    <       0.00000018 Ry

     iteration #  8     ecut=   370.00 Ry     beta= 0.70
     Davidson diagonalization with overlap
     ethr =  6.51E-10,  avg # of iterations =  2.5

     total cpu time spent up to now is       23.5 secs

     End of self-consistent calculation

     Number of k-points >= 100: set verbosity='high' to print the bands.

     highest occupied level (ev):     9.3612

!    total energy              =    -325.63316319 Ry
     estimated scf accuracy    <          1.9E-09 Ry

     The total energy is the sum of the following terms:
     one-electron contribution =    -141.68661904 Ry
     hartree contribution      =      89.75194785 Ry
     xc contribution           =     -95.33131188 Ry
     ewald contribution        =    -178.36718012 Ry

     convergence has been achieved in   8 iterations

     Writing all to output data dir ./alpha-EOS/alpha.save/ :
     XML data file, charge density, pseudopotentials, collected wavefunctions

     init_run     :      1.85s CPU      1.91s WALL (       1 calls)
     electrons    :     20.89s CPU     21.41s WALL (       1 calls)

     Called by init_run:
     wfcinit      :      0.89s CPU      0.90s WALL (       1 calls)
     potinit      :      0.07s CPU      0.09s WALL (       1 calls)
     hinit0       :      0.52s CPU      0.53s WALL (       1 calls)

     Called by electrons:
     c_bands      :     17.09s CPU     17.41s WALL (       9 calls)
     sum_band     :      3.16s CPU      3.21s WALL (       9 calls)
     v_of_rho     :      0.42s CPU      0.45s WALL (       9 calls)
     newd         :      0.19s CPU      0.20s WALL (       9 calls)
     mix_rho      :      0.06s CPU      0.06s WALL (       9 calls)

     Called by c_bands:
     init_us_2    :      0.37s CPU      0.39s WALL (     494 calls)
     cegterg      :     16.09s CPU     16.27s WALL (     234 calls)

     Called by *egterg:
     cdiaghg      :      0.37s CPU      0.37s WALL (    1029 calls)
     h_psi        :     14.81s CPU     14.96s WALL (    1081 calls)
     s_psi        :      0.26s CPU      0.26s WALL (    1081 calls)
     g_psi        :      0.04s CPU      0.04s WALL (     821 calls)

     Called by h_psi:
     h_psi:calbec :      0.58s CPU      0.59s WALL (    1081 calls)
     vloc_psi     :     13.84s CPU     13.98s WALL (    1081 calls)
     add_vuspsi   :      0.29s CPU      0.30s WALL (    1081 calls)

     General routines
     calbec       :      0.68s CPU      0.69s WALL (    1315 calls)
     fft          :      0.68s CPU      0.71s WALL (     100 calls)
     ffts         :      0.02s CPU      0.02s WALL (       9 calls)
     fftw         :     14.41s CPU     14.55s WALL (   21170 calls)

     Parallel routines

     PWSCF        :     23.31s CPU     25.32s WALL


   This run was terminated on:  23:29: 2  25Feb2026            

=------------------------------------------------------------------------------=
   JOB DONE.
=------------------------------------------------------------------------------=
