
     Program PWSCF v.7.3.1 starts on 25Feb2026 at 23:29: 8 

     This program is part of the open-source Quantum ESPRESSO suite
     for quantum simulation of materials; please cite
         "P. Giannozzi et al., J. Phys.:Condens. Matter 21 395502 (2009);
         "P. Giannozzi et al., J. Phys.:Condens. Matter 29 465901 (2017);
         "P. Giannozzi et al., J. Chem. Phys. 152 154105 (2020);
          URL http://www.quantum-espresso.org", 
     in publications or presentations arising from this work. More details at
     http://www.quantum-espresso.org/quote

     Parallel version (MPI), running on   128 processors

     MPI processes distributed on     1 nodes
     236933 MiB available memory on the printing compute node when the environment starts

     Waiting for input...
     Reading input from standard input
     Message from routine read_cards :
     DEPRECATED: no units specified in ATOMIC_POSITIONS card
     Message from routine read_cards :
     ATOMIC_POSITIONS: units set to alat

     Current dimensions of program PWSCF are:
     Max number of different atomic species (ntypx) = 10
     Max number of k-points (npk) =  40000
     Max angular momentum in pseudopotentials (lmaxx) =  4

     K-points division:     npool     =       4
     R & G space division:  proc/nbgrp/npool/nimage =      32
     Subspace diagonalization in iterative solution of the eigenvalue problem:
     a serial algorithm will be used


     Parallelization info
     --------------------
     sticks:   dense  smooth     PW     G-vecs:    dense   smooth      PW
     Min         224     224     60                12537    12537    1744
     Max         225     225     61                12541    12541    1747
     Sum        7171    7171   1921               401237   401237   55849

     Using Slab Decomposition



     bravais-lattice index     =            2
     lattice parameter (alat)  =      11.8631  a.u.
     unit-cell volume          =     417.3828 (a.u.)^3
     number of atoms/cell      =            2
     number of atomic types    =            1
     number of electrons       =        28.00
     number of Kohn-Sham states=           14
     kinetic-energy cutoff     =     370.0000  Ry
     charge density cutoff     =    1480.0000  Ry
     scf convergence threshold =      1.0E-07
     mixing beta               =       0.7000
     number of iterations used =            8  plain     mixing
     Exchange-correlation=  SLA  PW   GGX  GGC
                           (   1   4   2   2   0   0   0)

     celldm(1)=  11.863100  celldm(2)=   0.000000  celldm(3)=   0.000000
     celldm(4)=   0.000000  celldm(5)=   0.000000  celldm(6)=   0.000000

     crystal axes: (cart. coord. in units of alat)
               a(1) = (  -0.500000   0.000000   0.500000 )  
               a(2) = (   0.000000   0.500000   0.500000 )  
               a(3) = (  -0.500000   0.500000   0.000000 )  

     reciprocal axes: (cart. coord. in units 2 pi/alat)
               b(1) = ( -1.000000 -1.000000  1.000000 )  
               b(2) = (  1.000000  1.000000  1.000000 )  
               b(3) = ( -1.000000  1.000000 -1.000000 )  


     PseudoPot. # 1 for Sn read from file:
     ./Sn.pw91-n-van.UPF
     MD5 check sum: a38d2a872edd1a4efd76c0a1a38f7031
     Pseudo is Ultrasoft + core correction, Zval = 14.0
     Generated by new atomic code, or converted to UPF format
     Using radial grid of  891 points,  6 beta functions with: 
                l(1) =   0
                l(2) =   0
                l(3) =   1
                l(4) =   1
                l(5) =   2
                l(6) =   2
     Q(r) pseudized with  8 coefficients,  rinner =    1.100   1.100   1.100
                                                       1.100   1.100

     atomic species   valence    mass     pseudopotential
     Sn               14.00   118.70000     Sn( 1.00)

     48 Sym. Ops., with inversion, found (24 have fractional translation)



   Cartesian axes

     site n.     atom                  positions (alat units)
         1        Sn     tau(   1) = (   0.0000000   0.0000000   0.0000000  )
         2        Sn     tau(   2) = (   0.2500000   0.2500000   0.2500000  )

     number of k points=   104

     Number of k-points >= 100: set verbosity='high' to print them.

     Dense  grid:   401237 G-vectors     FFT dimensions: ( 108, 108, 108)

     Estimated max dynamical RAM per process >      30.53 MB

     Estimated total dynamical RAM >       3.53 GB

     Initial potential from superposition of free atoms

     starting charge      27.9964, renormalised to      28.0000
     Starting wfcs are   18 randomized atomic wfcs

     total cpu time spent up to now is        2.2 secs

     per-process dynamical memory:    29.0 Mb

     Self-consistent Calculation

     iteration #  1     ecut=   370.00 Ry     beta= 0.70
     Davidson diagonalization with overlap
     ethr =  1.00E-02,  avg # of iterations =  3.0

     Threshold (ethr) on eigenvalues was too large:
     Diagonalizing with lowered threshold

     Davidson diagonalization with overlap
     ethr =  6.25E-05,  avg # of iterations =  4.0

     total cpu time spent up to now is        7.1 secs

     total energy              =    -325.51067113 Ry
     estimated scf accuracy    <       0.02153281 Ry

     iteration #  2     ecut=   370.00 Ry     beta= 0.70
     Davidson diagonalization with overlap
     ethr =  7.69E-05,  avg # of iterations =  5.1

     total cpu time spent up to now is       10.2 secs

     total energy              =    -325.60112826 Ry
     estimated scf accuracy    <       0.04669595 Ry

     iteration #  3     ecut=   370.00 Ry     beta= 0.70
     Davidson diagonalization with overlap
     ethr =  7.69E-05,  avg # of iterations =  2.0

     total cpu time spent up to now is       12.3 secs

     total energy              =    -325.63046979 Ry
     estimated scf accuracy    <       0.01941479 Ry

     iteration #  4     ecut=   370.00 Ry     beta= 0.70
     Davidson diagonalization with overlap
     ethr =  6.93E-05,  avg # of iterations =  2.1

     total cpu time spent up to now is       14.4 secs

     total energy              =    -325.63463512 Ry
     estimated scf accuracy    <       0.00041739 Ry

     iteration #  5     ecut=   370.00 Ry     beta= 0.70
     Davidson diagonalization with overlap
     ethr =  1.49E-06,  avg # of iterations =  2.7

     total cpu time spent up to now is       16.7 secs

     total energy              =    -325.63481450 Ry
     estimated scf accuracy    <       0.00006240 Ry

     iteration #  6     ecut=   370.00 Ry     beta= 0.70
     Davidson diagonalization with overlap
     ethr =  2.23E-07,  avg # of iterations =  2.1

     total cpu time spent up to now is       18.8 secs

     total energy              =    -325.63483124 Ry
     estimated scf accuracy    <       0.00000187 Ry

     iteration #  7     ecut=   370.00 Ry     beta= 0.70
     Davidson diagonalization with overlap
     ethr =  6.69E-09,  avg # of iterations =  3.0

     total cpu time spent up to now is       21.4 secs

     total energy              =    -325.63483164 Ry
     estimated scf accuracy    <       0.00000012 Ry

     iteration #  8     ecut=   370.00 Ry     beta= 0.70
     Davidson diagonalization with overlap
     ethr =  4.35E-10,  avg # of iterations =  2.8

     total cpu time spent up to now is       23.7 secs

     End of self-consistent calculation

     Number of k-points >= 100: set verbosity='high' to print the bands.

     highest occupied level (ev):     9.2718

!    total energy              =    -325.63483166 Ry
     estimated scf accuracy    <          1.4E-09 Ry

     The total energy is the sum of the following terms:
     one-electron contribution =    -142.27966761 Ry
     hartree contribution      =      89.96839532 Ry
     xc contribution           =     -95.32414662 Ry
     ewald contribution        =    -177.99941274 Ry

     convergence has been achieved in   8 iterations

     Writing all to output data dir ./alpha-EOS/alpha.save/ :
     XML data file, charge density, pseudopotentials, collected wavefunctions

     init_run     :      1.81s CPU      1.90s WALL (       1 calls)
     electrons    :     20.99s CPU     21.52s WALL (       1 calls)

     Called by init_run:
     wfcinit      :      0.88s CPU      0.91s WALL (       1 calls)
     potinit      :      0.06s CPU      0.07s WALL (       1 calls)
     hinit0       :      0.50s CPU      0.52s WALL (       1 calls)

     Called by electrons:
     c_bands      :     17.20s CPU     17.54s WALL (       9 calls)
     sum_band     :      3.16s CPU      3.21s WALL (       9 calls)
     v_of_rho     :      0.39s CPU      0.45s WALL (       9 calls)
     newd         :      0.18s CPU      0.21s WALL (       9 calls)
     mix_rho      :      0.06s CPU      0.06s WALL (       9 calls)

     Called by c_bands:
     init_us_2    :      0.36s CPU      0.38s WALL (     494 calls)
     cegterg      :     16.23s CPU     16.42s WALL (     234 calls)

     Called by *egterg:
     cdiaghg      :      0.37s CPU      0.38s WALL (    1037 calls)
     h_psi        :     14.89s CPU     15.08s WALL (    1089 calls)
     s_psi        :      0.26s CPU      0.27s WALL (    1089 calls)
     g_psi        :      0.04s CPU      0.04s WALL (     829 calls)

     Called by h_psi:
     h_psi:calbec :      0.59s CPU      0.60s WALL (    1089 calls)
     vloc_psi     :     13.92s CPU     14.09s WALL (    1089 calls)
     add_vuspsi   :      0.29s CPU      0.30s WALL (    1089 calls)

     General routines
     calbec       :      0.69s CPU      0.70s WALL (    1323 calls)
     fft          :      0.66s CPU      0.71s WALL (     100 calls)
     ffts         :      0.03s CPU      0.03s WALL (       9 calls)
     fftw         :     14.46s CPU     14.62s WALL (   21202 calls)

     Parallel routines

     PWSCF        :     23.50s CPU     25.53s WALL


   This run was terminated on:  23:29:33  25Feb2026            

=------------------------------------------------------------------------------=
   JOB DONE.
=------------------------------------------------------------------------------=
