
     Program PWSCF v.7.3.1 starts on 25Feb2026 at 19:38:41 

     This program is part of the open-source Quantum ESPRESSO suite
     for quantum simulation of materials; please cite
         "P. Giannozzi et al., J. Phys.:Condens. Matter 21 395502 (2009);
         "P. Giannozzi et al., J. Phys.:Condens. Matter 29 465901 (2017);
         "P. Giannozzi et al., J. Chem. Phys. 152 154105 (2020);
          URL http://www.quantum-espresso.org", 
     in publications or presentations arising from this work. More details at
     http://www.quantum-espresso.org/quote

     Parallel version (MPI), running on   128 processors

     MPI processes distributed on     1 nodes
     239594 MiB available memory on the printing compute node when the environment starts

     Waiting for input...
     Reading input from standard input
     Message from routine read_cards :
     DEPRECATED: no units specified in ATOMIC_POSITIONS card
     Message from routine read_cards :
     ATOMIC_POSITIONS: units set to alat

     Current dimensions of program PWSCF are:
     Max number of different atomic species (ntypx) = 10
     Max number of k-points (npk) =  40000
     Max angular momentum in pseudopotentials (lmaxx) =  4

     K-points division:     npool     =       4
     R & G space division:  proc/nbgrp/npool/nimage =      32
     Subspace diagonalization in iterative solution of the eigenvalue problem:
     a serial algorithm will be used


     Parallelization info
     --------------------
     sticks:   dense  smooth     PW     G-vecs:    dense   smooth      PW
     Min         227     227     60                12852    12852    1778
     Max         228     228     61                12856    12856    1783
     Sum        7291    7291   1945               411301   411301   57001

     Using Slab Decomposition



     bravais-lattice index     =            2
     lattice parameter (alat)  =      11.9609  a.u.
     unit-cell volume          =     427.7952 (a.u.)^3
     number of atoms/cell      =            2
     number of atomic types    =            1
     number of electrons       =        28.00
     number of Kohn-Sham states=           14
     kinetic-energy cutoff     =     370.0000  Ry
     charge density cutoff     =    1480.0000  Ry
     scf convergence threshold =      1.0E-07
     mixing beta               =       0.7000
     number of iterations used =            8  plain     mixing
     Exchange-correlation=  SLA  PW   GGX  GGC
                           (   1   4   2   2   0   0   0)

     celldm(1)=  11.960940  celldm(2)=   0.000000  celldm(3)=   0.000000
     celldm(4)=   0.000000  celldm(5)=   0.000000  celldm(6)=   0.000000

     crystal axes: (cart. coord. in units of alat)
               a(1) = (  -0.500000   0.000000   0.500000 )  
               a(2) = (   0.000000   0.500000   0.500000 )  
               a(3) = (  -0.500000   0.500000   0.000000 )  

     reciprocal axes: (cart. coord. in units 2 pi/alat)
               b(1) = ( -1.000000 -1.000000  1.000000 )  
               b(2) = (  1.000000  1.000000  1.000000 )  
               b(3) = ( -1.000000  1.000000 -1.000000 )  


     PseudoPot. # 1 for Sn read from file:
     ./Sn.pw91-n-van.UPF
     MD5 check sum: a38d2a872edd1a4efd76c0a1a38f7031
     Pseudo is Ultrasoft + core correction, Zval = 14.0
     Generated by new atomic code, or converted to UPF format
     Using radial grid of  891 points,  6 beta functions with: 
                l(1) =   0
                l(2) =   0
                l(3) =   1
                l(4) =   1
                l(5) =   2
                l(6) =   2
     Q(r) pseudized with  8 coefficients,  rinner =    1.100   1.100   1.100
                                                       1.100   1.100

     atomic species   valence    mass     pseudopotential
     Sn               14.00   118.70000     Sn( 1.00)

     48 Sym. Ops., with inversion, found (24 have fractional translation)



   Cartesian axes

     site n.     atom                  positions (alat units)
         1        Sn     tau(   1) = (   0.0000000   0.0000000   0.0000000  )
         2        Sn     tau(   2) = (   0.2500000   0.2500000   0.2500000  )

     number of k points=   104

     Number of k-points >= 100: set verbosity='high' to print them.

     Dense  grid:   411301 G-vectors     FFT dimensions: ( 108, 108, 108)

     Estimated max dynamical RAM per process >      31.14 MB

     Estimated total dynamical RAM >       3.60 GB

     Initial potential from superposition of free atoms

     starting charge      27.9964, renormalised to      28.0000
     Starting wfcs are   18 randomized atomic wfcs

     total cpu time spent up to now is        2.3 secs

     per-process dynamical memory:    29.5 Mb

     Self-consistent Calculation

     iteration #  1     ecut=   370.00 Ry     beta= 0.70
     Davidson diagonalization with overlap
     ethr =  1.00E-02,  avg # of iterations =  3.0

     Threshold (ethr) on eigenvalues was too large:
     Diagonalizing with lowered threshold

     Davidson diagonalization with overlap
     ethr =  6.26E-05,  avg # of iterations =  4.1

     total cpu time spent up to now is        7.1 secs

     total energy              =    -325.52338005 Ry
     estimated scf accuracy    <       0.02139723 Ry

     iteration #  2     ecut=   370.00 Ry     beta= 0.70
     Davidson diagonalization with overlap
     ethr =  7.64E-05,  avg # of iterations =  5.0

     total cpu time spent up to now is       10.3 secs

     total energy              =    -325.60685635 Ry
     estimated scf accuracy    <       0.04365601 Ry

     iteration #  3     ecut=   370.00 Ry     beta= 0.70
     Davidson diagonalization with overlap
     ethr =  7.64E-05,  avg # of iterations =  2.0

     total cpu time spent up to now is       12.3 secs

     total energy              =    -325.63589646 Ry
     estimated scf accuracy    <       0.01816958 Ry

     iteration #  4     ecut=   370.00 Ry     beta= 0.70
     Davidson diagonalization with overlap
     ethr =  6.49E-05,  avg # of iterations =  2.1

     total cpu time spent up to now is       14.4 secs

     total energy              =    -325.63999236 Ry
     estimated scf accuracy    <       0.00042300 Ry

     iteration #  5     ecut=   370.00 Ry     beta= 0.70
     Davidson diagonalization with overlap
     ethr =  1.51E-06,  avg # of iterations =  2.8

     total cpu time spent up to now is       16.7 secs

     total energy              =    -325.64070567 Ry
     estimated scf accuracy    <       0.00006894 Ry

     iteration #  6     ecut=   370.00 Ry     beta= 0.70
     Davidson diagonalization with overlap
     ethr =  2.46E-07,  avg # of iterations =  2.0

     total cpu time spent up to now is       18.9 secs

     total energy              =    -325.64074343 Ry
     estimated scf accuracy    <       0.00000057 Ry

     iteration #  7     ecut=   370.00 Ry     beta= 0.70
     Davidson diagonalization with overlap
     ethr =  2.04E-09,  avg # of iterations =  3.9

     total cpu time spent up to now is       21.8 secs

     End of self-consistent calculation

     Number of k-points >= 100: set verbosity='high' to print the bands.

     highest occupied level (ev):     8.9226

!    total energy              =    -325.64074390 Ry
     estimated scf accuracy    <       0.00000002 Ry

     The total energy is the sum of the following terms:
     one-electron contribution =    -144.62956527 Ry
     hartree contribution      =      90.82816661 Ry
     xc contribution           =     -95.29596042 Ry
     ewald contribution        =    -176.54338483 Ry

     convergence has been achieved in   7 iterations

     Writing all to output data dir ./alpha-EOS/alpha.save/ :
     XML data file, charge density, pseudopotentials, collected wavefunctions

     init_run     :      1.87s CPU      1.97s WALL (       1 calls)
     electrons    :     19.22s CPU     19.67s WALL (       1 calls)

     Called by init_run:
     wfcinit      :      0.90s CPU      0.92s WALL (       1 calls)
     potinit      :      0.07s CPU      0.09s WALL (       1 calls)
     hinit0       :      0.50s CPU      0.52s WALL (       1 calls)

     Called by electrons:
     c_bands      :     15.78s CPU     16.07s WALL (       8 calls)
     sum_band     :      2.86s CPU      2.90s WALL (       8 calls)
     v_of_rho     :      0.37s CPU      0.41s WALL (       8 calls)
     newd         :      0.16s CPU      0.19s WALL (       8 calls)
     mix_rho      :      0.05s CPU      0.05s WALL (       8 calls)

     Called by c_bands:
     init_us_2    :      0.34s CPU      0.36s WALL (     442 calls)
     cegterg      :     14.93s CPU     15.09s WALL (     208 calls)

     Called by *egterg:
     cdiaghg      :      0.35s CPU      0.35s WALL (     952 calls)
     h_psi        :     13.73s CPU     13.88s WALL (    1004 calls)
     s_psi        :      0.25s CPU      0.25s WALL (    1004 calls)
     g_psi        :      0.04s CPU      0.04s WALL (     770 calls)

     Called by h_psi:
     h_psi:calbec :      0.56s CPU      0.57s WALL (    1004 calls)
     vloc_psi     :     12.81s CPU     12.95s WALL (    1004 calls)
     add_vuspsi   :      0.28s CPU      0.28s WALL (    1004 calls)

     General routines
     calbec       :      0.65s CPU      0.65s WALL (    1212 calls)
     fft          :      0.66s CPU      0.69s WALL (      89 calls)
     ffts         :      0.02s CPU      0.03s WALL (       8 calls)
     fftw         :     13.27s CPU     13.40s WALL (   19368 calls)

     Parallel routines

     PWSCF        :     21.68s CPU     23.89s WALL


   This run was terminated on:  19:39: 5  25Feb2026            

=------------------------------------------------------------------------------=
   JOB DONE.
=------------------------------------------------------------------------------=
