
     Program PWSCF v.7.3.1 starts on 25Feb2026 at 23:32:50 

     This program is part of the open-source Quantum ESPRESSO suite
     for quantum simulation of materials; please cite
         "P. Giannozzi et al., J. Phys.:Condens. Matter 21 395502 (2009);
         "P. Giannozzi et al., J. Phys.:Condens. Matter 29 465901 (2017);
         "P. Giannozzi et al., J. Chem. Phys. 152 154105 (2020);
          URL http://www.quantum-espresso.org", 
     in publications or presentations arising from this work. More details at
     http://www.quantum-espresso.org/quote

     Parallel version (MPI), running on   128 processors

     MPI processes distributed on     1 nodes
     236720 MiB available memory on the printing compute node when the environment starts

     Waiting for input...
     Reading input from standard input
     Message from routine read_cards :
     DEPRECATED: no units specified in ATOMIC_POSITIONS card
     Message from routine read_cards :
     ATOMIC_POSITIONS: units set to alat

     Current dimensions of program PWSCF are:
     Max number of different atomic species (ntypx) = 10
     Max number of k-points (npk) =  40000
     Max angular momentum in pseudopotentials (lmaxx) =  4

     K-points division:     npool     =       4
     R & G space division:  proc/nbgrp/npool/nimage =      32
     Subspace diagonalization in iterative solution of the eigenvalue problem:
     a serial algorithm will be used


     Parallelization info
     --------------------
     sticks:   dense  smooth     PW     G-vecs:    dense   smooth      PW
     Min         232     232     61                13179    13179    1830
     Max         234     234     62                13180    13180    1834
     Sum        7447    7447   1981               421753   421753   58623

     Using Slab Decomposition



     bravais-lattice index     =            2
     lattice parameter (alat)  =      12.0588  a.u.
     unit-cell volume          =     438.3794 (a.u.)^3
     number of atoms/cell      =            2
     number of atomic types    =            1
     number of electrons       =        28.00
     number of Kohn-Sham states=           14
     kinetic-energy cutoff     =     370.0000  Ry
     charge density cutoff     =    1480.0000  Ry
     scf convergence threshold =      1.0E-07
     mixing beta               =       0.7000
     number of iterations used =            8  plain     mixing
     Exchange-correlation=  SLA  PW   GGX  GGC
                           (   1   4   2   2   0   0   0)

     celldm(1)=  12.058780  celldm(2)=   0.000000  celldm(3)=   0.000000
     celldm(4)=   0.000000  celldm(5)=   0.000000  celldm(6)=   0.000000

     crystal axes: (cart. coord. in units of alat)
               a(1) = (  -0.500000   0.000000   0.500000 )  
               a(2) = (   0.000000   0.500000   0.500000 )  
               a(3) = (  -0.500000   0.500000   0.000000 )  

     reciprocal axes: (cart. coord. in units 2 pi/alat)
               b(1) = ( -1.000000 -1.000000  1.000000 )  
               b(2) = (  1.000000  1.000000  1.000000 )  
               b(3) = ( -1.000000  1.000000 -1.000000 )  


     PseudoPot. # 1 for Sn read from file:
     ./Sn.pw91-n-van.UPF
     MD5 check sum: a38d2a872edd1a4efd76c0a1a38f7031
     Pseudo is Ultrasoft + core correction, Zval = 14.0
     Generated by new atomic code, or converted to UPF format
     Using radial grid of  891 points,  6 beta functions with: 
                l(1) =   0
                l(2) =   0
                l(3) =   1
                l(4) =   1
                l(5) =   2
                l(6) =   2
     Q(r) pseudized with  8 coefficients,  rinner =    1.100   1.100   1.100
                                                       1.100   1.100

     atomic species   valence    mass     pseudopotential
     Sn               14.00   118.70000     Sn( 1.00)

     48 Sym. Ops., with inversion, found (24 have fractional translation)



   Cartesian axes

     site n.     atom                  positions (alat units)
         1        Sn     tau(   1) = (   0.0000000   0.0000000   0.0000000  )
         2        Sn     tau(   2) = (   0.2500000   0.2500000   0.2500000  )

     number of k points=   104

     Number of k-points >= 100: set verbosity='high' to print them.

     Dense  grid:   421753 G-vectors     FFT dimensions: ( 108, 108, 108)

     Estimated max dynamical RAM per process >      31.77 MB

     Estimated total dynamical RAM >       3.67 GB

     Initial potential from superposition of free atoms

     starting charge      27.9964, renormalised to      28.0000
     Starting wfcs are   18 randomized atomic wfcs

     total cpu time spent up to now is        2.3 secs

     per-process dynamical memory:    29.7 Mb

     Self-consistent Calculation

     iteration #  1     ecut=   370.00 Ry     beta= 0.70
     Davidson diagonalization with overlap
     ethr =  1.00E-02,  avg # of iterations =  3.0

     Threshold (ethr) on eigenvalues was too large:
     Diagonalizing with lowered threshold

     Davidson diagonalization with overlap
     ethr =  6.26E-05,  avg # of iterations =  4.2

     total cpu time spent up to now is        7.2 secs

     total energy              =    -325.52847095 Ry
     estimated scf accuracy    <       0.02141829 Ry

     iteration #  2     ecut=   370.00 Ry     beta= 0.70
     Davidson diagonalization with overlap
     ethr =  7.65E-05,  avg # of iterations =  5.0

     total cpu time spent up to now is       10.4 secs

     total energy              =    -325.61081146 Ry
     estimated scf accuracy    <       0.04297405 Ry

     iteration #  3     ecut=   370.00 Ry     beta= 0.70
     Davidson diagonalization with overlap
     ethr =  7.65E-05,  avg # of iterations =  1.9

     total cpu time spent up to now is       12.4 secs

     total energy              =    -325.64004254 Ry
     estimated scf accuracy    <       0.01793598 Ry

     iteration #  4     ecut=   370.00 Ry     beta= 0.70
     Davidson diagonalization with overlap
     ethr =  6.41E-05,  avg # of iterations =  2.2

     total cpu time spent up to now is       14.5 secs

     total energy              =    -325.64483607 Ry
     estimated scf accuracy    <       0.00031661 Ry

     iteration #  5     ecut=   370.00 Ry     beta= 0.70
     Davidson diagonalization with overlap
     ethr =  1.13E-06,  avg # of iterations =  3.0

     total cpu time spent up to now is       16.9 secs

     total energy              =    -325.64547293 Ry
     estimated scf accuracy    <       0.00008540 Ry

     iteration #  6     ecut=   370.00 Ry     beta= 0.70
     Davidson diagonalization with overlap
     ethr =  3.05E-07,  avg # of iterations =  2.0

     total cpu time spent up to now is       19.0 secs

     total energy              =    -325.64551398 Ry
     estimated scf accuracy    <       0.00000034 Ry

     iteration #  7     ecut=   370.00 Ry     beta= 0.70
     Davidson diagonalization with overlap
     ethr =  1.23E-09,  avg # of iterations =  4.4

     total cpu time spent up to now is       22.1 secs

     End of self-consistent calculation

     Number of k-points >= 100: set verbosity='high' to print the bands.

     highest occupied level (ev):     8.5853

!    total energy              =    -325.64551422 Ry
     estimated scf accuracy    <       0.00000002 Ry

     The total energy is the sum of the following terms:
     one-electron contribution =    -146.94701621 Ry
     hartree contribution      =      91.68161786 Ry
     xc contribution           =     -95.26913174 Ry
     ewald contribution        =    -175.11098414 Ry

     convergence has been achieved in   7 iterations

     Writing all to output data dir ./alpha-EOS/alpha.save/ :
     XML data file, charge density, pseudopotentials, collected wavefunctions

     init_run     :      1.86s CPU      1.97s WALL (       1 calls)
     electrons    :     19.51s CPU     19.93s WALL (       1 calls)

     Called by init_run:
     wfcinit      :      0.89s CPU      0.93s WALL (       1 calls)
     potinit      :      0.05s CPU      0.08s WALL (       1 calls)
     hinit0       :      0.49s CPU      0.52s WALL (       1 calls)

     Called by electrons:
     c_bands      :     16.01s CPU     16.29s WALL (       8 calls)
     sum_band     :      2.90s CPU      2.93s WALL (       8 calls)
     v_of_rho     :      0.37s CPU      0.41s WALL (       8 calls)
     newd         :      0.17s CPU      0.19s WALL (       8 calls)
     mix_rho      :      0.05s CPU      0.05s WALL (       8 calls)

     Called by c_bands:
     init_us_2    :      0.35s CPU      0.37s WALL (     442 calls)
     cegterg      :     15.13s CPU     15.27s WALL (     208 calls)

     Called by *egterg:
     cdiaghg      :      0.35s CPU      0.35s WALL (     965 calls)
     h_psi        :     13.87s CPU     14.00s WALL (    1017 calls)
     s_psi        :      0.25s CPU      0.26s WALL (    1017 calls)
     g_psi        :      0.03s CPU      0.04s WALL (     783 calls)

     Called by h_psi:
     h_psi:calbec :      0.59s CPU      0.60s WALL (    1017 calls)
     vloc_psi     :     12.91s CPU     13.03s WALL (    1017 calls)
     add_vuspsi   :      0.29s CPU      0.29s WALL (    1017 calls)

     General routines
     calbec       :      0.68s CPU      0.69s WALL (    1225 calls)
     fft          :      0.65s CPU      0.69s WALL (      89 calls)
     ffts         :      0.02s CPU      0.02s WALL (       8 calls)
     fftw         :     13.33s CPU     13.44s WALL (   19424 calls)

     Parallel routines

     PWSCF        :     22.33s CPU     25.08s WALL


   This run was terminated on:  23:33:16  25Feb2026            

=------------------------------------------------------------------------------=
   JOB DONE.
=------------------------------------------------------------------------------=
