
     Program PWSCF v.7.3.1 starts on 25Feb2026 at 23:35:42 

     This program is part of the open-source Quantum ESPRESSO suite
     for quantum simulation of materials; please cite
         "P. Giannozzi et al., J. Phys.:Condens. Matter 21 395502 (2009);
         "P. Giannozzi et al., J. Phys.:Condens. Matter 29 465901 (2017);
         "P. Giannozzi et al., J. Chem. Phys. 152 154105 (2020);
          URL http://www.quantum-espresso.org", 
     in publications or presentations arising from this work. More details at
     http://www.quantum-espresso.org/quote

     Parallel version (MPI), running on   128 processors

     MPI processes distributed on     1 nodes
     236702 MiB available memory on the printing compute node when the environment starts

     Waiting for input...
     Reading input from standard input
     Message from routine read_cards :
     DEPRECATED: no units specified in ATOMIC_POSITIONS card
     Message from routine read_cards :
     ATOMIC_POSITIONS: units set to alat

     Current dimensions of program PWSCF are:
     Max number of different atomic species (ntypx) = 10
     Max number of k-points (npk) =  40000
     Max angular momentum in pseudopotentials (lmaxx) =  4

     K-points division:     npool     =       4
     R & G space division:  proc/nbgrp/npool/nimage =      32
     Subspace diagonalization in iterative solution of the eigenvalue problem:
     a serial algorithm will be used


     Parallelization info
     --------------------
     sticks:   dense  smooth     PW     G-vecs:    dense   smooth      PW
     Min         237     237     64                13666    13666    1900
     Max         238     238     65                13669    13669    1903
     Sum        7591    7591   2053               437367   437367   60831

     Using Slab Decomposition



     bravais-lattice index     =            2
     lattice parameter (alat)  =      12.2055  a.u.
     unit-cell volume          =     454.5807 (a.u.)^3
     number of atoms/cell      =            2
     number of atomic types    =            1
     number of electrons       =        28.00
     number of Kohn-Sham states=           14
     kinetic-energy cutoff     =     370.0000  Ry
     charge density cutoff     =    1480.0000  Ry
     scf convergence threshold =      1.0E-07
     mixing beta               =       0.7000
     number of iterations used =            8  plain     mixing
     Exchange-correlation=  SLA  PW   GGX  GGC
                           (   1   4   2   2   0   0   0)

     celldm(1)=  12.205540  celldm(2)=   0.000000  celldm(3)=   0.000000
     celldm(4)=   0.000000  celldm(5)=   0.000000  celldm(6)=   0.000000

     crystal axes: (cart. coord. in units of alat)
               a(1) = (  -0.500000   0.000000   0.500000 )  
               a(2) = (   0.000000   0.500000   0.500000 )  
               a(3) = (  -0.500000   0.500000   0.000000 )  

     reciprocal axes: (cart. coord. in units 2 pi/alat)
               b(1) = ( -1.000000 -1.000000  1.000000 )  
               b(2) = (  1.000000  1.000000  1.000000 )  
               b(3) = ( -1.000000  1.000000 -1.000000 )  


     PseudoPot. # 1 for Sn read from file:
     ./Sn.pw91-n-van.UPF
     MD5 check sum: a38d2a872edd1a4efd76c0a1a38f7031
     Pseudo is Ultrasoft + core correction, Zval = 14.0
     Generated by new atomic code, or converted to UPF format
     Using radial grid of  891 points,  6 beta functions with: 
                l(1) =   0
                l(2) =   0
                l(3) =   1
                l(4) =   1
                l(5) =   2
                l(6) =   2
     Q(r) pseudized with  8 coefficients,  rinner =    1.100   1.100   1.100
                                                       1.100   1.100

     atomic species   valence    mass     pseudopotential
     Sn               14.00   118.70000     Sn( 1.00)

     48 Sym. Ops., with inversion, found (24 have fractional translation)



   Cartesian axes

     site n.     atom                  positions (alat units)
         1        Sn     tau(   1) = (   0.0000000   0.0000000   0.0000000  )
         2        Sn     tau(   2) = (   0.2500000   0.2500000   0.2500000  )

     number of k points=   104

     Number of k-points >= 100: set verbosity='high' to print them.

     Dense  grid:   437367 G-vectors     FFT dimensions: ( 108, 108, 108)

     Estimated max dynamical RAM per process >      32.71 MB

     Estimated total dynamical RAM >       3.78 GB

     Initial potential from superposition of free atoms

     starting charge      27.9964, renormalised to      28.0000
     Starting wfcs are   18 randomized atomic wfcs

     total cpu time spent up to now is        2.3 secs

     per-process dynamical memory:    30.1 Mb

     Self-consistent Calculation

     iteration #  1     ecut=   370.00 Ry     beta= 0.70
     Davidson diagonalization with overlap
     ethr =  1.00E-02,  avg # of iterations =  2.9

     Threshold (ethr) on eigenvalues was too large:
     Diagonalizing with lowered threshold

     Davidson diagonalization with overlap
     ethr =  6.37E-05,  avg # of iterations =  4.1

     negative rho (up, down):  4.344E-07 0.000E+00

     total cpu time spent up to now is        7.3 secs

     total energy              =    -325.54062114 Ry
     estimated scf accuracy    <       0.02151018 Ry

     iteration #  2     ecut=   370.00 Ry     beta= 0.70
     Davidson diagonalization with overlap
     ethr =  7.68E-05,  avg # of iterations =  5.0

     total cpu time spent up to now is       10.5 secs

     total energy              =    -325.61620353 Ry
     estimated scf accuracy    <       0.03978835 Ry

     iteration #  3     ecut=   370.00 Ry     beta= 0.70
     Davidson diagonalization with overlap
     ethr =  7.68E-05,  avg # of iterations =  1.3

     total cpu time spent up to now is       12.5 secs

     total energy              =    -325.64514500 Ry
     estimated scf accuracy    <       0.01653357 Ry

     iteration #  4     ecut=   370.00 Ry     beta= 0.70
     Davidson diagonalization with overlap
     ethr =  5.90E-05,  avg # of iterations =  2.1

     total cpu time spent up to now is       14.8 secs

     total energy              =    -325.65013445 Ry
     estimated scf accuracy    <       0.00023074 Ry

     iteration #  5     ecut=   370.00 Ry     beta= 0.70
     Davidson diagonalization with overlap
     ethr =  8.24E-07,  avg # of iterations =  3.5

     total cpu time spent up to now is       17.2 secs

     total energy              =    -325.65068977 Ry
     estimated scf accuracy    <       0.00009994 Ry

     iteration #  6     ecut=   370.00 Ry     beta= 0.70
     Davidson diagonalization with overlap
     ethr =  3.57E-07,  avg # of iterations =  2.0

     total cpu time spent up to now is       19.4 secs

     total energy              =    -325.65073145 Ry
     estimated scf accuracy    <       0.00000028 Ry

     iteration #  7     ecut=   370.00 Ry     beta= 0.70
     Davidson diagonalization with overlap
     ethr =  9.89E-10,  avg # of iterations =  4.8

     total cpu time spent up to now is       22.6 secs

     total energy              =    -325.65073209 Ry
     estimated scf accuracy    <       0.00000014 Ry

     iteration #  8     ecut=   370.00 Ry     beta= 0.70
     Davidson diagonalization with overlap
     ethr =  4.98E-10,  avg # of iterations =  2.0

     total cpu time spent up to now is       24.7 secs

     End of self-consistent calculation

     Number of k-points >= 100: set verbosity='high' to print the bands.

     highest occupied level (ev):     8.1029

!    total energy              =    -325.65073214 Ry
     estimated scf accuracy    <          7.2E-09 Ry

     The total energy is the sum of the following terms:
     one-electron contribution =    -150.35964922 Ry
     hartree contribution      =      92.94468915 Ry
     xc contribution           =     -95.23033083 Ry
     ewald contribution        =    -173.00544124 Ry

     convergence has been achieved in   8 iterations

     Writing all to output data dir ./alpha-EOS/alpha.save/ :
     XML data file, charge density, pseudopotentials, collected wavefunctions

     init_run     :      1.90s CPU      1.99s WALL (       1 calls)
     electrons    :     22.02s CPU     22.51s WALL (       1 calls)

     Called by init_run:
     wfcinit      :      0.92s CPU      0.95s WALL (       1 calls)
     potinit      :      0.07s CPU      0.08s WALL (       1 calls)
     hinit0       :      0.49s CPU      0.51s WALL (       1 calls)

     Called by electrons:
     c_bands      :     18.06s CPU     18.37s WALL (       9 calls)
     sum_band     :      3.30s CPU      3.34s WALL (       9 calls)
     v_of_rho     :      0.43s CPU      0.47s WALL (       9 calls)
     newd         :      0.20s CPU      0.22s WALL (       9 calls)
     mix_rho      :      0.06s CPU      0.07s WALL (       9 calls)

     Called by c_bands:
     init_us_2    :      0.41s CPU      0.43s WALL (     494 calls)
     cegterg      :     17.00s CPU     17.18s WALL (     234 calls)

     Called by *egterg:
     cdiaghg      :      0.37s CPU      0.38s WALL (    1030 calls)
     h_psi        :     15.51s CPU     15.69s WALL (    1082 calls)
     s_psi        :      0.29s CPU      0.30s WALL (    1082 calls)
     g_psi        :      0.04s CPU      0.04s WALL (     822 calls)

     Called by h_psi:
     h_psi:calbec :      0.68s CPU      0.69s WALL (    1082 calls)
     vloc_psi     :     14.40s CPU     14.56s WALL (    1082 calls)
     add_vuspsi   :      0.33s CPU      0.33s WALL (    1082 calls)

     General routines
     calbec       :      0.79s CPU      0.80s WALL (    1316 calls)
     fft          :      0.68s CPU      0.73s WALL (     100 calls)
     ffts         :      0.03s CPU      0.03s WALL (       9 calls)
     fftw         :     14.95s CPU     15.10s WALL (   21426 calls)

     Parallel routines

     PWSCF        :     24.75s CPU     27.58s WALL


   This run was terminated on:  23:36: 9  25Feb2026            

=------------------------------------------------------------------------------=
   JOB DONE.
=------------------------------------------------------------------------------=
