
     Program PWSCF v.7.3.1 starts on  1Apr2026 at 15:12: 2 

     This program is part of the open-source Quantum ESPRESSO suite
     for quantum simulation of materials; please cite
         "P. Giannozzi et al., J. Phys.:Condens. Matter 21 395502 (2009);
         "P. Giannozzi et al., J. Phys.:Condens. Matter 29 465901 (2017);
         "P. Giannozzi et al., J. Chem. Phys. 152 154105 (2020);
          URL http://www.quantum-espresso.org", 
     in publications or presentations arising from this work. More details at
     http://www.quantum-espresso.org/quote

     Parallel version (MPI), running on   128 processors

     MPI processes distributed on     1 nodes
     241725 MiB available memory on the printing compute node when the environment starts

     Waiting for input...
     Reading input from standard input

     Current dimensions of program PWSCF are:
     Max number of different atomic species (ntypx) = 10
     Max number of k-points (npk) =  40000
     Max angular momentum in pseudopotentials (lmaxx) =  4

     IMPORTANT: XC functional enforced from input :
     Exchange-correlation= VDW-DF2
                           (   1   4  13   0   2   0   0)
     Any further DFT definition will be discarded
     Please, verify this is what you really want

     Found identity + ( -0.5000 -0.5000  0.5000) symmetry
     This is a supercell, fractional translations are disabled

     K-points division:     npool     =       4
     R & G space division:  proc/nbgrp/npool/nimage =      32
     Subspace diagonalization in iterative solution of the eigenvalue problem:
     a serial algorithm will be used


     Parallelization info
     --------------------
     sticks:   dense  smooth     PW     G-vecs:    dense   smooth      PW
     Min          70      70     19                 3664     3664     529
     Max          71      71     20                 3673     3673     536
     Sum        2253    2253    621               117329   117329   17045

     Using Slab Decomposition



     bravais-lattice index     =            6
     lattice parameter (alat)  =       8.9027  a.u.
     unit-cell volume          =    1017.6200 (a.u.)^3
     number of atoms/cell      =           24
     number of atomic types    =            2
     number of electrons       =        64.00
     number of Kohn-Sham states=           32
     kinetic-energy cutoff     =      90.0000  Ry
     charge density cutoff     =     360.0000  Ry
     scf convergence threshold =      1.0E-07
     mixing beta               =       0.7000
     number of iterations used =            8  plain     mixing
     energy convergence thresh.=      1.0E-04
     force convergence thresh. =      1.0E-03
     Exchange-correlation= VDW-DF2
                           (   1   4  13   0   2   0   0)
     nstep                     =           50


     celldm(1)=   8.902671  celldm(2)=   0.000000  celldm(3)=   1.442197
     celldm(4)=   0.000000  celldm(5)=   0.000000  celldm(6)=   0.000000

     crystal axes: (cart. coord. in units of alat)
               a(1) = (   1.000000   0.000000   0.000000 )  
               a(2) = (   0.000000   1.000000   0.000000 )  
               a(3) = (   0.000000   0.000000   1.442197 )  

     reciprocal axes: (cart. coord. in units 2 pi/alat)
               b(1) = (  1.000000  0.000000  0.000000 )  
               b(2) = (  0.000000  1.000000  0.000000 )  
               b(3) = (  0.000000  0.000000  0.693386 )  


     PseudoPot. # 1 for H  read from file:
     ./H.pbe-van_ak.UPF
     MD5 check sum: 077eb6d537518a38cb46c6de387227b7
     Pseudo is Ultrasoft, Zval =  1.0
     Generated by new atomic code, or converted to UPF format
     Using radial grid of  615 points,  1 beta functions with: 
                l(1) =   0
     Q(r) pseudized with  8 coefficients,  rinner =    0.800

     PseudoPot. # 2 for O  read from file:
     ./O.pbe-van_ak.UPF
     MD5 check sum: 78c19812648e8988a0fe644b0f25305e
     Pseudo is Ultrasoft, Zval =  6.0
     Generated by new atomic code, or converted to UPF format
     Using radial grid of  737 points,  4 beta functions with: 
                l(1) =   0
                l(2) =   0
                l(3) =   1
                l(4) =   1
     Q(r) pseudized with  8 coefficients,  rinner =    0.800   0.800   0.800


     atomic species   valence    mass     pseudopotential
     H                 1.00     1.00800     H ( 1.00)
     O                 6.00    16.00000     O ( 1.00)

      4 Sym. Ops., with inversion, found



   Cartesian axes

     site n.     atom                  positions (alat units)
         1        O      tau(   1) = (   0.0000000   0.2500000   0.8781106  )
         2        O      tau(   2) = (   0.0000000   0.7500000   0.5640866  )
         3        O      tau(   3) = (   0.5000000   0.7500000   0.1570120  )
         4        O      tau(   4) = (   0.5000000   0.2500000   1.2851851  )
         5        O      tau(   5) = (   0.0000000   0.7500000   1.2386599  )
         6        O      tau(   6) = (   0.0000000   0.2500000   0.2035373  )
         7        O      tau(   7) = (   0.5000000   0.2500000   0.5175613  )
         8        O      tau(   8) = (   0.5000000   0.7500000   0.9246358  )
         9        H      tau(   9) = (   0.0000000   0.4142500   1.0027885  )
        10        H      tau(  10) = (   0.0000000   0.5857500   0.4394086  )
        11        H      tau(  11) = (   0.5000000   0.5857500   0.2816900  )
        12        H      tau(  12) = (   0.5000000   0.4142500   1.1605072  )
        13        H      tau(  13) = (   0.8357500   0.7500000   1.3633378  )
        14        H      tau(  14) = (   0.1642500   0.2500000   0.0788593  )
        15        H      tau(  15) = (   0.6642500   0.2500000   0.6422392  )
        16        H      tau(  16) = (   0.3357500   0.7500000   0.7999579  )
        17        H      tau(  17) = (   0.6642500   0.7500000   0.7999579  )
        18        H      tau(  18) = (   0.3357500   0.2500000   0.6422392  )
        19        H      tau(  19) = (   0.8357500   0.2500000   0.0788593  )
        20        H      tau(  20) = (   0.1642500   0.7500000   1.3633378  )
        21        H      tau(  21) = (   0.5000000   0.9142500   0.2816900  )
        22        H      tau(  22) = (   0.5000000   0.0857500   1.1605072  )
        23        H      tau(  23) = (   0.0000000   0.0857500   1.0027885  )
        24        H      tau(  24) = (   0.0000000   0.9142500   0.4394086  )

     number of k points=   144

     Number of k-points >= 100: set verbosity='high' to print them.

     Dense  grid:   117329 G-vectors     FFT dimensions: (  54,  54,  80)

     Estimated max dynamical RAM per process >      13.51 MB

     Estimated total dynamical RAM >       1.60 GB

     Initial potential from superposition of free atoms

     starting charge      63.9998, renormalised to      64.0000


     %%%%%%%%%%%%%%%%%%%%%%%%%%%%%%%%%%%%%%%%%%%%%%%%%%%%%%%%%%%%%%%%%%%%%%%%
     %                                                                      %
     % You are using vdW-DF, which was implemented by the Thonhauser group. %
     % Please cite the following two papers that made this development      %
     % possible and the two reviews that describe the various versions:     %
     %                                                                      %
     %   T. Thonhauser et al., PRL 115, 136402 (2015).                      %
     %   T. Thonhauser et al., PRB 76, 125112 (2007).                       %
     %   K. Berland et al., Rep. Prog. Phys. 78, 066501 (2015).             %
     %   D.C. Langreth et al., J. Phys.: Condens. Matter 21, 084203 (2009). %
     %                                                                      %
     % If you are calculating stress with vdW-DF, please also cite:         %
     %                                                                      %
     %   R. Sabatini et al., J. Phys.: Condens. Matter 24, 424209 (2012).   %
     %                                                                      %
     %%%%%%%%%%%%%%%%%%%%%%%%%%%%%%%%%%%%%%%%%%%%%%%%%%%%%%%%%%%%%%%%%%%%%%%%

     %%%%%%%%%%%%%%%%%%%%%%%%%%%%%%%%%%%%%%%%%%%%%%%%%%%%%%%%%%%%%%%%%%%%%%%%
     %                                                                      %
     %  vdW-DF NEWS:                                                        %
     %                                                                      %
     %  * vdW-DF3 is now available. DOI: 10.1021/acs.jctc.0c00471           %
     %    use with input_dft = 'vdW-DF3-opt1' or 'vdW-DF3-opt2'             %
     %                                                                      %
     %  * Unscreened and range-separated hybrid vdW-DF-cx functionals       %
     %    DOI: 10.1063/1.4986522 and 10.1088/1361-648X/ac2ad2               %
     %    use with input_dft = 'vdW-DF-cx0'    and 'vdW-DF-ahcx'            %
     %  * Unscreened and range-separated hybrid vdW-DF2-b86r functionals    %
     %    DOI: 10.1063/1.4986522 and DOI: 10.1103/PhysRevX.12.041003        %
     %    use with input_dft = 'vdW-DF2-br0' and 'vdW-DF2-ahbr'             %
     %                                                                      %
     %%%%%%%%%%%%%%%%%%%%%%%%%%%%%%%%%%%%%%%%%%%%%%%%%%%%%%%%%%%%%%%%%%%%%%%%


     Starting wfcs are   48 randomized atomic wfcs

     total cpu time spent up to now is        3.0 secs

     per-process dynamical memory:    19.9 Mb

     Self-consistent Calculation

     iteration #  1     ecut=    90.00 Ry     beta= 0.70
     Davidson diagonalization with overlap
     ethr =  1.00E-02,  avg # of iterations =  2.0

     total cpu time spent up to now is        5.0 secs

     total energy              =    -277.24212843 Ry
     estimated scf accuracy    <       3.23759324 Ry

     iteration #  2     ecut=    90.00 Ry     beta= 0.70
     Davidson diagonalization with overlap
     ethr =  5.06E-03,  avg # of iterations =  3.0

     total cpu time spent up to now is        7.6 secs

     total energy              =    -278.34704968 Ry
     estimated scf accuracy    <       2.05644827 Ry

     iteration #  3     ecut=    90.00 Ry     beta= 0.70
     Davidson diagonalization with overlap
     ethr =  3.21E-03,  avg # of iterations =  2.0

     total cpu time spent up to now is        9.5 secs

     total energy              =    -278.59205252 Ry
     estimated scf accuracy    <       0.09460325 Ry

     iteration #  4     ecut=    90.00 Ry     beta= 0.70
     Davidson diagonalization with overlap
     ethr =  1.48E-04,  avg # of iterations =  4.1

     total cpu time spent up to now is       12.4 secs

     total energy              =    -278.66459285 Ry
     estimated scf accuracy    <       0.12033370 Ry

     iteration #  5     ecut=    90.00 Ry     beta= 0.70
     Davidson diagonalization with overlap
     ethr =  1.48E-04,  avg # of iterations =  2.0

     total cpu time spent up to now is       14.2 secs

     total energy              =    -278.66506599 Ry
     estimated scf accuracy    <       0.02043187 Ry

     iteration #  6     ecut=    90.00 Ry     beta= 0.70
     Davidson diagonalization with overlap
     ethr =  3.19E-05,  avg # of iterations =  2.0

     total cpu time spent up to now is       16.2 secs

     total energy              =    -278.66916293 Ry
     estimated scf accuracy    <       0.00089789 Ry

     iteration #  7     ecut=    90.00 Ry     beta= 0.70
     Davidson diagonalization with overlap
     ethr =  1.40E-06,  avg # of iterations =  3.2

     total cpu time spent up to now is       18.7 secs

     total energy              =    -278.66952038 Ry
     estimated scf accuracy    <       0.00002938 Ry

     iteration #  8     ecut=    90.00 Ry     beta= 0.70
     Davidson diagonalization with overlap
     ethr =  4.59E-08,  avg # of iterations =  3.3

     total cpu time spent up to now is       21.1 secs

     total energy              =    -278.66952693 Ry
     estimated scf accuracy    <       0.00001009 Ry

     iteration #  9     ecut=    90.00 Ry     beta= 0.70
     Davidson diagonalization with overlap
     ethr =  1.58E-08,  avg # of iterations =  2.0

     total cpu time spent up to now is       22.9 secs

     total energy              =    -278.66952734 Ry
     estimated scf accuracy    <       0.00000180 Ry

     iteration # 10     ecut=    90.00 Ry     beta= 0.70
     Davidson diagonalization with overlap
     ethr =  2.81E-09,  avg # of iterations =  2.1

     total cpu time spent up to now is       25.0 secs

     total energy              =    -278.66952789 Ry
     estimated scf accuracy    <       0.00000067 Ry

     iteration # 11     ecut=    90.00 Ry     beta= 0.70
     Davidson diagonalization with overlap
     ethr =  1.04E-09,  avg # of iterations =  2.8

     total cpu time spent up to now is       27.3 secs

     total energy              =    -278.66952782 Ry
     estimated scf accuracy    <       0.00000135 Ry

     iteration # 12     ecut=    90.00 Ry     beta= 0.70
     Davidson diagonalization with overlap
     ethr =  1.04E-09,  avg # of iterations =  1.0

     total cpu time spent up to now is       28.7 secs

     total energy              =    -278.66952746 Ry
     estimated scf accuracy    <       0.00000083 Ry

     iteration # 13     ecut=    90.00 Ry     beta= 0.70
     Davidson diagonalization with overlap
     ethr =  1.04E-09,  avg # of iterations =  2.0

     total cpu time spent up to now is       30.8 secs

     End of self-consistent calculation

     Number of k-points >= 100: set verbosity='high' to print the bands.

     highest occupied level (ev):    -0.6610

!    total energy              =    -278.66952756 Ry
     estimated scf accuracy    <       0.00000003 Ry

     The total energy is the sum of the following terms:
     one-electron contribution =    -128.72635658 Ry
     hartree contribution      =      91.76757843 Ry
     xc contribution           =     -71.02412029 Ry
     ewald contribution        =    -170.68662912 Ry

     convergence has been achieved in  13 iterations

     Forces acting on atoms (cartesian axes, Ry/au):

     atom    1 type  2   force =     0.00000000    0.00000002   -0.03295406
     atom    2 type  2   force =     0.00000000   -0.00000002    0.03295406
     atom    3 type  2   force =     0.00000000    0.00000001   -0.03295379
     atom    4 type  2   force =     0.00000000   -0.00000001    0.03295379
     atom    5 type  2   force =     0.00000000   -0.00000002   -0.03300225
     atom    6 type  2   force =     0.00000000    0.00000002    0.03300225
     atom    7 type  2   force =     0.00000000   -0.00000000   -0.03300272
     atom    8 type  2   force =     0.00000000    0.00000000    0.03300272
     atom    9 type  1   force =     0.00000000    0.02613029    0.01671463
     atom   10 type  1   force =     0.00000000   -0.02613029   -0.01671463
     atom   11 type  1   force =     0.00000000   -0.02613023    0.01671465
     atom   12 type  1   force =     0.00000000    0.02613023   -0.01671465
     atom   13 type  1   force =    -0.02612615   -0.00000000    0.01670159
     atom   14 type  1   force =     0.02612615    0.00000000   -0.01670159
     atom   15 type  1   force =     0.02612618   -0.00000000    0.01670153
     atom   16 type  1   force =    -0.02612618    0.00000000   -0.01670153
     atom   17 type  1   force =     0.02612618    0.00000000   -0.01670153
     atom   18 type  1   force =    -0.02612618   -0.00000000    0.01670153
     atom   19 type  1   force =    -0.02612615    0.00000000   -0.01670159
     atom   20 type  1   force =     0.02612615   -0.00000000    0.01670159
     atom   21 type  1   force =     0.00000000    0.02613023    0.01671465
     atom   22 type  1   force =     0.00000000   -0.02613023   -0.01671465
     atom   23 type  1   force =     0.00000000   -0.02613028    0.01671463
     atom   24 type  1   force =     0.00000000    0.02613028   -0.01671463

     Total force =     0.155210     Total SCF correction =     0.000278


     Computing stress (Cartesian axis) and pressure

          total   stress  (Ry/bohr**3)                   (kbar)     P=       73.32
   0.00049435   0.00000000   0.00000000           72.72        0.00        0.00
   0.00000000   0.00049534   0.00000000            0.00       72.87        0.00
   0.00000000   0.00000000   0.00050564            0.00        0.00       74.38


     BFGS Geometry Optimization
     Energy error            =      0.0E+00 Ry
     Gradient error          =      3.3E-02 Ry/Bohr

     number of scf cycles    =   1
     number of bfgs steps    =   0

     energy             new  =    -278.6695275591 Ry

     new trust radius        =       0.0330027246 bohr
     new conv_thr            =       0.0000001000 Ry


ATOMIC_POSITIONS (crystal)
O                0.0000000000        0.2500000022        0.6063033952
O                0.0000000000        0.7499999978        0.3936966338
O                0.5000000000        0.7500000009        0.1063033869
O                0.5000000000        0.2499999991        0.8936965841
O                0.0000000000        0.7499999982        0.8562996415
O                0.0000000000        0.2500000018        0.1437003875
O                0.5000000000        0.2499999996        0.3562995756
O                0.5000000000        0.7500000004        0.6437003954
H                0.0000000000        0.4171850923        0.6966218323
H                0.0000000000        0.5828148777        0.3033781677
H                0.5000000000        0.5828148841        0.1966218345
H                0.5000000000        0.4171850859        0.8033781655
H                0.8328153427        0.7499999996        0.9466208168
H                0.1671846273        0.2500000004        0.0533791832
H                0.6671846607        0.2499999998        0.4466208121
H                0.3328153693        0.7500000002        0.5533791879
H                0.6671846607        0.7500000002        0.5533791879
H                0.3328153693        0.2499999998        0.4466208121
H                0.8328153427        0.2500000004        0.0533791832
H                0.1671846273        0.7499999996        0.9466208168
H                0.5000000000        0.9171851159        0.1966218341
H                0.5000000000        0.0828149141        0.8033781659
H                0.0000000000        0.0828149087        0.6966218323
H                0.0000000000        0.9171851213        0.3033781677



     Writing config-only to output data dir ./iceVIII/iceVIII.save/ :
     XML data file
     NEW-OLD atomic charge density approx. for the potential

     total cpu time spent up to now is       32.8 secs

     per-process dynamical memory:    20.5 Mb

     Self-consistent Calculation

     iteration #  1     ecut=    90.00 Ry     beta= 0.70
     Davidson diagonalization with overlap
     ethr =  1.00E-06,  avg # of iterations =  5.5

     total cpu time spent up to now is       36.7 secs

     total energy              =    -278.67218436 Ry
     estimated scf accuracy    <       0.00893460 Ry

     iteration #  2     ecut=    90.00 Ry     beta= 0.70
     Davidson diagonalization with overlap
     ethr =  1.40E-05,  avg # of iterations =  3.0

     total cpu time spent up to now is       39.2 secs

     total energy              =    -278.67477353 Ry
     estimated scf accuracy    <       0.00407820 Ry

     iteration #  3     ecut=    90.00 Ry     beta= 0.70
     Davidson diagonalization with overlap
     ethr =  6.37E-06,  avg # of iterations =  2.0

     total cpu time spent up to now is       41.2 secs

     total energy              =    -278.67541130 Ry
     estimated scf accuracy    <       0.00009880 Ry

     iteration #  4     ecut=    90.00 Ry     beta= 0.70
     Davidson diagonalization with overlap
     ethr =  1.54E-07,  avg # of iterations =  4.0

     total cpu time spent up to now is       44.2 secs

     total energy              =    -278.67549580 Ry
     estimated scf accuracy    <       0.00011939 Ry

     iteration #  5     ecut=    90.00 Ry     beta= 0.70
     Davidson diagonalization with overlap
     ethr =  1.54E-07,  avg # of iterations =  2.0

     total cpu time spent up to now is       46.3 secs

     total energy              =    -278.67551670 Ry
     estimated scf accuracy    <       0.00000100 Ry

     iteration #  6     ecut=    90.00 Ry     beta= 0.70
     Davidson diagonalization with overlap
     ethr =  1.56E-09,  avg # of iterations =  5.0

     total cpu time spent up to now is       49.7 secs

     total energy              =    -278.67551758 Ry
     estimated scf accuracy    <       0.00000427 Ry

     iteration #  7     ecut=    90.00 Ry     beta= 0.70
     Davidson diagonalization with overlap
     ethr =  1.56E-09,  avg # of iterations =  3.0

     total cpu time spent up to now is       52.2 secs

     End of self-consistent calculation

     Number of k-points >= 100: set verbosity='high' to print the bands.

     highest occupied level (ev):    -0.6095

!    total energy              =    -278.67551814 Ry
     estimated scf accuracy    <       0.00000008 Ry

     The total energy is the sum of the following terms:
     one-electron contribution =    -125.66067929 Ry
     hartree contribution      =      90.43748451 Ry
     xc contribution           =     -70.69172578 Ry
     ewald contribution        =    -172.76059759 Ry

     convergence has been achieved in   7 iterations

     Forces acting on atoms (cartesian axes, Ry/au):

     atom    1 type  2   force =     0.00000000   -0.00000002    0.02220569
     atom    2 type  2   force =     0.00000000    0.00000002   -0.02220569
     atom    3 type  2   force =     0.00000000   -0.00000001    0.02220562
     atom    4 type  2   force =     0.00000000    0.00000001   -0.02220562
     atom    5 type  2   force =     0.00000000    0.00000000    0.02223347
     atom    6 type  2   force =     0.00000000   -0.00000000   -0.02223347
     atom    7 type  2   force =     0.00000000    0.00000000    0.02223374
     atom    8 type  2   force =     0.00000000   -0.00000000   -0.02223374
     atom    9 type  1   force =     0.00000000   -0.00557124   -0.01004648
     atom   10 type  1   force =     0.00000000    0.00557124    0.01004648
     atom   11 type  1   force =     0.00000000    0.00557113   -0.01004638
     atom   12 type  1   force =     0.00000000   -0.00557113    0.01004638
     atom   13 type  1   force =     0.00557935   -0.00000000   -0.01007293
     atom   14 type  1   force =    -0.00557935    0.00000000    0.01007293
     atom   15 type  1   force =    -0.00557950    0.00000000   -0.01007310
     atom   16 type  1   force =     0.00557950   -0.00000000    0.01007310
     atom   17 type  1   force =    -0.00557950   -0.00000000    0.01007310
     atom   18 type  1   force =     0.00557950    0.00000000   -0.01007310
     atom   19 type  1   force =     0.00557935    0.00000000    0.01007293
     atom   20 type  1   force =    -0.00557935   -0.00000000   -0.01007293
     atom   21 type  1   force =     0.00000000   -0.00557112   -0.01004637
     atom   22 type  1   force =     0.00000000    0.00557112    0.01004637
     atom   23 type  1   force =     0.00000000    0.00557125   -0.01004649
     atom   24 type  1   force =     0.00000000   -0.00557125    0.01004649

     Total force =     0.077886     Total SCF correction =     0.000329


     Computing stress (Cartesian axis) and pressure

          total   stress  (Ry/bohr**3)                   (kbar)     P=       11.97
   0.00011208   0.00000000   0.00000000           16.49        0.00        0.00
   0.00000000   0.00011310   0.00000000            0.00       16.64        0.00
   0.00000000   0.00000000   0.00001892            0.00        0.00        2.78

     Energy error            =      6.0E-03 Ry
     Gradient error          =      2.2E-02 Ry/Bohr

     number of scf cycles    =   2
     number of bfgs steps    =   1

     energy             old  =    -278.6695275591 Ry
     energy             new  =    -278.6755181427 Ry

     CASE: energy            _new < energy            _old

     new trust radius        =       0.0145675184 bohr
     new conv_thr            =       0.0000000222 Ry


ATOMIC_POSITIONS (crystal)
O                0.0000000000        0.2500000009        0.6074365709
O                0.0000000000        0.7499999991        0.3925634581
O                0.5000000000        0.7500000001        0.1074365591
O                0.5000000000        0.2499999999        0.8925634119
O                0.0000000000        0.7499999984        0.8574342221
O                0.0000000000        0.2500000016        0.1425658069
O                0.5000000000        0.2499999996        0.3574341700
O                0.5000000000        0.7500000004        0.6425658010
H                0.0000000000        0.4168205333        0.6961123381
H                0.0000000000        0.5831794367        0.3038876619
H                0.5000000000        0.5831794350        0.1961123454
H                0.5000000000        0.4168205350        0.8038876546
H                0.8331805397        0.7499999995        0.9461098800
H                0.1668194303        0.2500000005        0.0538901200
H                0.6668194523        0.2499999998        0.4461098664
H                0.3331805777        0.7500000002        0.5538901336
H                0.6668194523        0.7500000002        0.5538901336
H                0.3331805777        0.2499999998        0.4461098664
H                0.8331805397        0.2500000005        0.0538901200
H                0.1668194303        0.7499999995        0.9461098800
H                0.5000000000        0.9168205658        0.1961123453
H                0.5000000000        0.0831794642        0.8038876547
H                0.0000000000        0.0831794689        0.6961123375
H                0.0000000000        0.9168205611        0.3038876625



     Writing config-only to output data dir ./iceVIII/iceVIII.save/ :
     XML data file
     NEW-OLD atomic charge density approx. for the potential

     total cpu time spent up to now is       54.2 secs

     per-process dynamical memory:    20.2 Mb

     Self-consistent Calculation

     iteration #  1     ecut=    90.00 Ry     beta= 0.70
     Davidson diagonalization with overlap
     ethr =  1.00E-06,  avg # of iterations =  4.0

     total cpu time spent up to now is       57.3 secs

     total energy              =    -278.67746462 Ry
     estimated scf accuracy    <       0.00089559 Ry

     iteration #  2     ecut=    90.00 Ry     beta= 0.70
     Davidson diagonalization with overlap
     ethr =  1.40E-06,  avg # of iterations =  3.0

     total cpu time spent up to now is       59.7 secs

     total energy              =    -278.67773224 Ry
     estimated scf accuracy    <       0.00032965 Ry

     iteration #  3     ecut=    90.00 Ry     beta= 0.70
     Davidson diagonalization with overlap
     ethr =  5.15E-07,  avg # of iterations =  2.0

     total cpu time spent up to now is       61.8 secs

     total energy              =    -278.67777830 Ry
     estimated scf accuracy    <       0.00000949 Ry

     iteration #  4     ecut=    90.00 Ry     beta= 0.70
     Davidson diagonalization with overlap
     ethr =  1.48E-08,  avg # of iterations =  4.7

     total cpu time spent up to now is       64.8 secs

     total energy              =    -278.67778245 Ry
     estimated scf accuracy    <       0.00001169 Ry

     iteration #  5     ecut=    90.00 Ry     beta= 0.70
     Davidson diagonalization with overlap
     ethr =  1.48E-08,  avg # of iterations =  3.0

     total cpu time spent up to now is       67.3 secs

     total energy              =    -278.67778605 Ry
     estimated scf accuracy    <       0.00000073 Ry

     iteration #  6     ecut=    90.00 Ry     beta= 0.70
     Davidson diagonalization with overlap
     ethr =  1.15E-09,  avg # of iterations =  2.0

     total cpu time spent up to now is       69.1 secs

     total energy              =    -278.67778608 Ry
     estimated scf accuracy    <       0.00000013 Ry

     iteration #  7     ecut=    90.00 Ry     beta= 0.70
     Davidson diagonalization with overlap
     ethr =  2.08E-10,  avg # of iterations =  2.0

     total cpu time spent up to now is       71.1 secs

     End of self-consistent calculation

     Number of k-points >= 100: set verbosity='high' to print the bands.

     highest occupied level (ev):    -0.6210

!    total energy              =    -278.67778610 Ry
     estimated scf accuracy    <          6.5E-09 Ry

     The total energy is the sum of the following terms:
     one-electron contribution =    -126.53473510 Ry
     hartree contribution      =      90.81466215 Ry
     xc contribution           =     -70.78937822 Ry
     ewald contribution        =    -172.16833493 Ry

     convergence has been achieved in   7 iterations

     Forces acting on atoms (cartesian axes, Ry/au):

     atom    1 type  2   force =    -0.00000000    0.00000000    0.00451820
     atom    2 type  2   force =    -0.00000000   -0.00000000   -0.00451820
     atom    3 type  2   force =     0.00000000    0.00000000    0.00451811
     atom    4 type  2   force =     0.00000000   -0.00000000   -0.00451811
     atom    5 type  2   force =    -0.00000000    0.00000000    0.00448947
     atom    6 type  2   force =    -0.00000000   -0.00000000   -0.00448947
     atom    7 type  2   force =    -0.00000000    0.00000000    0.00448953
     atom    8 type  2   force =    -0.00000000   -0.00000000   -0.00448953
     atom    9 type  1   force =     0.00000000    0.00198560   -0.00145608
     atom   10 type  1   force =     0.00000000   -0.00198560    0.00145608
     atom   11 type  1   force =     0.00000000   -0.00198562   -0.00145604
     atom   12 type  1   force =     0.00000000    0.00198562    0.00145604
     atom   13 type  1   force =    -0.00198918   -0.00000000   -0.00146682
     atom   14 type  1   force =     0.00198918    0.00000000    0.00146682
     atom   15 type  1   force =     0.00198919    0.00000000   -0.00146684
     atom   16 type  1   force =    -0.00198919   -0.00000000    0.00146684
     atom   17 type  1   force =     0.00198919   -0.00000000    0.00146684
     atom   18 type  1   force =    -0.00198919    0.00000000   -0.00146684
     atom   19 type  1   force =    -0.00198918    0.00000000    0.00146682
     atom   20 type  1   force =     0.00198918   -0.00000000   -0.00146682
     atom   21 type  1   force =     0.00000000    0.00198562   -0.00145604
     atom   22 type  1   force =     0.00000000   -0.00198562    0.00145604
     atom   23 type  1   force =     0.00000000   -0.00198560   -0.00145608
     atom   24 type  1   force =     0.00000000    0.00198560    0.00145608

     Total force =     0.016114     Total SCF correction =     0.000103


     Computing stress (Cartesian axis) and pressure

          total   stress  (Ry/bohr**3)                   (kbar)     P=       28.28
   0.00020341   0.00000000   0.00000000           29.92        0.00        0.00
   0.00000000   0.00020433  -0.00000000            0.00       30.06       -0.00
   0.00000000  -0.00000000   0.00016901            0.00       -0.00       24.86

     Energy error            =      2.3E-03 Ry
     Gradient error          =      4.5E-03 Ry/Bohr

     number of scf cycles    =   3
     number of bfgs steps    =   2

     energy             old  =    -278.6755181427 Ry
     energy             new  =    -278.6777861003 Ry

     CASE: energy            _new < energy            _old

     new trust radius        =       0.0049323209 bohr
     new conv_thr            =       0.0000000045 Ry


ATOMIC_POSITIONS (crystal)
O               -0.0000000000        0.2500000014        0.6078207258
O               -0.0000000000        0.7499999986        0.3921793032
O                0.5000000000        0.7500000004        0.1078207066
O                0.5000000000        0.2499999996        0.8921792644
O               -0.0000000000        0.7499999985        0.8578157118
O               -0.0000000000        0.2500000015        0.1421843172
O                0.5000000000        0.2499999997        0.3578156654
O                0.5000000000        0.7500000003        0.6421843056
H                0.0000000000        0.4171274901        0.6959946731
H                0.0000000000        0.5828724799        0.3040053269
H                0.5000000000        0.5828724749        0.1959946838
H                0.5000000000        0.4171274951        0.8040053162
H                0.8328731296        0.7499999995        0.9459911963
H                0.1671268404        0.2500000005        0.0540088037
H                0.6671268640        0.2499999998        0.4459911804
H                0.3328731660        0.7500000002        0.5540088196
H                0.6671268640        0.7500000002        0.5540088196
H                0.3328731660        0.2499999998        0.4459911804
H                0.8328731296        0.2500000005        0.0540088037
H                0.1671268404        0.7499999995        0.9459911963
H                0.5000000000        0.9171275256        0.1959946836
H                0.5000000000        0.0828725044        0.8040053164
H                0.0000000000        0.0828725115        0.6959946727
H                0.0000000000        0.9171275185        0.3040053273



     Writing config-only to output data dir ./iceVIII/iceVIII.save/ :
     XML data file
     NEW-OLD atomic charge density approx. for the potential

     total cpu time spent up to now is       73.0 secs

     per-process dynamical memory:    20.2 Mb

     Self-consistent Calculation

     iteration #  1     ecut=    90.00 Ry     beta= 0.70
     Davidson diagonalization with overlap
     ethr =  1.00E-06,  avg # of iterations =  3.0

     Threshold (ethr) on eigenvalues was too large:
     Diagonalizing with lowered threshold

     Davidson diagonalization with overlap
     ethr =  6.77E-08,  avg # of iterations =  2.0

     total cpu time spent up to now is       77.3 secs

     total energy              =    -278.67798553 Ry
     estimated scf accuracy    <       0.00004249 Ry

     iteration #  2     ecut=    90.00 Ry     beta= 0.70
     Davidson diagonalization with overlap
     ethr =  6.64E-08,  avg # of iterations =  3.0

     total cpu time spent up to now is       79.7 secs

     total energy              =    -278.67799637 Ry
     estimated scf accuracy    <       0.00000967 Ry

     iteration #  3     ecut=    90.00 Ry     beta= 0.70
     Davidson diagonalization with overlap
     ethr =  1.51E-08,  avg # of iterations =  2.0

     total cpu time spent up to now is       81.7 secs

     total energy              =    -278.67799825 Ry
     estimated scf accuracy    <       0.00000025 Ry

     iteration #  4     ecut=    90.00 Ry     beta= 0.70
     Davidson diagonalization with overlap
     ethr =  3.86E-10,  avg # of iterations =  3.2

     total cpu time spent up to now is       84.0 secs

     total energy              =    -278.67799830 Ry
     estimated scf accuracy    <       0.00000011 Ry

     iteration #  5     ecut=    90.00 Ry     beta= 0.70
     Davidson diagonalization with overlap
     ethr =  1.68E-10,  avg # of iterations =  3.0

     total cpu time spent up to now is       86.4 secs

     total energy              =    -278.67799833 Ry
     estimated scf accuracy    <       0.00000003 Ry

     iteration #  6     ecut=    90.00 Ry     beta= 0.70
     Davidson diagonalization with overlap
     ethr =  3.98E-11,  avg # of iterations =  2.0

     total cpu time spent up to now is       88.1 secs

     End of self-consistent calculation

     Number of k-points >= 100: set verbosity='high' to print the bands.

     highest occupied level (ev):    -0.6199

!    total energy              =    -278.67799833 Ry
     estimated scf accuracy    <          4.5E-09 Ry

     The total energy is the sum of the following terms:
     one-electron contribution =    -126.61673417 Ry
     hartree contribution      =      90.85158032 Ry
     xc contribution           =     -70.80058431 Ry
     ewald contribution        =    -172.11226016 Ry

     convergence has been achieved in   6 iterations

     Forces acting on atoms (cartesian axes, Ry/au):

     atom    1 type  2   force =     0.00000000   -0.00000001    0.00101641
     atom    2 type  2   force =     0.00000000    0.00000001   -0.00101641
     atom    3 type  2   force =    -0.00000000   -0.00000000    0.00101645
     atom    4 type  2   force =    -0.00000000    0.00000000   -0.00101645
     atom    5 type  2   force =     0.00000000    0.00000000    0.00100850
     atom    6 type  2   force =     0.00000000   -0.00000000   -0.00100850
     atom    7 type  2   force =     0.00000000    0.00000000    0.00100849
     atom    8 type  2   force =     0.00000000   -0.00000000   -0.00100849
     atom    9 type  1   force =     0.00000000    0.00207017    0.00018757
     atom   10 type  1   force =     0.00000000   -0.00207017   -0.00018757
     atom   11 type  1   force =     0.00000000   -0.00207013    0.00018754
     atom   12 type  1   force =     0.00000000    0.00207013   -0.00018754
     atom   13 type  1   force =    -0.00206491   -0.00000000    0.00016948
     atom   14 type  1   force =     0.00206491    0.00000000   -0.00016948
     atom   15 type  1   force =     0.00206494    0.00000000    0.00016949
     atom   16 type  1   force =    -0.00206494   -0.00000000   -0.00016949
     atom   17 type  1   force =     0.00206494   -0.00000000   -0.00016949
     atom   18 type  1   force =    -0.00206494    0.00000000    0.00016949
     atom   19 type  1   force =    -0.00206491    0.00000000   -0.00016948
     atom   20 type  1   force =     0.00206491   -0.00000000    0.00016948
     atom   21 type  1   force =     0.00000000    0.00207013    0.00018754
     atom   22 type  1   force =     0.00000000   -0.00207013   -0.00018754
     atom   23 type  1   force =     0.00000000   -0.00207017    0.00018756
     atom   24 type  1   force =     0.00000000    0.00207017   -0.00018756

     Total force =     0.008781     Total SCF correction =     0.000065


     Computing stress (Cartesian axis) and pressure

          total   stress  (Ry/bohr**3)                   (kbar)     P=       29.81
   0.00020654   0.00000000   0.00000000           30.38        0.00        0.00
   0.00000000   0.00020756   0.00000000            0.00       30.53        0.00
   0.00000000   0.00000000   0.00019391            0.00        0.00       28.53

     Energy error            =      2.1E-04 Ry
     Gradient error          =      2.1E-03 Ry/Bohr

     number of scf cycles    =   4
     number of bfgs steps    =   3

     energy             old  =    -278.6777861003 Ry
     energy             new  =    -278.6779983296 Ry

     CASE: energy            _new < energy            _old

     new trust radius        =       0.0043628052 bohr
     new conv_thr            =       0.0000000021 Ry


ATOMIC_POSITIONS (crystal)
O                0.0000000000        0.2500000003        0.6081466570
O                0.0000000000        0.7499999997        0.3918533720
O                0.5000000000        0.7499999998        0.1081466417
O                0.5000000000        0.2500000002        0.8918533293
O               -0.0000000000        0.7499999988        0.8581399391
O               -0.0000000000        0.2500000012        0.1418600899
O                0.5000000000        0.2499999997        0.3581398943
O                0.5000000000        0.7500000003        0.6418600767
H                0.0000000000        0.4176136382        0.6959518473
H                0.0000000000        0.5823863318        0.3040481527
H                0.5000000000        0.5823863329        0.1959518556
H                0.5000000000        0.4176136371        0.8040481444
H                0.8323879478        0.7499999995        0.9459454975
H                0.1676120222        0.2500000005        0.0540545025
H                0.6676120514        0.2499999999        0.4459454815
H                0.3323879786        0.7500000001        0.5540545185
H                0.6676120514        0.7500000001        0.5540545185
H                0.3323879786        0.2499999999        0.4459454815
H                0.8323879478        0.2500000005        0.0540545025
H                0.1676120222        0.7499999995        0.9459454975
H                0.5000000000        0.9176136682        0.1959518556
H                0.5000000000        0.0823863618        0.8040481444
H                0.0000000000        0.0823863642        0.6959518466
H                0.0000000000        0.9176136658        0.3040481534



     Writing config-only to output data dir ./iceVIII/iceVIII.save/ :
     XML data file
     NEW-OLD atomic charge density approx. for the potential

     total cpu time spent up to now is       90.0 secs

     per-process dynamical memory:    20.2 Mb

     Self-consistent Calculation

     iteration #  1     ecut=    90.00 Ry     beta= 0.70
     Davidson diagonalization with overlap
     ethr =  1.00E-06,  avg # of iterations =  3.0

     Threshold (ethr) on eigenvalues was too large:
     Diagonalizing with lowered threshold

     Davidson diagonalization with overlap
     ethr =  2.85E-08,  avg # of iterations =  2.7

     total cpu time spent up to now is       94.4 secs

     total energy              =    -278.67809777 Ry
     estimated scf accuracy    <       0.00002011 Ry

     iteration #  2     ecut=    90.00 Ry     beta= 0.70
     Davidson diagonalization with overlap
     ethr =  3.14E-08,  avg # of iterations =  2.0

     total cpu time spent up to now is       96.4 secs

     total energy              =    -278.67810122 Ry
     estimated scf accuracy    <       0.00000097 Ry

     iteration #  3     ecut=    90.00 Ry     beta= 0.70
     Davidson diagonalization with overlap
     ethr =  1.52E-09,  avg # of iterations =  2.0

     total cpu time spent up to now is       98.4 secs

     total energy              =    -278.67810141 Ry
     estimated scf accuracy    <       0.00000016 Ry

     iteration #  4     ecut=    90.00 Ry     beta= 0.70
     Davidson diagonalization with overlap
     ethr =  2.55E-10,  avg # of iterations =  2.0

     total cpu time spent up to now is      100.5 secs

     total energy              =    -278.67810144 Ry
     estimated scf accuracy    <       0.00000001 Ry

     iteration #  5     ecut=    90.00 Ry     beta= 0.70
     Davidson diagonalization with overlap
     ethr =  2.25E-11,  avg # of iterations =  2.0

     total cpu time spent up to now is      102.4 secs

     End of self-consistent calculation

     Number of k-points >= 100: set verbosity='high' to print the bands.

     highest occupied level (ev):    -0.6160

!    total energy              =    -278.67810144 Ry
     estimated scf accuracy    <          1.8E-09 Ry

     The total energy is the sum of the following terms:
     one-electron contribution =    -126.55687795 Ry
     hartree contribution      =      90.82696031 Ry
     xc contribution           =     -70.79688329 Ry
     ewald contribution        =    -172.15130052 Ry

     convergence has been achieved in   5 iterations

     Forces acting on atoms (cartesian axes, Ry/au):

     atom    1 type  2   force =    -0.00000000    0.00000001   -0.00026797
     atom    2 type  2   force =    -0.00000000   -0.00000001    0.00026797
     atom    3 type  2   force =     0.00000000    0.00000001   -0.00026802
     atom    4 type  2   force =     0.00000000   -0.00000001    0.00026802
     atom    5 type  2   force =    -0.00000000    0.00000000   -0.00029670
     atom    6 type  2   force =    -0.00000000   -0.00000000    0.00029670
     atom    7 type  2   force =     0.00000000    0.00000000   -0.00029670
     atom    8 type  2   force =     0.00000000   -0.00000000    0.00029670
     atom    9 type  1   force =     0.00000000    0.00067894    0.00074955
     atom   10 type  1   force =     0.00000000   -0.00067894   -0.00074955
     atom   11 type  1   force =     0.00000000   -0.00067897    0.00074958
     atom   12 type  1   force =     0.00000000    0.00067897   -0.00074958
     atom   13 type  1   force =    -0.00068356   -0.00000000    0.00073964
     atom   14 type  1   force =     0.00068356    0.00000000   -0.00073964
     atom   15 type  1   force =     0.00068356   -0.00000000    0.00073965
     atom   16 type  1   force =    -0.00068356    0.00000000   -0.00073965
     atom   17 type  1   force =     0.00068356    0.00000000   -0.00073965
     atom   18 type  1   force =    -0.00068356   -0.00000000    0.00073965
     atom   19 type  1   force =    -0.00068356    0.00000000   -0.00073964
     atom   20 type  1   force =     0.00068356   -0.00000000    0.00073964
     atom   21 type  1   force =     0.00000000    0.00067896    0.00074957
     atom   22 type  1   force =     0.00000000   -0.00067896   -0.00074957
     atom   23 type  1   force =     0.00000000   -0.00067895    0.00074956
     atom   24 type  1   force =     0.00000000    0.00067895   -0.00074956

     Total force =     0.004115     Total SCF correction =     0.000126


     Computing stress (Cartesian axis) and pressure

          total   stress  (Ry/bohr**3)                   (kbar)     P=       28.60
   0.00019202   0.00000000   0.00000000           28.25        0.00        0.00
   0.00000000   0.00019289  -0.00000000            0.00       28.38       -0.00
   0.00000000  -0.00000000   0.00019831            0.00       -0.00       29.17

     Energy error            =      1.0E-04 Ry
     Gradient error          =      7.5E-04 Ry/Bohr

     number of scf cycles    =   5
     number of bfgs steps    =   4

     energy             old  =    -278.6779983296 Ry
     energy             new  =    -278.6781014444 Ry

     CASE: energy            _new < energy            _old

     new trust radius        =       0.0013152426 bohr
     new conv_thr            =       0.0000000010 Ry


ATOMIC_POSITIONS (crystal)
O               -0.0000000000        0.2500000018        0.6082135815
O               -0.0000000000        0.7499999982        0.3917864475
O                0.5000000000        0.7500000008        0.1082135615
O                0.5000000000        0.2499999992        0.8917864095
O               -0.0000000000        0.7499999990        0.8582038813
O               -0.0000000000        0.2500000010        0.1417961477
O                0.5000000000        0.2499999997        0.3582038379
O                0.5000000000        0.7500000003        0.6417961331
H                0.0000000000        0.4177493751        0.6959922768
H                0.0000000000        0.5822505949        0.3040077232
H                0.5000000000        0.5822505918        0.1959922878
H                0.5000000000        0.4177493782        0.8040077122
H                0.8322516320        0.7499999994        0.9459846705
H                0.1677483380        0.2500000006        0.0540153295
H                0.6677483679        0.2499999999        0.4459846545
H                0.3322516621        0.7500000001        0.5540153455
H                0.6677483679        0.7500000001        0.5540153455
H                0.3322516621        0.2499999999        0.4459846545
H                0.8322516320        0.2500000006        0.0540153295
H                0.1677483380        0.7499999994        0.9459846705
H                0.5000000000        0.9177494083        0.1959922874
H                0.5000000000        0.0822506217        0.8040077126
H                0.0000000000        0.0822506257        0.6959922769
H                0.0000000000        0.9177494043        0.3040077231



     Writing config-only to output data dir ./iceVIII/iceVIII.save/ :
     XML data file
     NEW-OLD atomic charge density approx. for the potential

     total cpu time spent up to now is      104.3 secs

     per-process dynamical memory:    20.3 Mb

     Self-consistent Calculation

     iteration #  1     ecut=    90.00 Ry     beta= 0.70
     Davidson diagonalization with overlap
     ethr =  1.00E-06,  avg # of iterations =  2.0

     Threshold (ethr) on eigenvalues was too large:
     Diagonalizing with lowered threshold

     Davidson diagonalization with overlap
     ethr =  1.90E-09,  avg # of iterations =  4.4

     total cpu time spent up to now is      108.9 secs

     total energy              =    -278.67811253 Ry
     estimated scf accuracy    <       0.00000165 Ry

     iteration #  2     ecut=    90.00 Ry     beta= 0.70
     Davidson diagonalization with overlap
     ethr =  2.57E-09,  avg # of iterations =  2.0

     total cpu time spent up to now is      111.0 secs

     total energy              =    -278.67811286 Ry
     estimated scf accuracy    <       0.00000029 Ry

     iteration #  3     ecut=    90.00 Ry     beta= 0.70
     Davidson diagonalization with overlap
     ethr =  4.51E-10,  avg # of iterations =  2.0

     total cpu time spent up to now is      113.1 secs

     total energy              =    -278.67811291 Ry
     estimated scf accuracy    <       0.00000001 Ry

     iteration #  4     ecut=    90.00 Ry     beta= 0.70
     Davidson diagonalization with overlap
     ethr =  1.78E-11,  avg # of iterations =  3.9

     total cpu time spent up to now is      115.4 secs

     total energy              =    -278.67811291 Ry
     estimated scf accuracy    <          4.2E-09 Ry

     iteration #  5     ecut=    90.00 Ry     beta= 0.70
     Davidson diagonalization with overlap
     ethr =  6.61E-12,  avg # of iterations =  2.9

     total cpu time spent up to now is      117.7 secs

     End of self-consistent calculation

     Number of k-points >= 100: set verbosity='high' to print the bands.

     highest occupied level (ev):    -0.6144

!    total energy              =    -278.67811291 Ry
     estimated scf accuracy    <          8.2E-11 Ry

     The total energy is the sum of the following terms:
     one-electron contribution =    -126.50291940 Ry
     hartree contribution      =      90.80379214 Ry
     xc contribution           =     -70.79201476 Ry
     ewald contribution        =    -172.18697089 Ry

     convergence has been achieved in   5 iterations

     Forces acting on atoms (cartesian axes, Ry/au):

     atom    1 type  2   force =     0.00000000   -0.00000002    0.00012824
     atom    2 type  2   force =     0.00000000    0.00000002   -0.00012824
     atom    3 type  2   force =     0.00000000   -0.00000001    0.00012828
     atom    4 type  2   force =     0.00000000    0.00000001   -0.00012828
     atom    5 type  2   force =     0.00000000    0.00000000    0.00012242
     atom    6 type  2   force =     0.00000000   -0.00000000   -0.00012242
     atom    7 type  2   force =     0.00000000    0.00000000    0.00012241
     atom    8 type  2   force =     0.00000000   -0.00000000   -0.00012241
     atom    9 type  1   force =     0.00000000    0.00001943    0.00054143
     atom   10 type  1   force =     0.00000000   -0.00001943   -0.00054143
     atom   11 type  1   force =     0.00000000   -0.00001940    0.00054140
     atom   12 type  1   force =     0.00000000    0.00001940   -0.00054140
     atom   13 type  1   force =    -0.00001388    0.00000000    0.00052201
     atom   14 type  1   force =     0.00001388   -0.00000000   -0.00052201
     atom   15 type  1   force =     0.00001389    0.00000000    0.00052202
     atom   16 type  1   force =    -0.00001389   -0.00000000   -0.00052202
     atom   17 type  1   force =     0.00001389   -0.00000000   -0.00052202
     atom   18 type  1   force =    -0.00001389    0.00000000    0.00052202
     atom   19 type  1   force =    -0.00001388   -0.00000000   -0.00052201
     atom   20 type  1   force =     0.00001388    0.00000000    0.00052201
     atom   21 type  1   force =     0.00000000    0.00001941    0.00054141
     atom   22 type  1   force =     0.00000000   -0.00001941   -0.00054141
     atom   23 type  1   force =    -0.00000000   -0.00001942    0.00054142
     atom   24 type  1   force =    -0.00000000    0.00001942   -0.00054142

     Total force =     0.002158     Total SCF correction =     0.000005


     Computing stress (Cartesian axis) and pressure

          total   stress  (Ry/bohr**3)                   (kbar)     P=       27.65
   0.00018460   0.00000000   0.00000000           27.16        0.00        0.00
   0.00000000   0.00018560   0.00000000            0.00       27.30        0.00
   0.00000000   0.00000000   0.00019358            0.00        0.00       28.48

     Energy error            =      1.1E-05 Ry
     Gradient error          =      5.4E-04 Ry/Bohr

     bfgs converged in   6 scf cycles and   5 bfgs steps
     (criteria: energy <  1.0E-04 Ry, force <  1.0E-03 Ry/Bohr)

     End of BFGS Geometry Optimization

     Final energy             =    -278.6781129134 Ry

     File ./iceVIII/iceVIII.bfgs deleted, as requested
Begin final coordinates

ATOMIC_POSITIONS (crystal)
O               -0.0000000000        0.2500000018        0.6082135815
O               -0.0000000000        0.7499999982        0.3917864475
O                0.5000000000        0.7500000008        0.1082135615
O                0.5000000000        0.2499999992        0.8917864095
O               -0.0000000000        0.7499999990        0.8582038813
O               -0.0000000000        0.2500000010        0.1417961477
O                0.5000000000        0.2499999997        0.3582038379
O                0.5000000000        0.7500000003        0.6417961331
H                0.0000000000        0.4177493751        0.6959922768
H                0.0000000000        0.5822505949        0.3040077232
H                0.5000000000        0.5822505918        0.1959922878
H                0.5000000000        0.4177493782        0.8040077122
H                0.8322516320        0.7499999994        0.9459846705
H                0.1677483380        0.2500000006        0.0540153295
H                0.6677483679        0.2499999999        0.4459846545
H                0.3322516621        0.7500000001        0.5540153455
H                0.6677483679        0.7500000001        0.5540153455
H                0.3322516621        0.2499999999        0.4459846545
H                0.8322516320        0.2500000006        0.0540153295
H                0.1677483380        0.7499999994        0.9459846705
H                0.5000000000        0.9177494083        0.1959922874
H                0.5000000000        0.0822506217        0.8040077126
H                0.0000000000        0.0822506257        0.6959922769
H                0.0000000000        0.9177494043        0.3040077231
End final coordinates



     Writing all to output data dir ./iceVIII/iceVIII.save/ :
     XML data file, charge density, pseudopotentials, collected wavefunctions

     init_run     :      2.78s CPU      2.84s WALL (       1 calls)
     electrons    :    102.67s CPU    104.99s WALL (       6 calls)
     update_pot   :      0.19s CPU      0.23s WALL (       5 calls)
     forces       :      0.79s CPU      0.81s WALL (       6 calls)
     stress       :     10.12s CPU     10.17s WALL (       6 calls)

     Called by init_run:
     wfcinit      :      0.88s CPU      0.89s WALL (       1 calls)
     potinit      :      1.56s CPU      1.59s WALL (       1 calls)
     hinit0       :      0.28s CPU      0.29s WALL (       1 calls)

     Called by electrons:
     c_bands      :     90.20s CPU     91.99s WALL (      46 calls)
     sum_band     :     10.68s CPU     10.84s WALL (      46 calls)
     v_of_rho     :      3.33s CPU      3.56s WALL (      49 calls)
     newd         :      0.06s CPU      0.08s WALL (      49 calls)
     mix_rho      :      0.05s CPU      0.05s WALL (      46 calls)
     vdW_kernel   :      1.50s CPU      1.52s WALL (       1 calls)

     Called by c_bands:
     init_us_2    :      1.16s CPU      1.20s WALL (    3780 calls)
     cegterg      :     86.97s CPU     88.06s WALL (    1656 calls)

     Called by *egterg:
     cdiaghg      :     10.11s CPU     10.19s WALL (    5923 calls)
     h_psi        :     64.64s CPU     65.57s WALL (    6247 calls)
     s_psi        :      2.43s CPU      2.45s WALL (    6247 calls)
     g_psi        :      0.21s CPU      0.21s WALL (    4555 calls)

     Called by h_psi:
     h_psi:calbec :      3.43s CPU      3.47s WALL (    6247 calls)
     vloc_psi     :     58.31s CPU     59.18s WALL (    6247 calls)
     add_vuspsi   :      2.60s CPU      2.63s WALL (    6247 calls)

     General routines
     calbec       :      5.20s CPU      5.26s WALL (    8983 calls)
     fft          :      1.33s CPU      1.36s WALL (    3309 calls)
     ffts         :      0.02s CPU      0.02s WALL (      46 calls)
     fftw         :     62.00s CPU     62.91s WALL (  387534 calls)

     Parallel routines

     PWSCF        :   1m57.50s CPU   2m 2.07s WALL


   This run was terminated on:  15:14: 4   1Apr2026            

=------------------------------------------------------------------------------=
   JOB DONE.
=------------------------------------------------------------------------------=
