
     Program PWSCF v.7.3.1 starts on 26Mar2026 at 16: 4: 6 

     This program is part of the open-source Quantum ESPRESSO suite
     for quantum simulation of materials; please cite
         "P. Giannozzi et al., J. Phys.:Condens. Matter 21 395502 (2009);
         "P. Giannozzi et al., J. Phys.:Condens. Matter 29 465901 (2017);
         "P. Giannozzi et al., J. Chem. Phys. 152 154105 (2020);
          URL http://www.quantum-espresso.org", 
     in publications or presentations arising from this work. More details at
     http://www.quantum-espresso.org/quote

     Parallel version (MPI), running on   128 processors

     MPI processes distributed on     1 nodes
     241933 MiB available memory on the printing compute node when the environment starts

     Waiting for input...
     Reading input from standard input

     Current dimensions of program PWSCF are:
     Max number of different atomic species (ntypx) = 10
     Max number of k-points (npk) =  40000
     Max angular momentum in pseudopotentials (lmaxx) =  4

     IMPORTANT: XC functional enforced from input :
     Exchange-correlation= VDW-DF2
                           (   1   4  13   0   2   0   0)
     Any further DFT definition will be discarded
     Please, verify this is what you really want

     Found identity + ( -0.5000 -0.5000 -0.5000) symmetry
     This is a supercell, fractional translations are disabled

     K-points division:     npool     =       4
     R & G space division:  proc/nbgrp/npool/nimage =      32
     Subspace diagonalization in iterative solution of the eigenvalue problem:
     a serial algorithm will be used


     Parallelization info
     --------------------
     sticks:   dense  smooth     PW     G-vecs:    dense   smooth      PW
     Min          72      72     20                 3764     3764     546
     Max          73      73     21                 3771     3771     549
     Sum        2313    2313    641               120511   120511   17505

     Using Slab Decomposition



     bravais-lattice index     =            6
     lattice parameter (alat)  =       8.9826  a.u.
     unit-cell volume          =    1045.2601 (a.u.)^3
     number of atoms/cell      =           24
     number of atomic types    =            2
     number of electrons       =        64.00
     number of Kohn-Sham states=           32
     kinetic-energy cutoff     =      90.0000  Ry
     charge density cutoff     =     360.0000  Ry
     scf convergence threshold =      1.0E-07
     mixing beta               =       0.7000
     number of iterations used =            8  plain     mixing
     Exchange-correlation= VDW-DF2
                           (   1   4  13   0   2   0   0)

     celldm(1)=   8.982555  celldm(2)=   0.000000  celldm(3)=   1.442197
     celldm(4)=   0.000000  celldm(5)=   0.000000  celldm(6)=   0.000000

     crystal axes: (cart. coord. in units of alat)
               a(1) = (   1.000000   0.000000   0.000000 )  
               a(2) = (   0.000000   1.000000   0.000000 )  
               a(3) = (   0.000000   0.000000   1.442197 )  

     reciprocal axes: (cart. coord. in units 2 pi/alat)
               b(1) = (  1.000000  0.000000  0.000000 )  
               b(2) = (  0.000000  1.000000  0.000000 )  
               b(3) = (  0.000000  0.000000  0.693386 )  


     PseudoPot. # 1 for H  read from file:
     ./H.pbe-van_ak.UPF
     MD5 check sum: 077eb6d537518a38cb46c6de387227b7
     Pseudo is Ultrasoft, Zval =  1.0
     Generated by new atomic code, or converted to UPF format
     Using radial grid of  615 points,  1 beta functions with: 
                l(1) =   0
     Q(r) pseudized with  8 coefficients,  rinner =    0.800

     PseudoPot. # 2 for O  read from file:
     ./O.pbe-van_ak.UPF
     MD5 check sum: 78c19812648e8988a0fe644b0f25305e
     Pseudo is Ultrasoft, Zval =  6.0
     Generated by new atomic code, or converted to UPF format
     Using radial grid of  737 points,  4 beta functions with: 
                l(1) =   0
                l(2) =   0
                l(3) =   1
                l(4) =   1
     Q(r) pseudized with  8 coefficients,  rinner =    0.800   0.800   0.800


     atomic species   valence    mass     pseudopotential
     H                 1.00     1.00800     H ( 1.00)
     O                 6.00    16.00000     O ( 1.00)

      4 Sym. Ops., with inversion, found



   Cartesian axes

     site n.     atom                  positions (alat units)
         1        O      tau(   1) = (   0.0000000   0.2500000   0.8763462  )
         2        O      tau(   2) = (   0.0000000   0.7500000   0.5658510  )
         3        O      tau(   3) = (   0.5000000   0.7500000   0.1552476  )
         4        O      tau(   4) = (   0.5000000   0.2500000   1.2869495  )
         5        O      tau(   5) = (   0.0000000   0.7500000   1.2368921  )
         6        O      tau(   6) = (   0.0000000   0.2500000   0.2053051  )
         7        O      tau(   7) = (   0.5000000   0.2500000   0.5157934  )
         8        O      tau(   8) = (   0.5000000   0.7500000   0.9264037  )
         9        H      tau(   9) = (   0.0000000   0.4175939   1.0039395  )
        10        H      tau(  10) = (   0.0000000   0.5824060   0.4382577  )
        11        H      tau(  11) = (   0.5000000   0.5824060   0.2828409  )
        12        H      tau(  12) = (   0.5000000   0.4175939   1.1593562  )
        13        H      tau(  13) = (   0.8324057   0.7500000   1.3644894  )
        14        H      tau(  14) = (   0.1675943   0.2500000   0.0777077  )
        15        H      tau(  15) = (   0.6675943   0.2500000   0.6433908  )
        16        H      tau(  16) = (   0.3324057   0.7500000   0.7988063  )
        17        H      tau(  17) = (   0.6675943   0.7500000   0.7988063  )
        18        H      tau(  18) = (   0.3324057   0.2500000   0.6433908  )
        19        H      tau(  19) = (   0.8324057   0.2500000   0.0777077  )
        20        H      tau(  20) = (   0.1675943   0.7500000   1.3644894  )
        21        H      tau(  21) = (   0.5000000   0.9175940   0.2828409  )
        22        H      tau(  22) = (   0.5000000   0.0824061   1.1593562  )
        23        H      tau(  23) = (   0.0000000   0.0824061   1.0039395  )
        24        H      tau(  24) = (   0.0000000   0.9175940   0.4382577  )

     number of k points=   144

     Number of k-points >= 100: set verbosity='high' to print them.

     Dense  grid:   120511 G-vectors     FFT dimensions: (  60,  60,  80)

     Estimated max dynamical RAM per process >      13.96 MB

     Estimated total dynamical RAM >       1.66 GB

     Initial potential from superposition of free atoms

     starting charge      63.9998, renormalised to      64.0000


     %%%%%%%%%%%%%%%%%%%%%%%%%%%%%%%%%%%%%%%%%%%%%%%%%%%%%%%%%%%%%%%%%%%%%%%%
     %                                                                      %
     % You are using vdW-DF, which was implemented by the Thonhauser group. %
     % Please cite the following two papers that made this development      %
     % possible and the two reviews that describe the various versions:     %
     %                                                                      %
     %   T. Thonhauser et al., PRL 115, 136402 (2015).                      %
     %   T. Thonhauser et al., PRB 76, 125112 (2007).                       %
     %   K. Berland et al., Rep. Prog. Phys. 78, 066501 (2015).             %
     %   D.C. Langreth et al., J. Phys.: Condens. Matter 21, 084203 (2009). %
     %                                                                      %
     % If you are calculating stress with vdW-DF, please also cite:         %
     %                                                                      %
     %   R. Sabatini et al., J. Phys.: Condens. Matter 24, 424209 (2012).   %
     %                                                                      %
     %%%%%%%%%%%%%%%%%%%%%%%%%%%%%%%%%%%%%%%%%%%%%%%%%%%%%%%%%%%%%%%%%%%%%%%%

     %%%%%%%%%%%%%%%%%%%%%%%%%%%%%%%%%%%%%%%%%%%%%%%%%%%%%%%%%%%%%%%%%%%%%%%%
     %                                                                      %
     %  vdW-DF NEWS:                                                        %
     %                                                                      %
     %  * vdW-DF3 is now available. DOI: 10.1021/acs.jctc.0c00471           %
     %    use with input_dft = 'vdW-DF3-opt1' or 'vdW-DF3-opt2'             %
     %                                                                      %
     %  * Unscreened and range-separated hybrid vdW-DF-cx functionals       %
     %    DOI: 10.1063/1.4986522 and 10.1088/1361-648X/ac2ad2               %
     %    use with input_dft = 'vdW-DF-cx0'    and 'vdW-DF-ahcx'            %
     %  * Unscreened and range-separated hybrid vdW-DF2-b86r functionals    %
     %    DOI: 10.1063/1.4986522 and DOI: 10.1103/PhysRevX.12.041003        %
     %    use with input_dft = 'vdW-DF2-br0' and 'vdW-DF2-ahbr'             %
     %                                                                      %
     %%%%%%%%%%%%%%%%%%%%%%%%%%%%%%%%%%%%%%%%%%%%%%%%%%%%%%%%%%%%%%%%%%%%%%%%


     Starting wfcs are   48 randomized atomic wfcs

     total cpu time spent up to now is        3.2 secs

     per-process dynamical memory:    20.5 Mb

     Self-consistent Calculation

     iteration #  1     ecut=    90.00 Ry     beta= 0.70
     Davidson diagonalization with overlap
     ethr =  1.00E-02,  avg # of iterations =  2.0

     total cpu time spent up to now is        5.3 secs

     total energy              =    -277.30317792 Ry
     estimated scf accuracy    <       3.07027134 Ry

     iteration #  2     ecut=    90.00 Ry     beta= 0.70
     Davidson diagonalization with overlap
     ethr =  4.80E-03,  avg # of iterations =  3.0

     total cpu time spent up to now is        7.9 secs

     total energy              =    -278.34430562 Ry
     estimated scf accuracy    <       2.13427663 Ry

     iteration #  3     ecut=    90.00 Ry     beta= 0.70
     Davidson diagonalization with overlap
     ethr =  3.33E-03,  avg # of iterations =  2.0

     total cpu time spent up to now is        9.9 secs

     total energy              =    -278.59691618 Ry
     estimated scf accuracy    <       0.10242339 Ry

     iteration #  4     ecut=    90.00 Ry     beta= 0.70
     Davidson diagonalization with overlap
     ethr =  1.60E-04,  avg # of iterations =  4.1

     total cpu time spent up to now is       12.9 secs

     total energy              =    -278.67585247 Ry
     estimated scf accuracy    <       0.12352716 Ry

     iteration #  5     ecut=    90.00 Ry     beta= 0.70
     Davidson diagonalization with overlap
     ethr =  1.60E-04,  avg # of iterations =  1.8

     total cpu time spent up to now is       14.6 secs

     total energy              =    -278.67598166 Ry
     estimated scf accuracy    <       0.02192545 Ry

     iteration #  6     ecut=    90.00 Ry     beta= 0.70
     Davidson diagonalization with overlap
     ethr =  3.43E-05,  avg # of iterations =  2.0

     total cpu time spent up to now is       16.6 secs

     total energy              =    -278.68024669 Ry
     estimated scf accuracy    <       0.00125977 Ry

     iteration #  7     ecut=    90.00 Ry     beta= 0.70
     Davidson diagonalization with overlap
     ethr =  1.97E-06,  avg # of iterations =  2.3

     total cpu time spent up to now is       18.8 secs

     total energy              =    -278.68032606 Ry
     estimated scf accuracy    <       0.00032675 Ry

     iteration #  8     ecut=    90.00 Ry     beta= 0.70
     Davidson diagonalization with overlap
     ethr =  5.11E-07,  avg # of iterations =  2.3

     total cpu time spent up to now is       21.0 secs

     total energy              =    -278.68040919 Ry
     estimated scf accuracy    <       0.00001566 Ry

     iteration #  9     ecut=    90.00 Ry     beta= 0.70
     Davidson diagonalization with overlap
     ethr =  2.45E-08,  avg # of iterations =  2.0

     total cpu time spent up to now is       23.0 secs

     total energy              =    -278.68042057 Ry
     estimated scf accuracy    <       0.00003508 Ry

     iteration # 10     ecut=    90.00 Ry     beta= 0.70
     Davidson diagonalization with overlap
     ethr =  2.45E-08,  avg # of iterations =  2.0

     total cpu time spent up to now is       25.2 secs

     total energy              =    -278.68041619 Ry
     estimated scf accuracy    <       0.00006848 Ry

     iteration # 11     ecut=    90.00 Ry     beta= 0.70
     Davidson diagonalization with overlap
     ethr =  2.45E-08,  avg # of iterations =  1.0

     total cpu time spent up to now is       26.7 secs

     total energy              =    -278.68041194 Ry
     estimated scf accuracy    <       0.00005245 Ry

     iteration # 12     ecut=    90.00 Ry     beta= 0.70
     Davidson diagonalization with overlap
     ethr =  2.45E-08,  avg # of iterations =  1.0

     total cpu time spent up to now is       28.3 secs

     total energy              =    -278.68039637 Ry
     estimated scf accuracy    <       0.00003984 Ry

     iteration # 13     ecut=    90.00 Ry     beta= 0.70
     Davidson diagonalization with overlap
     ethr =  2.45E-08,  avg # of iterations =  2.0

     total cpu time spent up to now is       30.5 secs

     total energy              =    -278.68040050 Ry
     estimated scf accuracy    <       0.00000262 Ry

     iteration # 14     ecut=    90.00 Ry     beta= 0.70
     Davidson diagonalization with overlap
     ethr =  4.09E-09,  avg # of iterations =  3.0

     total cpu time spent up to now is       32.8 secs

     End of self-consistent calculation

     Number of k-points >= 100: set verbosity='high' to print the bands.

     highest occupied level (ev):    -0.7985

!    total energy              =    -278.68040131 Ry
     estimated scf accuracy    <       0.00000002 Ry

     The total energy is the sum of the following terms:
     one-electron contribution =    -128.89217376 Ry
     hartree contribution      =      91.61720239 Ry
     xc contribution           =     -70.59691901 Ry
     ewald contribution        =    -170.80851093 Ry

     convergence has been achieved in  14 iterations

     Forces acting on atoms (cartesian axes, Ry/au):

     atom    1 type  2   force =     0.00000000    0.00000007    0.02060687
     atom    2 type  2   force =     0.00000000   -0.00000007   -0.02060687
     atom    3 type  2   force =     0.00000000   -0.00000004    0.02060097
     atom    4 type  2   force =     0.00000000    0.00000004   -0.02060097
     atom    5 type  2   force =     0.00000000   -0.00000009    0.02062263
     atom    6 type  2   force =     0.00000000    0.00000009   -0.02062263
     atom    7 type  2   force =     0.00000000   -0.00000011    0.02063197
     atom    8 type  2   force =     0.00000000    0.00000011   -0.02063197
     atom    9 type  1   force =     0.00000000   -0.01287492   -0.00984322
     atom   10 type  1   force =     0.00000000    0.01287492    0.00984322
     atom   11 type  1   force =     0.00000000    0.01287562   -0.00984393
     atom   12 type  1   force =     0.00000000   -0.01287562    0.00984393
     atom   13 type  1   force =     0.01288997    0.00000001   -0.00985976
     atom   14 type  1   force =    -0.01288997   -0.00000001    0.00985976
     atom   15 type  1   force =    -0.01288724    0.00000000   -0.00985697
     atom   16 type  1   force =     0.01288724   -0.00000000    0.00985697
     atom   17 type  1   force =    -0.01288724   -0.00000000    0.00985697
     atom   18 type  1   force =     0.01288724    0.00000000   -0.00985697
     atom   19 type  1   force =     0.01288997   -0.00000001    0.00985976
     atom   20 type  1   force =    -0.01288997    0.00000001   -0.00985976
     atom   21 type  1   force =     0.00000000   -0.01287562   -0.00984394
     atom   22 type  1   force =     0.00000000    0.01287562    0.00984394
     atom   23 type  1   force =     0.00000000    0.01287492   -0.00984320
     atom   24 type  1   force =     0.00000000   -0.01287492    0.00984320

     Total force =     0.087223     Total SCF correction =     0.000321


     Computing stress (Cartesian axis) and pressure

          total   stress  (Ry/bohr**3)                   (kbar)     P=       -6.01
  -0.00003355   0.00000000   0.00000000           -4.93        0.00        0.00
   0.00000000  -0.00003335  -0.00000000            0.00       -4.91       -0.00
   0.00000000  -0.00000000  -0.00005561            0.00       -0.00       -8.18


     Writing all to output data dir ./iceVIII/iceVIII.save/ :
     XML data file, charge density, pseudopotentials, collected wavefunctions

     init_run     :      2.94s CPU      3.02s WALL (       1 calls)
     electrons    :     28.83s CPU     29.58s WALL (       1 calls)
     forces       :      0.15s CPU      0.15s WALL (       1 calls)
     stress       :      1.73s CPU      1.75s WALL (       1 calls)

     Called by init_run:
     wfcinit      :      0.89s CPU      0.92s WALL (       1 calls)
     potinit      :      1.56s CPU      1.59s WALL (       1 calls)
     hinit0       :      0.43s CPU      0.44s WALL (       1 calls)

     Called by electrons:
     c_bands      :     24.80s CPU     25.37s WALL (      14 calls)
     sum_band     :      3.34s CPU      3.42s WALL (      14 calls)
     v_of_rho     :      2.18s CPU      2.25s WALL (      15 calls)
     newd         :      0.03s CPU      0.03s WALL (      15 calls)
     mix_rho      :      0.03s CPU      0.03s WALL (      14 calls)
     vdW_kernel   :      1.50s CPU      1.52s WALL (       1 calls)

     Called by c_bands:
     init_us_2    :      0.36s CPU      0.37s WALL (    1116 calls)
     cegterg      :     23.79s CPU     24.16s WALL (     504 calls)

     Called by *egterg:
     cdiaghg      :      2.63s CPU      2.66s WALL (    1608 calls)
     h_psi        :     18.54s CPU     18.88s WALL (    1644 calls)
     s_psi        :      0.69s CPU      0.70s WALL (    1644 calls)
     g_psi        :      0.05s CPU      0.05s WALL (    1104 calls)

     Called by h_psi:
     h_psi:calbec :      0.96s CPU      0.98s WALL (    1644 calls)
     vloc_psi     :     16.75s CPU     17.06s WALL (    1644 calls)
     add_vuspsi   :      0.73s CPU      0.74s WALL (    1644 calls)

     General routines
     calbec       :      1.36s CPU      1.38s WALL (    2328 calls)
     fft          :      0.76s CPU      0.77s WALL (     967 calls)
     ffts         :      0.00s CPU      0.00s WALL (      14 calls)
     fftw         :     17.83s CPU     18.17s WALL (  110178 calls)

     Parallel routines

     PWSCF        :     34.46s CPU     36.43s WALL


   This run was terminated on:  16: 4:42  26Mar2026            

=------------------------------------------------------------------------------=
   JOB DONE.
=------------------------------------------------------------------------------=
