
     Program PWSCF v.7.3.1 starts on 26Mar2026 at 16: 4:46 

     This program is part of the open-source Quantum ESPRESSO suite
     for quantum simulation of materials; please cite
         "P. Giannozzi et al., J. Phys.:Condens. Matter 21 395502 (2009);
         "P. Giannozzi et al., J. Phys.:Condens. Matter 29 465901 (2017);
         "P. Giannozzi et al., J. Chem. Phys. 152 154105 (2020);
          URL http://www.quantum-espresso.org", 
     in publications or presentations arising from this work. More details at
     http://www.quantum-espresso.org/quote

     Parallel version (MPI), running on   128 processors

     MPI processes distributed on     1 nodes
     241990 MiB available memory on the printing compute node when the environment starts

     Waiting for input...
     Reading input from standard input

     Current dimensions of program PWSCF are:
     Max number of different atomic species (ntypx) = 10
     Max number of k-points (npk) =  40000
     Max angular momentum in pseudopotentials (lmaxx) =  4

     IMPORTANT: XC functional enforced from input :
     Exchange-correlation= VDW-DF2
                           (   1   4  13   0   2   0   0)
     Any further DFT definition will be discarded
     Please, verify this is what you really want

     Found identity + ( -0.5000 -0.5000 -0.5000) symmetry
     This is a supercell, fractional translations are disabled

     K-points division:     npool     =       4
     R & G space division:  proc/nbgrp/npool/nimage =      32
     Subspace diagonalization in iterative solution of the eigenvalue problem:
     a serial algorithm will be used


     Parallelization info
     --------------------
     sticks:   dense  smooth     PW     G-vecs:    dense   smooth      PW
     Min          72      72     20                 3790     3790     548
     Max          73      73     21                 3797     3797     553
     Sum        2321    2321    641               121359   121359   17601

     Using Slab Decomposition



     bravais-lattice index     =            6
     lattice parameter (alat)  =       9.0003  a.u.
     unit-cell volume          =    1051.4695 (a.u.)^3
     number of atoms/cell      =           24
     number of atomic types    =            2
     number of electrons       =        64.00
     number of Kohn-Sham states=           32
     kinetic-energy cutoff     =      90.0000  Ry
     charge density cutoff     =     360.0000  Ry
     scf convergence threshold =      1.0E-07
     mixing beta               =       0.7000
     number of iterations used =            8  plain     mixing
     Exchange-correlation= VDW-DF2
                           (   1   4  13   0   2   0   0)

     celldm(1)=   9.000308  celldm(2)=   0.000000  celldm(3)=   1.442197
     celldm(4)=   0.000000  celldm(5)=   0.000000  celldm(6)=   0.000000

     crystal axes: (cart. coord. in units of alat)
               a(1) = (   1.000000   0.000000   0.000000 )  
               a(2) = (   0.000000   1.000000   0.000000 )  
               a(3) = (   0.000000   0.000000   1.442197 )  

     reciprocal axes: (cart. coord. in units 2 pi/alat)
               b(1) = (  1.000000  0.000000  0.000000 )  
               b(2) = (  0.000000  1.000000  0.000000 )  
               b(3) = (  0.000000  0.000000  0.693386 )  


     PseudoPot. # 1 for H  read from file:
     ./H.pbe-van_ak.UPF
     MD5 check sum: 077eb6d537518a38cb46c6de387227b7
     Pseudo is Ultrasoft, Zval =  1.0
     Generated by new atomic code, or converted to UPF format
     Using radial grid of  615 points,  1 beta functions with: 
                l(1) =   0
     Q(r) pseudized with  8 coefficients,  rinner =    0.800

     PseudoPot. # 2 for O  read from file:
     ./O.pbe-van_ak.UPF
     MD5 check sum: 78c19812648e8988a0fe644b0f25305e
     Pseudo is Ultrasoft, Zval =  6.0
     Generated by new atomic code, or converted to UPF format
     Using radial grid of  737 points,  4 beta functions with: 
                l(1) =   0
                l(2) =   0
                l(3) =   1
                l(4) =   1
     Q(r) pseudized with  8 coefficients,  rinner =    0.800   0.800   0.800


     atomic species   valence    mass     pseudopotential
     H                 1.00     1.00800     H ( 1.00)
     O                 6.00    16.00000     O ( 1.00)

      4 Sym. Ops., with inversion, found



   Cartesian axes

     site n.     atom                  positions (alat units)
         1        O      tau(   1) = (   0.0000000   0.2500000   0.8763462  )
         2        O      tau(   2) = (   0.0000000   0.7500000   0.5658510  )
         3        O      tau(   3) = (   0.5000000   0.7500000   0.1552476  )
         4        O      tau(   4) = (   0.5000000   0.2500000   1.2869495  )
         5        O      tau(   5) = (   0.0000000   0.7500000   1.2368921  )
         6        O      tau(   6) = (   0.0000000   0.2500000   0.2053051  )
         7        O      tau(   7) = (   0.5000000   0.2500000   0.5157934  )
         8        O      tau(   8) = (   0.5000000   0.7500000   0.9264037  )
         9        H      tau(   9) = (   0.0000000   0.4175939   1.0039395  )
        10        H      tau(  10) = (   0.0000000   0.5824060   0.4382577  )
        11        H      tau(  11) = (   0.5000000   0.5824060   0.2828409  )
        12        H      tau(  12) = (   0.5000000   0.4175939   1.1593562  )
        13        H      tau(  13) = (   0.8324057   0.7500000   1.3644894  )
        14        H      tau(  14) = (   0.1675943   0.2500000   0.0777077  )
        15        H      tau(  15) = (   0.6675943   0.2500000   0.6433908  )
        16        H      tau(  16) = (   0.3324057   0.7500000   0.7988063  )
        17        H      tau(  17) = (   0.6675943   0.7500000   0.7988063  )
        18        H      tau(  18) = (   0.3324057   0.2500000   0.6433908  )
        19        H      tau(  19) = (   0.8324057   0.2500000   0.0777077  )
        20        H      tau(  20) = (   0.1675943   0.7500000   1.3644894  )
        21        H      tau(  21) = (   0.5000000   0.9175940   0.2828409  )
        22        H      tau(  22) = (   0.5000000   0.0824061   1.1593562  )
        23        H      tau(  23) = (   0.0000000   0.0824061   1.0039395  )
        24        H      tau(  24) = (   0.0000000   0.9175940   0.4382577  )

     number of k points=   144

     Number of k-points >= 100: set verbosity='high' to print them.

     Dense  grid:   121359 G-vectors     FFT dimensions: (  60,  60,  80)

     Estimated max dynamical RAM per process >      14.04 MB

     Estimated total dynamical RAM >       1.67 GB

     Initial potential from superposition of free atoms

     starting charge      63.9998, renormalised to      64.0000


     %%%%%%%%%%%%%%%%%%%%%%%%%%%%%%%%%%%%%%%%%%%%%%%%%%%%%%%%%%%%%%%%%%%%%%%%
     %                                                                      %
     % You are using vdW-DF, which was implemented by the Thonhauser group. %
     % Please cite the following two papers that made this development      %
     % possible and the two reviews that describe the various versions:     %
     %                                                                      %
     %   T. Thonhauser et al., PRL 115, 136402 (2015).                      %
     %   T. Thonhauser et al., PRB 76, 125112 (2007).                       %
     %   K. Berland et al., Rep. Prog. Phys. 78, 066501 (2015).             %
     %   D.C. Langreth et al., J. Phys.: Condens. Matter 21, 084203 (2009). %
     %                                                                      %
     % If you are calculating stress with vdW-DF, please also cite:         %
     %                                                                      %
     %   R. Sabatini et al., J. Phys.: Condens. Matter 24, 424209 (2012).   %
     %                                                                      %
     %%%%%%%%%%%%%%%%%%%%%%%%%%%%%%%%%%%%%%%%%%%%%%%%%%%%%%%%%%%%%%%%%%%%%%%%

     %%%%%%%%%%%%%%%%%%%%%%%%%%%%%%%%%%%%%%%%%%%%%%%%%%%%%%%%%%%%%%%%%%%%%%%%
     %                                                                      %
     %  vdW-DF NEWS:                                                        %
     %                                                                      %
     %  * vdW-DF3 is now available. DOI: 10.1021/acs.jctc.0c00471           %
     %    use with input_dft = 'vdW-DF3-opt1' or 'vdW-DF3-opt2'             %
     %                                                                      %
     %  * Unscreened and range-separated hybrid vdW-DF-cx functionals       %
     %    DOI: 10.1063/1.4986522 and 10.1088/1361-648X/ac2ad2               %
     %    use with input_dft = 'vdW-DF-cx0'    and 'vdW-DF-ahcx'            %
     %  * Unscreened and range-separated hybrid vdW-DF2-b86r functionals    %
     %    DOI: 10.1063/1.4986522 and DOI: 10.1103/PhysRevX.12.041003        %
     %    use with input_dft = 'vdW-DF2-br0' and 'vdW-DF2-ahbr'             %
     %                                                                      %
     %%%%%%%%%%%%%%%%%%%%%%%%%%%%%%%%%%%%%%%%%%%%%%%%%%%%%%%%%%%%%%%%%%%%%%%%


     Starting wfcs are   48 randomized atomic wfcs

     total cpu time spent up to now is        3.3 secs

     per-process dynamical memory:    20.7 Mb

     Self-consistent Calculation

     iteration #  1     ecut=    90.00 Ry     beta= 0.70
     Davidson diagonalization with overlap
     ethr =  1.00E-02,  avg # of iterations =  2.0

     total cpu time spent up to now is        5.3 secs

     total energy              =    -277.30332779 Ry
     estimated scf accuracy    <       3.06415609 Ry

     iteration #  2     ecut=    90.00 Ry     beta= 0.70
     Davidson diagonalization with overlap
     ethr =  4.79E-03,  avg # of iterations =  3.0

     total cpu time spent up to now is        8.0 secs

     total energy              =    -278.34125917 Ry
     estimated scf accuracy    <       2.15095190 Ry

     iteration #  3     ecut=    90.00 Ry     beta= 0.70
     Davidson diagonalization with overlap
     ethr =  3.36E-03,  avg # of iterations =  2.0

     total cpu time spent up to now is        9.9 secs

     total energy              =    -278.59575749 Ry
     estimated scf accuracy    <       0.10359353 Ry

     iteration #  4     ecut=    90.00 Ry     beta= 0.70
     Davidson diagonalization with overlap
     ethr =  1.62E-04,  avg # of iterations =  4.1

     total cpu time spent up to now is       12.9 secs

     total energy              =    -278.67568475 Ry
     estimated scf accuracy    <       0.12462660 Ry

     iteration #  5     ecut=    90.00 Ry     beta= 0.70
     Davidson diagonalization with overlap
     ethr =  1.62E-04,  avg # of iterations =  1.7

     total cpu time spent up to now is       14.6 secs

     total energy              =    -278.67576328 Ry
     estimated scf accuracy    <       0.02223635 Ry

     iteration #  6     ecut=    90.00 Ry     beta= 0.70
     Davidson diagonalization with overlap
     ethr =  3.47E-05,  avg # of iterations =  2.0

     total cpu time spent up to now is       16.7 secs

     total energy              =    -278.68007151 Ry
     estimated scf accuracy    <       0.00128423 Ry

     iteration #  7     ecut=    90.00 Ry     beta= 0.70
     Davidson diagonalization with overlap
     ethr =  2.01E-06,  avg # of iterations =  2.3

     total cpu time spent up to now is       18.8 secs

     total energy              =    -278.68014013 Ry
     estimated scf accuracy    <       0.00033775 Ry

     iteration #  8     ecut=    90.00 Ry     beta= 0.70
     Davidson diagonalization with overlap
     ethr =  5.28E-07,  avg # of iterations =  2.3

     total cpu time spent up to now is       21.1 secs

     total energy              =    -278.68022965 Ry
     estimated scf accuracy    <       0.00001482 Ry

     iteration #  9     ecut=    90.00 Ry     beta= 0.70
     Davidson diagonalization with overlap
     ethr =  2.32E-08,  avg # of iterations =  2.0

     total cpu time spent up to now is       23.2 secs

     total energy              =    -278.68024056 Ry
     estimated scf accuracy    <       0.00003132 Ry

     iteration # 10     ecut=    90.00 Ry     beta= 0.70
     Davidson diagonalization with overlap
     ethr =  2.32E-08,  avg # of iterations =  2.1

     total cpu time spent up to now is       25.4 secs

     total energy              =    -278.68023965 Ry
     estimated scf accuracy    <       0.00006263 Ry

     iteration # 11     ecut=    90.00 Ry     beta= 0.70
     Davidson diagonalization with overlap
     ethr =  2.32E-08,  avg # of iterations =  1.0

     total cpu time spent up to now is       26.9 secs

     total energy              =    -278.68023173 Ry
     estimated scf accuracy    <       0.00005594 Ry

     iteration # 12     ecut=    90.00 Ry     beta= 0.70
     Davidson diagonalization with overlap
     ethr =  2.32E-08,  avg # of iterations =  1.0

     total cpu time spent up to now is       28.4 secs

     total energy              =    -278.68022249 Ry
     estimated scf accuracy    <       0.00003571 Ry

     iteration # 13     ecut=    90.00 Ry     beta= 0.70
     Davidson diagonalization with overlap
     ethr =  2.32E-08,  avg # of iterations =  2.0

     total cpu time spent up to now is       30.5 secs

     total energy              =    -278.68022429 Ry
     estimated scf accuracy    <       0.00000752 Ry

     iteration # 14     ecut=    90.00 Ry     beta= 0.70
     Davidson diagonalization with overlap
     ethr =  1.17E-08,  avg # of iterations =  1.0

     total cpu time spent up to now is       32.0 secs

     total energy              =    -278.68022191 Ry
     estimated scf accuracy    <       0.00000470 Ry

     iteration # 15     ecut=    90.00 Ry     beta= 0.70
     Davidson diagonalization with overlap
     ethr =  7.35E-09,  avg # of iterations =  2.0

     total cpu time spent up to now is       34.2 secs

     total energy              =    -278.68022328 Ry
     estimated scf accuracy    <       0.00000018 Ry

     iteration # 16     ecut=    90.00 Ry     beta= 0.70
     Davidson diagonalization with overlap
     ethr =  2.87E-10,  avg # of iterations =  2.0

     total cpu time spent up to now is       36.3 secs

     End of self-consistent calculation

     Number of k-points >= 100: set verbosity='high' to print the bands.

     highest occupied level (ev):    -0.8389

!    total energy              =    -278.68022330 Ry
     estimated scf accuracy    <       0.00000002 Ry

     The total energy is the sum of the following terms:
     one-electron contribution =    -129.46509065 Ry
     hartree contribution      =      91.81627497 Ry
     xc contribution           =     -70.55979711 Ry
     ewald contribution        =    -170.47161052 Ry

     convergence has been achieved in  16 iterations

     Forces acting on atoms (cartesian axes, Ry/au):

     atom    1 type  2   force =     0.00000000    0.00000002    0.02366014
     atom    2 type  2   force =     0.00000000   -0.00000002   -0.02366014
     atom    3 type  2   force =     0.00000000   -0.00000001    0.02365976
     atom    4 type  2   force =     0.00000000    0.00000001   -0.02365976
     atom    5 type  2   force =    -0.00000000   -0.00000007    0.02368492
     atom    6 type  2   force =    -0.00000000    0.00000007   -0.02368492
     atom    7 type  2   force =     0.00000000   -0.00000003    0.02368356
     atom    8 type  2   force =     0.00000000    0.00000003   -0.02368356
     atom    9 type  1   force =     0.00000000   -0.01529526   -0.01140371
     atom   10 type  1   force =     0.00000000    0.01529526    0.01140371
     atom   11 type  1   force =     0.00000000    0.01529523   -0.01140377
     atom   12 type  1   force =     0.00000000   -0.01529523    0.01140377
     atom   13 type  1   force =     0.01530758   -0.00000000   -0.01141822
     atom   14 type  1   force =    -0.01530758    0.00000000    0.01141822
     atom   15 type  1   force =    -0.01530760   -0.00000000   -0.01141847
     atom   16 type  1   force =     0.01530760    0.00000000    0.01141847
     atom   17 type  1   force =    -0.01530760    0.00000000    0.01141847
     atom   18 type  1   force =     0.01530760   -0.00000000   -0.01141847
     atom   19 type  1   force =     0.01530758    0.00000000    0.01141822
     atom   20 type  1   force =    -0.01530758   -0.00000000   -0.01141822
     atom   21 type  1   force =     0.00000000   -0.01529522   -0.01140376
     atom   22 type  1   force =     0.00000000    0.01529522    0.01140376
     atom   23 type  1   force =     0.00000000    0.01529527   -0.01140373
     atom   24 type  1   force =     0.00000000   -0.01529527    0.01140373

     Total force =     0.101550     Total SCF correction =     0.000083


     Computing stress (Cartesian axis) and pressure

          total   stress  (Ry/bohr**3)                   (kbar)     P=      -12.33
  -0.00007607   0.00000000   0.00000000          -11.19        0.00        0.00
   0.00000000  -0.00007596  -0.00000000            0.00      -11.17       -0.00
   0.00000000  -0.00000000  -0.00009935            0.00       -0.00      -14.61


     Writing all to output data dir ./iceVIII/iceVIII.save/ :
     XML data file, charge density, pseudopotentials, collected wavefunctions

     init_run     :      2.94s CPU      3.03s WALL (       1 calls)
     electrons    :     32.39s CPU     33.06s WALL (       1 calls)
     forces       :      0.14s CPU      0.15s WALL (       1 calls)
     stress       :      1.75s CPU      1.76s WALL (       1 calls)

     Called by init_run:
     wfcinit      :      0.89s CPU      0.91s WALL (       1 calls)
     potinit      :      1.56s CPU      1.60s WALL (       1 calls)
     hinit0       :      0.43s CPU      0.44s WALL (       1 calls)

     Called by electrons:
     c_bands      :     27.77s CPU     28.28s WALL (      16 calls)
     sum_band     :      3.83s CPU      3.89s WALL (      16 calls)
     v_of_rho     :      2.25s CPU      2.33s WALL (      17 calls)
     newd         :      0.03s CPU      0.04s WALL (      17 calls)
     mix_rho      :      0.03s CPU      0.03s WALL (      16 calls)
     vdW_kernel   :      1.50s CPU      1.52s WALL (       1 calls)

     Called by c_bands:
     init_us_2    :      0.41s CPU      0.42s WALL (    1260 calls)
     cegterg      :     26.51s CPU     26.84s WALL (     576 calls)

     Called by *egterg:
     cdiaghg      :      2.87s CPU      2.88s WALL (    1748 calls)
     h_psi        :     20.68s CPU     20.99s WALL (    1784 calls)
     s_psi        :      0.76s CPU      0.77s WALL (    1784 calls)
     g_psi        :      0.06s CPU      0.06s WALL (    1172 calls)

     Called by h_psi:
     h_psi:calbec :      1.04s CPU      1.06s WALL (    1784 calls)
     vloc_psi     :     18.73s CPU     19.01s WALL (    1784 calls)
     add_vuspsi   :      0.80s CPU      0.81s WALL (    1784 calls)

     General routines
     calbec       :      1.46s CPU      1.48s WALL (    2540 calls)
     fft          :      0.79s CPU      0.80s WALL (    1089 calls)
     ffts         :      0.01s CPU      0.01s WALL (      16 calls)
     fftw         :     20.00s CPU     20.30s WALL (  123016 calls)

     Parallel routines

     PWSCF        :     38.00s CPU     39.37s WALL


   This run was terminated on:  16: 5:26  26Mar2026            

=------------------------------------------------------------------------------=
   JOB DONE.
=------------------------------------------------------------------------------=
