
     Program PWSCF v.7.3.1 starts on 26Mar2026 at 16: 6:16 

     This program is part of the open-source Quantum ESPRESSO suite
     for quantum simulation of materials; please cite
         "P. Giannozzi et al., J. Phys.:Condens. Matter 21 395502 (2009);
         "P. Giannozzi et al., J. Phys.:Condens. Matter 29 465901 (2017);
         "P. Giannozzi et al., J. Chem. Phys. 152 154105 (2020);
          URL http://www.quantum-espresso.org", 
     in publications or presentations arising from this work. More details at
     http://www.quantum-espresso.org/quote

     Parallel version (MPI), running on   128 processors

     MPI processes distributed on     1 nodes
     241939 MiB available memory on the printing compute node when the environment starts

     Waiting for input...
     Reading input from standard input

     Current dimensions of program PWSCF are:
     Max number of different atomic species (ntypx) = 10
     Max number of k-points (npk) =  40000
     Max angular momentum in pseudopotentials (lmaxx) =  4

     IMPORTANT: XC functional enforced from input :
     Exchange-correlation= VDW-DF2
                           (   1   4  13   0   2   0   0)
     Any further DFT definition will be discarded
     Please, verify this is what you really want

     Found identity + ( -0.5000 -0.5000 -0.5000) symmetry
     This is a supercell, fractional translations are disabled

     K-points division:     npool     =       4
     R & G space division:  proc/nbgrp/npool/nimage =      32
     Subspace diagonalization in iterative solution of the eigenvalue problem:
     a serial algorithm will be used


     Parallelization info
     --------------------
     sticks:   dense  smooth     PW     G-vecs:    dense   smooth      PW
     Min          73      73     20                 3835     3835     556
     Max          74      74     21                 3840     3840     559
     Sum        2337    2337    657               122727   122727   17833

     Using Slab Decomposition



     bravais-lattice index     =            6
     lattice parameter (alat)  =       9.0358  a.u.
     unit-cell volume          =    1063.9621 (a.u.)^3
     number of atoms/cell      =           24
     number of atomic types    =            2
     number of electrons       =        64.00
     number of Kohn-Sham states=           32
     kinetic-energy cutoff     =      90.0000  Ry
     charge density cutoff     =     360.0000  Ry
     scf convergence threshold =      1.0E-07
     mixing beta               =       0.7000
     number of iterations used =            8  plain     mixing
     Exchange-correlation= VDW-DF2
                           (   1   4  13   0   2   0   0)

     celldm(1)=   9.035812  celldm(2)=   0.000000  celldm(3)=   1.442197
     celldm(4)=   0.000000  celldm(5)=   0.000000  celldm(6)=   0.000000

     crystal axes: (cart. coord. in units of alat)
               a(1) = (   1.000000   0.000000   0.000000 )  
               a(2) = (   0.000000   1.000000   0.000000 )  
               a(3) = (   0.000000   0.000000   1.442197 )  

     reciprocal axes: (cart. coord. in units 2 pi/alat)
               b(1) = (  1.000000  0.000000  0.000000 )  
               b(2) = (  0.000000  1.000000  0.000000 )  
               b(3) = (  0.000000  0.000000  0.693386 )  


     PseudoPot. # 1 for H  read from file:
     ./H.pbe-van_ak.UPF
     MD5 check sum: 077eb6d537518a38cb46c6de387227b7
     Pseudo is Ultrasoft, Zval =  1.0
     Generated by new atomic code, or converted to UPF format
     Using radial grid of  615 points,  1 beta functions with: 
                l(1) =   0
     Q(r) pseudized with  8 coefficients,  rinner =    0.800

     PseudoPot. # 2 for O  read from file:
     ./O.pbe-van_ak.UPF
     MD5 check sum: 78c19812648e8988a0fe644b0f25305e
     Pseudo is Ultrasoft, Zval =  6.0
     Generated by new atomic code, or converted to UPF format
     Using radial grid of  737 points,  4 beta functions with: 
                l(1) =   0
                l(2) =   0
                l(3) =   1
                l(4) =   1
     Q(r) pseudized with  8 coefficients,  rinner =    0.800   0.800   0.800


     atomic species   valence    mass     pseudopotential
     H                 1.00     1.00800     H ( 1.00)
     O                 6.00    16.00000     O ( 1.00)

      4 Sym. Ops., with inversion, found



   Cartesian axes

     site n.     atom                  positions (alat units)
         1        O      tau(   1) = (   0.0000000   0.2500000   0.8763462  )
         2        O      tau(   2) = (   0.0000000   0.7500000   0.5658510  )
         3        O      tau(   3) = (   0.5000000   0.7500000   0.1552476  )
         4        O      tau(   4) = (   0.5000000   0.2500000   1.2869495  )
         5        O      tau(   5) = (   0.0000000   0.7500000   1.2368921  )
         6        O      tau(   6) = (   0.0000000   0.2500000   0.2053051  )
         7        O      tau(   7) = (   0.5000000   0.2500000   0.5157934  )
         8        O      tau(   8) = (   0.5000000   0.7500000   0.9264037  )
         9        H      tau(   9) = (   0.0000000   0.4175939   1.0039395  )
        10        H      tau(  10) = (   0.0000000   0.5824060   0.4382577  )
        11        H      tau(  11) = (   0.5000000   0.5824060   0.2828409  )
        12        H      tau(  12) = (   0.5000000   0.4175939   1.1593562  )
        13        H      tau(  13) = (   0.8324057   0.7500000   1.3644894  )
        14        H      tau(  14) = (   0.1675943   0.2500000   0.0777077  )
        15        H      tau(  15) = (   0.6675943   0.2500000   0.6433908  )
        16        H      tau(  16) = (   0.3324057   0.7500000   0.7988063  )
        17        H      tau(  17) = (   0.6675943   0.7500000   0.7988063  )
        18        H      tau(  18) = (   0.3324057   0.2500000   0.6433908  )
        19        H      tau(  19) = (   0.8324057   0.2500000   0.0777077  )
        20        H      tau(  20) = (   0.1675943   0.7500000   1.3644894  )
        21        H      tau(  21) = (   0.5000000   0.9175940   0.2828409  )
        22        H      tau(  22) = (   0.5000000   0.0824061   1.1593562  )
        23        H      tau(  23) = (   0.0000000   0.0824061   1.0039395  )
        24        H      tau(  24) = (   0.0000000   0.9175940   0.4382577  )

     number of k points=   144

     Number of k-points >= 100: set verbosity='high' to print them.

     Dense  grid:   122727 G-vectors     FFT dimensions: (  60,  60,  80)

     Estimated max dynamical RAM per process >      14.19 MB

     Estimated total dynamical RAM >       1.69 GB

     Initial potential from superposition of free atoms

     starting charge      63.9998, renormalised to      64.0000


     %%%%%%%%%%%%%%%%%%%%%%%%%%%%%%%%%%%%%%%%%%%%%%%%%%%%%%%%%%%%%%%%%%%%%%%%
     %                                                                      %
     % You are using vdW-DF, which was implemented by the Thonhauser group. %
     % Please cite the following two papers that made this development      %
     % possible and the two reviews that describe the various versions:     %
     %                                                                      %
     %   T. Thonhauser et al., PRL 115, 136402 (2015).                      %
     %   T. Thonhauser et al., PRB 76, 125112 (2007).                       %
     %   K. Berland et al., Rep. Prog. Phys. 78, 066501 (2015).             %
     %   D.C. Langreth et al., J. Phys.: Condens. Matter 21, 084203 (2009). %
     %                                                                      %
     % If you are calculating stress with vdW-DF, please also cite:         %
     %                                                                      %
     %   R. Sabatini et al., J. Phys.: Condens. Matter 24, 424209 (2012).   %
     %                                                                      %
     %%%%%%%%%%%%%%%%%%%%%%%%%%%%%%%%%%%%%%%%%%%%%%%%%%%%%%%%%%%%%%%%%%%%%%%%

     %%%%%%%%%%%%%%%%%%%%%%%%%%%%%%%%%%%%%%%%%%%%%%%%%%%%%%%%%%%%%%%%%%%%%%%%
     %                                                                      %
     %  vdW-DF NEWS:                                                        %
     %                                                                      %
     %  * vdW-DF3 is now available. DOI: 10.1021/acs.jctc.0c00471           %
     %    use with input_dft = 'vdW-DF3-opt1' or 'vdW-DF3-opt2'             %
     %                                                                      %
     %  * Unscreened and range-separated hybrid vdW-DF-cx functionals       %
     %    DOI: 10.1063/1.4986522 and 10.1088/1361-648X/ac2ad2               %
     %    use with input_dft = 'vdW-DF-cx0'    and 'vdW-DF-ahcx'            %
     %  * Unscreened and range-separated hybrid vdW-DF2-b86r functionals    %
     %    DOI: 10.1063/1.4986522 and DOI: 10.1103/PhysRevX.12.041003        %
     %    use with input_dft = 'vdW-DF2-br0' and 'vdW-DF2-ahbr'             %
     %                                                                      %
     %%%%%%%%%%%%%%%%%%%%%%%%%%%%%%%%%%%%%%%%%%%%%%%%%%%%%%%%%%%%%%%%%%%%%%%%


     Starting wfcs are   48 randomized atomic wfcs

     total cpu time spent up to now is        3.3 secs

     per-process dynamical memory:    20.7 Mb

     Self-consistent Calculation

     iteration #  1     ecut=    90.00 Ry     beta= 0.70
     Davidson diagonalization with overlap
     ethr =  1.00E-02,  avg # of iterations =  2.0

     total cpu time spent up to now is        5.3 secs

     total energy              =    -277.30216331 Ry
     estimated scf accuracy    <       3.05293532 Ry

     iteration #  2     ecut=    90.00 Ry     beta= 0.70
     Davidson diagonalization with overlap
     ethr =  4.77E-03,  avg # of iterations =  3.0

     total cpu time spent up to now is        8.0 secs

     total energy              =    -278.33344902 Ry
     estimated scf accuracy    <       2.18820036 Ry

     iteration #  3     ecut=    90.00 Ry     beta= 0.70
     Davidson diagonalization with overlap
     ethr =  3.42E-03,  avg # of iterations =  2.0

     total cpu time spent up to now is        9.9 secs

     total energy              =    -278.59259493 Ry
     estimated scf accuracy    <       0.10600096 Ry

     iteration #  4     ecut=    90.00 Ry     beta= 0.70
     Davidson diagonalization with overlap
     ethr =  1.66E-04,  avg # of iterations =  4.0

     total cpu time spent up to now is       13.0 secs

     total energy              =    -278.67505434 Ry
     estimated scf accuracy    <       0.12489451 Ry

     iteration #  5     ecut=    90.00 Ry     beta= 0.70
     Davidson diagonalization with overlap
     ethr =  1.66E-04,  avg # of iterations =  1.4

     total cpu time spent up to now is       14.6 secs

     total energy              =    -278.67479415 Ry
     estimated scf accuracy    <       0.02273693 Ry

     iteration #  6     ecut=    90.00 Ry     beta= 0.70
     Davidson diagonalization with overlap
     ethr =  3.55E-05,  avg # of iterations =  2.0

     total cpu time spent up to now is       16.6 secs

     total energy              =    -278.67896258 Ry
     estimated scf accuracy    <       0.00147177 Ry

     iteration #  7     ecut=    90.00 Ry     beta= 0.70
     Davidson diagonalization with overlap
     ethr =  2.30E-06,  avg # of iterations =  2.1

     total cpu time spent up to now is       18.6 secs

     total energy              =    -278.67894023 Ry
     estimated scf accuracy    <       0.00040871 Ry

     iteration #  8     ecut=    90.00 Ry     beta= 0.70
     Davidson diagonalization with overlap
     ethr =  6.39E-07,  avg # of iterations =  3.0

     total cpu time spent up to now is       21.0 secs

     total energy              =    -278.67907028 Ry
     estimated scf accuracy    <       0.00004126 Ry

     iteration #  9     ecut=    90.00 Ry     beta= 0.70
     Davidson diagonalization with overlap
     ethr =  6.45E-08,  avg # of iterations =  2.1

     total cpu time spent up to now is       23.1 secs

     total energy              =    -278.67908078 Ry
     estimated scf accuracy    <       0.00001196 Ry

     iteration # 10     ecut=    90.00 Ry     beta= 0.70
     Davidson diagonalization with overlap
     ethr =  1.87E-08,  avg # of iterations =  3.0

     total cpu time spent up to now is       25.4 secs

     total energy              =    -278.67908364 Ry
     estimated scf accuracy    <       0.00003105 Ry

     iteration # 11     ecut=    90.00 Ry     beta= 0.70
     Davidson diagonalization with overlap
     ethr =  1.87E-08,  avg # of iterations =  1.0

     total cpu time spent up to now is       26.9 secs

     total energy              =    -278.67907857 Ry
     estimated scf accuracy    <       0.00002960 Ry

     iteration # 12     ecut=    90.00 Ry     beta= 0.70
     Davidson diagonalization with overlap
     ethr =  1.87E-08,  avg # of iterations =  1.0

     total cpu time spent up to now is       28.5 secs

     total energy              =    -278.67907718 Ry
     estimated scf accuracy    <       0.00001720 Ry

     iteration # 13     ecut=    90.00 Ry     beta= 0.70
     Davidson diagonalization with overlap
     ethr =  1.87E-08,  avg # of iterations =  1.0

     total cpu time spent up to now is       30.0 secs

     total energy              =    -278.67907404 Ry
     estimated scf accuracy    <       0.00001058 Ry

     iteration # 14     ecut=    90.00 Ry     beta= 0.70
     Davidson diagonalization with overlap
     ethr =  1.65E-08,  avg # of iterations =  1.4

     total cpu time spent up to now is       31.6 secs

     total energy              =    -278.67907391 Ry
     estimated scf accuracy    <       0.00000212 Ry

     iteration # 15     ecut=    90.00 Ry     beta= 0.70
     Davidson diagonalization with overlap
     ethr =  3.32E-09,  avg # of iterations =  3.0

     total cpu time spent up to now is       33.9 secs

     End of self-consistent calculation

     Number of k-points >= 100: set verbosity='high' to print the bands.

     highest occupied level (ev):    -0.9179

!    total energy              =    -278.67907464 Ry
     estimated scf accuracy    <       0.00000004 Ry

     The total energy is the sum of the following terms:
     one-electron contribution =    -130.60942877 Ry
     hartree contribution      =      92.21941564 Ry
     xc contribution           =     -70.48728050 Ry
     ewald contribution        =    -169.80178101 Ry

     convergence has been achieved in  15 iterations

     Forces acting on atoms (cartesian axes, Ry/au):

     atom    1 type  2   force =    -0.00000000    0.00000001    0.02991099
     atom    2 type  2   force =    -0.00000000   -0.00000001   -0.02991099
     atom    3 type  2   force =     0.00000000   -0.00000008    0.02993937
     atom    4 type  2   force =     0.00000000    0.00000008   -0.02993937
     atom    5 type  2   force =     0.00000000   -0.00000003    0.02994002
     atom    6 type  2   force =     0.00000000    0.00000003   -0.02994002
     atom    7 type  2   force =     0.00000000   -0.00000008    0.02993876
     atom    8 type  2   force =     0.00000000    0.00000008   -0.02993876
     atom    9 type  1   force =     0.00000000   -0.02005663   -0.01455118
     atom   10 type  1   force =     0.00000000    0.02005663    0.01455118
     atom   11 type  1   force =     0.00000000    0.02005313   -0.01454660
     atom   12 type  1   force =     0.00000000   -0.02005313    0.01454660
     atom   13 type  1   force =     0.02006815    0.00000001   -0.01456428
     atom   14 type  1   force =    -0.02006815   -0.00000001    0.01456428
     atom   15 type  1   force =    -0.02006730    0.00000001   -0.01456415
     atom   16 type  1   force =     0.02006730   -0.00000001    0.01456415
     atom   17 type  1   force =    -0.02006730   -0.00000001    0.01456415
     atom   18 type  1   force =     0.02006730    0.00000001   -0.01456415
     atom   19 type  1   force =     0.02006815   -0.00000001    0.01456428
     atom   20 type  1   force =    -0.02006815    0.00000001   -0.01456428
     atom   21 type  1   force =     0.00000000   -0.02005312   -0.01454660
     atom   22 type  1   force =     0.00000000    0.02005312    0.01454660
     atom   23 type  1   force =     0.00000000    0.02005664   -0.01455116
     atom   24 type  1   force =     0.00000000   -0.02005664    0.01455116

     Total force =     0.130373     Total SCF correction =     0.000120


     Computing stress (Cartesian axis) and pressure

          total   stress  (Ry/bohr**3)                   (kbar)     P=      -23.93
  -0.00015437   0.00000000   0.00000000          -22.71        0.00        0.00
   0.00000000  -0.00015421   0.00000000            0.00      -22.69        0.00
   0.00000000   0.00000000  -0.00017953            0.00        0.00      -26.41


     Writing all to output data dir ./iceVIII/iceVIII.save/ :
     XML data file, charge density, pseudopotentials, collected wavefunctions

     init_run     :      2.95s CPU      3.03s WALL (       1 calls)
     electrons    :     29.90s CPU     30.64s WALL (       1 calls)
     forces       :      0.14s CPU      0.15s WALL (       1 calls)
     stress       :      1.76s CPU      1.78s WALL (       1 calls)

     Called by init_run:
     wfcinit      :      0.90s CPU      0.92s WALL (       1 calls)
     potinit      :      1.55s CPU      1.59s WALL (       1 calls)
     hinit0       :      0.44s CPU      0.45s WALL (       1 calls)

     Called by electrons:
     c_bands      :     25.61s CPU     26.14s WALL (      15 calls)
     sum_band     :      3.58s CPU      3.67s WALL (      15 calls)
     v_of_rho     :      2.18s CPU      2.29s WALL (      16 calls)
     newd         :      0.02s CPU      0.03s WALL (      16 calls)
     mix_rho      :      0.03s CPU      0.03s WALL (      15 calls)
     vdW_kernel   :      1.50s CPU      1.51s WALL (       1 calls)

     Called by c_bands:
     init_us_2    :      0.38s CPU      0.39s WALL (    1188 calls)
     cegterg      :     24.65s CPU     24.98s WALL (     540 calls)

     Called by *egterg:
     cdiaghg      :      2.69s CPU      2.72s WALL (    1680 calls)
     h_psi        :     19.21s CPU     19.49s WALL (    1716 calls)
     s_psi        :      0.70s CPU      0.72s WALL (    1716 calls)
     g_psi        :      0.06s CPU      0.06s WALL (    1140 calls)

     Called by h_psi:
     h_psi:calbec :      0.99s CPU      1.00s WALL (    1716 calls)
     vloc_psi     :     17.37s CPU     17.62s WALL (    1716 calls)
     add_vuspsi   :      0.75s CPU      0.77s WALL (    1716 calls)

     General routines
     calbec       :      1.38s CPU      1.41s WALL (    2436 calls)
     fft          :      0.75s CPU      0.78s WALL (    1028 calls)
     ffts         :      0.01s CPU      0.01s WALL (      15 calls)
     fftw         :     18.52s CPU     18.80s WALL (  113994 calls)

     Parallel routines

     PWSCF        :     35.44s CPU     37.03s WALL


   This run was terminated on:  16: 6:53  26Mar2026            

=------------------------------------------------------------------------------=
   JOB DONE.
=------------------------------------------------------------------------------=
