
     Program PWSCF v.7.3.1 starts on 26Mar2026 at 16: 6:55 

     This program is part of the open-source Quantum ESPRESSO suite
     for quantum simulation of materials; please cite
         "P. Giannozzi et al., J. Phys.:Condens. Matter 21 395502 (2009);
         "P. Giannozzi et al., J. Phys.:Condens. Matter 29 465901 (2017);
         "P. Giannozzi et al., J. Chem. Phys. 152 154105 (2020);
          URL http://www.quantum-espresso.org", 
     in publications or presentations arising from this work. More details at
     http://www.quantum-espresso.org/quote

     Parallel version (MPI), running on   128 processors

     MPI processes distributed on     1 nodes
     241917 MiB available memory on the printing compute node when the environment starts

     Waiting for input...
     Reading input from standard input

     Current dimensions of program PWSCF are:
     Max number of different atomic species (ntypx) = 10
     Max number of k-points (npk) =  40000
     Max angular momentum in pseudopotentials (lmaxx) =  4

     IMPORTANT: XC functional enforced from input :
     Exchange-correlation= VDW-DF2
                           (   1   4  13   0   2   0   0)
     Any further DFT definition will be discarded
     Please, verify this is what you really want

     Found identity + ( -0.5000 -0.5000 -0.5000) symmetry
     This is a supercell, fractional translations are disabled

     K-points division:     npool     =       4
     R & G space division:  proc/nbgrp/npool/nimage =      32
     Subspace diagonalization in iterative solution of the eigenvalue problem:
     a serial algorithm will be used


     Parallelization info
     --------------------
     sticks:   dense  smooth     PW     G-vecs:    dense   smooth      PW
     Min          73      73     20                 3857     3857     560
     Max          74      74     21                 3860     3860     565
     Sum        2361    2361    657               123463   123463   17961

     Using Slab Decomposition



     bravais-lattice index     =            6
     lattice parameter (alat)  =       9.0536  a.u.
     unit-cell volume          =    1070.2453 (a.u.)^3
     number of atoms/cell      =           24
     number of atomic types    =            2
     number of electrons       =        64.00
     number of Kohn-Sham states=           32
     kinetic-energy cutoff     =      90.0000  Ry
     charge density cutoff     =     360.0000  Ry
     scf convergence threshold =      1.0E-07
     mixing beta               =       0.7000
     number of iterations used =            8  plain     mixing
     Exchange-correlation= VDW-DF2
                           (   1   4  13   0   2   0   0)

     celldm(1)=   9.053564  celldm(2)=   0.000000  celldm(3)=   1.442197
     celldm(4)=   0.000000  celldm(5)=   0.000000  celldm(6)=   0.000000

     crystal axes: (cart. coord. in units of alat)
               a(1) = (   1.000000   0.000000   0.000000 )  
               a(2) = (   0.000000   1.000000   0.000000 )  
               a(3) = (   0.000000   0.000000   1.442197 )  

     reciprocal axes: (cart. coord. in units 2 pi/alat)
               b(1) = (  1.000000  0.000000  0.000000 )  
               b(2) = (  0.000000  1.000000  0.000000 )  
               b(3) = (  0.000000  0.000000  0.693386 )  


     PseudoPot. # 1 for H  read from file:
     ./H.pbe-van_ak.UPF
     MD5 check sum: 077eb6d537518a38cb46c6de387227b7
     Pseudo is Ultrasoft, Zval =  1.0
     Generated by new atomic code, or converted to UPF format
     Using radial grid of  615 points,  1 beta functions with: 
                l(1) =   0
     Q(r) pseudized with  8 coefficients,  rinner =    0.800

     PseudoPot. # 2 for O  read from file:
     ./O.pbe-van_ak.UPF
     MD5 check sum: 78c19812648e8988a0fe644b0f25305e
     Pseudo is Ultrasoft, Zval =  6.0
     Generated by new atomic code, or converted to UPF format
     Using radial grid of  737 points,  4 beta functions with: 
                l(1) =   0
                l(2) =   0
                l(3) =   1
                l(4) =   1
     Q(r) pseudized with  8 coefficients,  rinner =    0.800   0.800   0.800


     atomic species   valence    mass     pseudopotential
     H                 1.00     1.00800     H ( 1.00)
     O                 6.00    16.00000     O ( 1.00)

      4 Sym. Ops., with inversion, found



   Cartesian axes

     site n.     atom                  positions (alat units)
         1        O      tau(   1) = (   0.0000000   0.2500000   0.8763462  )
         2        O      tau(   2) = (   0.0000000   0.7500000   0.5658510  )
         3        O      tau(   3) = (   0.5000000   0.7500000   0.1552476  )
         4        O      tau(   4) = (   0.5000000   0.2500000   1.2869495  )
         5        O      tau(   5) = (   0.0000000   0.7500000   1.2368921  )
         6        O      tau(   6) = (   0.0000000   0.2500000   0.2053051  )
         7        O      tau(   7) = (   0.5000000   0.2500000   0.5157934  )
         8        O      tau(   8) = (   0.5000000   0.7500000   0.9264037  )
         9        H      tau(   9) = (   0.0000000   0.4175939   1.0039395  )
        10        H      tau(  10) = (   0.0000000   0.5824060   0.4382577  )
        11        H      tau(  11) = (   0.5000000   0.5824060   0.2828409  )
        12        H      tau(  12) = (   0.5000000   0.4175939   1.1593562  )
        13        H      tau(  13) = (   0.8324057   0.7500000   1.3644894  )
        14        H      tau(  14) = (   0.1675943   0.2500000   0.0777077  )
        15        H      tau(  15) = (   0.6675943   0.2500000   0.6433908  )
        16        H      tau(  16) = (   0.3324057   0.7500000   0.7988063  )
        17        H      tau(  17) = (   0.6675943   0.7500000   0.7988063  )
        18        H      tau(  18) = (   0.3324057   0.2500000   0.6433908  )
        19        H      tau(  19) = (   0.8324057   0.2500000   0.0777077  )
        20        H      tau(  20) = (   0.1675943   0.7500000   1.3644894  )
        21        H      tau(  21) = (   0.5000000   0.9175940   0.2828409  )
        22        H      tau(  22) = (   0.5000000   0.0824061   1.1593562  )
        23        H      tau(  23) = (   0.0000000   0.0824061   1.0039395  )
        24        H      tau(  24) = (   0.0000000   0.9175940   0.4382577  )

     number of k points=   144

     Number of k-points >= 100: set verbosity='high' to print them.

     Dense  grid:   123463 G-vectors     FFT dimensions: (  60,  60,  80)

     Estimated max dynamical RAM per process >      14.27 MB

     Estimated total dynamical RAM >       1.70 GB

     Initial potential from superposition of free atoms

     starting charge      63.9998, renormalised to      64.0000


     %%%%%%%%%%%%%%%%%%%%%%%%%%%%%%%%%%%%%%%%%%%%%%%%%%%%%%%%%%%%%%%%%%%%%%%%
     %                                                                      %
     % You are using vdW-DF, which was implemented by the Thonhauser group. %
     % Please cite the following two papers that made this development      %
     % possible and the two reviews that describe the various versions:     %
     %                                                                      %
     %   T. Thonhauser et al., PRL 115, 136402 (2015).                      %
     %   T. Thonhauser et al., PRB 76, 125112 (2007).                       %
     %   K. Berland et al., Rep. Prog. Phys. 78, 066501 (2015).             %
     %   D.C. Langreth et al., J. Phys.: Condens. Matter 21, 084203 (2009). %
     %                                                                      %
     % If you are calculating stress with vdW-DF, please also cite:         %
     %                                                                      %
     %   R. Sabatini et al., J. Phys.: Condens. Matter 24, 424209 (2012).   %
     %                                                                      %
     %%%%%%%%%%%%%%%%%%%%%%%%%%%%%%%%%%%%%%%%%%%%%%%%%%%%%%%%%%%%%%%%%%%%%%%%

     %%%%%%%%%%%%%%%%%%%%%%%%%%%%%%%%%%%%%%%%%%%%%%%%%%%%%%%%%%%%%%%%%%%%%%%%
     %                                                                      %
     %  vdW-DF NEWS:                                                        %
     %                                                                      %
     %  * vdW-DF3 is now available. DOI: 10.1021/acs.jctc.0c00471           %
     %    use with input_dft = 'vdW-DF3-opt1' or 'vdW-DF3-opt2'             %
     %                                                                      %
     %  * Unscreened and range-separated hybrid vdW-DF-cx functionals       %
     %    DOI: 10.1063/1.4986522 and 10.1088/1361-648X/ac2ad2               %
     %    use with input_dft = 'vdW-DF-cx0'    and 'vdW-DF-ahcx'            %
     %  * Unscreened and range-separated hybrid vdW-DF2-b86r functionals    %
     %    DOI: 10.1063/1.4986522 and DOI: 10.1103/PhysRevX.12.041003        %
     %    use with input_dft = 'vdW-DF2-br0' and 'vdW-DF2-ahbr'             %
     %                                                                      %
     %%%%%%%%%%%%%%%%%%%%%%%%%%%%%%%%%%%%%%%%%%%%%%%%%%%%%%%%%%%%%%%%%%%%%%%%


     Starting wfcs are   48 randomized atomic wfcs

     total cpu time spent up to now is        3.3 secs

     per-process dynamical memory:    20.9 Mb

     Self-consistent Calculation

     iteration #  1     ecut=    90.00 Ry     beta= 0.70
     Davidson diagonalization with overlap
     ethr =  1.00E-02,  avg # of iterations =  2.0

     total cpu time spent up to now is        5.3 secs

     total energy              =    -277.30189286 Ry
     estimated scf accuracy    <       3.04687917 Ry

     iteration #  2     ecut=    90.00 Ry     beta= 0.70
     Davidson diagonalization with overlap
     ethr =  4.76E-03,  avg # of iterations =  3.0

     total cpu time spent up to now is        8.0 secs

     total energy              =    -278.32987984 Ry
     estimated scf accuracy    <       2.20450418 Ry

     iteration #  3     ecut=    90.00 Ry     beta= 0.70
     Davidson diagonalization with overlap
     ethr =  3.44E-03,  avg # of iterations =  2.0

     total cpu time spent up to now is       10.0 secs

     total energy              =    -278.59082165 Ry
     estimated scf accuracy    <       0.10717514 Ry

     iteration #  4     ecut=    90.00 Ry     beta= 0.70
     Davidson diagonalization with overlap
     ethr =  1.67E-04,  avg # of iterations =  4.0

     total cpu time spent up to now is       13.0 secs

     total energy              =    -278.67432412 Ry
     estimated scf accuracy    <       0.12565102 Ry

     iteration #  5     ecut=    90.00 Ry     beta= 0.70
     Davidson diagonalization with overlap
     ethr =  1.67E-04,  avg # of iterations =  1.4

     total cpu time spent up to now is       14.6 secs

     total energy              =    -278.67401056 Ry
     estimated scf accuracy    <       0.02298410 Ry

     iteration #  6     ecut=    90.00 Ry     beta= 0.70
     Davidson diagonalization with overlap
     ethr =  3.59E-05,  avg # of iterations =  2.0

     total cpu time spent up to now is       16.7 secs

     total energy              =    -278.67817308 Ry
     estimated scf accuracy    <       0.00150511 Ry

     iteration #  7     ecut=    90.00 Ry     beta= 0.70
     Davidson diagonalization with overlap
     ethr =  2.35E-06,  avg # of iterations =  2.0

     total cpu time spent up to now is       18.6 secs

     total energy              =    -278.67814799 Ry
     estimated scf accuracy    <       0.00041873 Ry

     iteration #  8     ecut=    90.00 Ry     beta= 0.70
     Davidson diagonalization with overlap
     ethr =  6.54E-07,  avg # of iterations =  3.0

     total cpu time spent up to now is       21.0 secs

     total energy              =    -278.67827924 Ry
     estimated scf accuracy    <       0.00003171 Ry

     iteration #  9     ecut=    90.00 Ry     beta= 0.70
     Davidson diagonalization with overlap
     ethr =  4.95E-08,  avg # of iterations =  2.0

     total cpu time spent up to now is       23.0 secs

     total energy              =    -278.67828610 Ry
     estimated scf accuracy    <       0.00001051 Ry

     iteration # 10     ecut=    90.00 Ry     beta= 0.70
     Davidson diagonalization with overlap
     ethr =  1.64E-08,  avg # of iterations =  3.0

     total cpu time spent up to now is       25.3 secs

     total energy              =    -278.67828920 Ry
     estimated scf accuracy    <       0.00002474 Ry

     iteration # 11     ecut=    90.00 Ry     beta= 0.70
     Davidson diagonalization with overlap
     ethr =  1.64E-08,  avg # of iterations =  1.0

     total cpu time spent up to now is       26.9 secs

     total energy              =    -278.67828477 Ry
     estimated scf accuracy    <       0.00002501 Ry

     iteration # 12     ecut=    90.00 Ry     beta= 0.70
     Davidson diagonalization with overlap
     ethr =  1.64E-08,  avg # of iterations =  1.0

     total cpu time spent up to now is       28.4 secs

     total energy              =    -278.67828405 Ry
     estimated scf accuracy    <       0.00001425 Ry

     iteration # 13     ecut=    90.00 Ry     beta= 0.70
     Davidson diagonalization with overlap
     ethr =  1.64E-08,  avg # of iterations =  1.0

     total cpu time spent up to now is       29.9 secs

     total energy              =    -278.67828023 Ry
     estimated scf accuracy    <       0.00001004 Ry

     iteration # 14     ecut=    90.00 Ry     beta= 0.70
     Davidson diagonalization with overlap
     ethr =  1.57E-08,  avg # of iterations =  2.0

     total cpu time spent up to now is       31.9 secs

     total energy              =    -278.67828111 Ry
     estimated scf accuracy    <       0.00000085 Ry

     iteration # 15     ecut=    90.00 Ry     beta= 0.70
     Davidson diagonalization with overlap
     ethr =  1.33E-09,  avg # of iterations =  3.1

     total cpu time spent up to now is       34.5 secs

     End of self-consistent calculation

     Number of k-points >= 100: set verbosity='high' to print the bands.

     highest occupied level (ev):    -0.9567

!    total energy              =    -278.67828154 Ry
     estimated scf accuracy    <       0.00000007 Ry

     The total energy is the sum of the following terms:
     one-electron contribution =    -131.17528355 Ry
     hartree contribution      =      92.41654270 Ry
     xc contribution           =     -70.45070435 Ry
     ewald contribution        =    -169.46883634 Ry

     convergence has been achieved in  15 iterations

     Forces acting on atoms (cartesian axes, Ry/au):

     atom    1 type  2   force =    -0.00000000    0.00000017    0.03304005
     atom    2 type  2   force =    -0.00000000   -0.00000017   -0.03304005
     atom    3 type  2   force =     0.00000000    0.00000008    0.03304073
     atom    4 type  2   force =     0.00000000   -0.00000008   -0.03304073
     atom    5 type  2   force =     0.00000000    0.00000002    0.03307128
     atom    6 type  2   force =     0.00000000   -0.00000002   -0.03307128
     atom    7 type  2   force =     0.00000000    0.00000010    0.03307149
     atom    8 type  2   force =     0.00000000   -0.00000010   -0.03307149
     atom    9 type  1   force =     0.00000000   -0.02236040   -0.01608072
     atom   10 type  1   force =     0.00000000    0.02236040    0.01608072
     atom   11 type  1   force =     0.00000000    0.02236026   -0.01608073
     atom   12 type  1   force =     0.00000000   -0.02236026    0.01608073
     atom   13 type  1   force =     0.02237286    0.00000000   -0.01609500
     atom   14 type  1   force =    -0.02237286   -0.00000000    0.01609500
     atom   15 type  1   force =    -0.02237323    0.00000000   -0.01609507
     atom   16 type  1   force =     0.02237323   -0.00000000    0.01609507
     atom   17 type  1   force =    -0.02237323   -0.00000000    0.01609507
     atom   18 type  1   force =     0.02237323    0.00000000   -0.01609507
     atom   19 type  1   force =     0.02237286   -0.00000000    0.01609500
     atom   20 type  1   force =    -0.02237286    0.00000000   -0.01609500
     atom   21 type  1   force =     0.00000000   -0.02236023   -0.01608073
     atom   22 type  1   force =     0.00000000    0.02236023    0.01608073
     atom   23 type  1   force =     0.00000000    0.02236042   -0.01608073
     atom   24 type  1   force =     0.00000000   -0.02236042    0.01608073

     Total force =     0.144523     Total SCF correction =     0.000454


     Computing stress (Cartesian axis) and pressure

          total   stress  (Ry/bohr**3)                   (kbar)     P=      -30.08
  -0.00019570   0.00000000   0.00000000          -28.79        0.00        0.00
   0.00000000  -0.00019559   0.00000000            0.00      -28.77        0.00
   0.00000000   0.00000000  -0.00022218            0.00        0.00      -32.68


     Writing all to output data dir ./iceVIII/iceVIII.save/ :
     XML data file, charge density, pseudopotentials, collected wavefunctions

     init_run     :      2.97s CPU      3.04s WALL (       1 calls)
     electrons    :     30.58s CPU     31.33s WALL (       1 calls)
     forces       :      0.14s CPU      0.15s WALL (       1 calls)
     stress       :      1.77s CPU      1.80s WALL (       1 calls)

     Called by init_run:
     wfcinit      :      0.90s CPU      0.92s WALL (       1 calls)
     potinit      :      1.58s CPU      1.59s WALL (       1 calls)
     hinit0       :      0.43s CPU      0.45s WALL (       1 calls)

     Called by electrons:
     c_bands      :     26.27s CPU     26.81s WALL (      15 calls)
     sum_band     :      3.60s CPU      3.67s WALL (      15 calls)
     v_of_rho     :      2.20s CPU      2.30s WALL (      16 calls)
     newd         :      0.01s CPU      0.03s WALL (      16 calls)
     mix_rho      :      0.03s CPU      0.03s WALL (      15 calls)
     vdW_kernel   :      1.51s CPU      1.51s WALL (       1 calls)

     Called by c_bands:
     init_us_2    :      0.37s CPU      0.39s WALL (    1188 calls)
     cegterg      :     25.38s CPU     25.72s WALL (     540 calls)

     Called by *egterg:
     cdiaghg      :      2.77s CPU      2.79s WALL (    1718 calls)
     h_psi        :     19.69s CPU     20.00s WALL (    1754 calls)
     s_psi        :      0.72s CPU      0.73s WALL (    1754 calls)
     g_psi        :      0.06s CPU      0.06s WALL (    1178 calls)

     Called by h_psi:
     h_psi:calbec :      1.03s CPU      1.04s WALL (    1754 calls)
     vloc_psi     :     17.81s CPU     18.10s WALL (    1754 calls)
     add_vuspsi   :      0.76s CPU      0.76s WALL (    1754 calls)

     General routines
     calbec       :      1.47s CPU      1.50s WALL (    2474 calls)
     fft          :      0.78s CPU      0.79s WALL (    1028 calls)
     ffts         :      0.00s CPU      0.01s WALL (      15 calls)
     fftw         :     18.93s CPU     19.24s WALL (  116036 calls)

     Parallel routines

     PWSCF        :     36.25s CPU     37.94s WALL


   This run was terminated on:  16: 7:33  26Mar2026            

=------------------------------------------------------------------------------=
   JOB DONE.
=------------------------------------------------------------------------------=
