
     Program PWSCF v.7.3.1 starts on  1Apr2026 at 15:25: 0 

     This program is part of the open-source Quantum ESPRESSO suite
     for quantum simulation of materials; please cite
         "P. Giannozzi et al., J. Phys.:Condens. Matter 21 395502 (2009);
         "P. Giannozzi et al., J. Phys.:Condens. Matter 29 465901 (2017);
         "P. Giannozzi et al., J. Chem. Phys. 152 154105 (2020);
          URL http://www.quantum-espresso.org", 
     in publications or presentations arising from this work. More details at
     http://www.quantum-espresso.org/quote

     Parallel version (MPI), running on   128 processors

     MPI processes distributed on     1 nodes
     241778 MiB available memory on the printing compute node when the environment starts

     Waiting for input...
     Reading input from standard input

     Current dimensions of program PWSCF are:
     Max number of different atomic species (ntypx) = 10
     Max number of k-points (npk) =  40000
     Max angular momentum in pseudopotentials (lmaxx) =  4

     IMPORTANT: XC functional enforced from input :
     Exchange-correlation= VDW-DF2
                           (   1   4  13   0   2   0   0)
     Any further DFT definition will be discarded
     Please, verify this is what you really want

     Found identity + ( -0.5000 -0.5000  0.5000) symmetry
     This is a supercell, fractional translations are disabled

     K-points division:     npool     =       4
     R & G space division:  proc/nbgrp/npool/nimage =      32
     Subspace diagonalization in iterative solution of the eigenvalue problem:
     a serial algorithm will be used


     Parallelization info
     --------------------
     sticks:   dense  smooth     PW     G-vecs:    dense   smooth      PW
     Min          74      74     20                 3939     3939     570
     Max          75      75     21                 3943     3943     575
     Sum        2385    2385    665               126087   126087   18345

     Using Slab Decomposition



     bravais-lattice index     =            6
     lattice parameter (alat)  =       9.1157  a.u.
     unit-cell volume          =    1092.4313 (a.u.)^3
     number of atoms/cell      =           24
     number of atomic types    =            2
     number of electrons       =        64.00
     number of Kohn-Sham states=           32
     kinetic-energy cutoff     =      90.0000  Ry
     charge density cutoff     =     360.0000  Ry
     scf convergence threshold =      1.0E-07
     mixing beta               =       0.7000
     number of iterations used =            8  plain     mixing
     energy convergence thresh.=      1.0E-04
     force convergence thresh. =      1.0E-03
     Exchange-correlation= VDW-DF2
                           (   1   4  13   0   2   0   0)
     nstep                     =           50


     celldm(1)=   9.115696  celldm(2)=   0.000000  celldm(3)=   1.442197
     celldm(4)=   0.000000  celldm(5)=   0.000000  celldm(6)=   0.000000

     crystal axes: (cart. coord. in units of alat)
               a(1) = (   1.000000   0.000000   0.000000 )  
               a(2) = (   0.000000   1.000000   0.000000 )  
               a(3) = (   0.000000   0.000000   1.442197 )  

     reciprocal axes: (cart. coord. in units 2 pi/alat)
               b(1) = (  1.000000  0.000000  0.000000 )  
               b(2) = (  0.000000  1.000000  0.000000 )  
               b(3) = (  0.000000  0.000000  0.693386 )  


     PseudoPot. # 1 for H  read from file:
     ./H.pbe-van_ak.UPF
     MD5 check sum: 077eb6d537518a38cb46c6de387227b7
     Pseudo is Ultrasoft, Zval =  1.0
     Generated by new atomic code, or converted to UPF format
     Using radial grid of  615 points,  1 beta functions with: 
                l(1) =   0
     Q(r) pseudized with  8 coefficients,  rinner =    0.800

     PseudoPot. # 2 for O  read from file:
     ./O.pbe-van_ak.UPF
     MD5 check sum: 78c19812648e8988a0fe644b0f25305e
     Pseudo is Ultrasoft, Zval =  6.0
     Generated by new atomic code, or converted to UPF format
     Using radial grid of  737 points,  4 beta functions with: 
                l(1) =   0
                l(2) =   0
                l(3) =   1
                l(4) =   1
     Q(r) pseudized with  8 coefficients,  rinner =    0.800   0.800   0.800


     atomic species   valence    mass     pseudopotential
     H                 1.00     1.00800     H ( 1.00)
     O                 6.00    16.00000     O ( 1.00)

      4 Sym. Ops., with inversion, found



   Cartesian axes

     site n.     atom                  positions (alat units)
         1        O      tau(   1) = (   0.0000000   0.2500000   0.8781106  )
         2        O      tau(   2) = (   0.0000000   0.7500000   0.5640866  )
         3        O      tau(   3) = (   0.5000000   0.7500000   0.1570120  )
         4        O      tau(   4) = (   0.5000000   0.2500000   1.2851851  )
         5        O      tau(   5) = (   0.0000000   0.7500000   1.2386599  )
         6        O      tau(   6) = (   0.0000000   0.2500000   0.2035373  )
         7        O      tau(   7) = (   0.5000000   0.2500000   0.5175613  )
         8        O      tau(   8) = (   0.5000000   0.7500000   0.9246358  )
         9        H      tau(   9) = (   0.0000000   0.4142500   1.0027885  )
        10        H      tau(  10) = (   0.0000000   0.5857500   0.4394086  )
        11        H      tau(  11) = (   0.5000000   0.5857500   0.2816900  )
        12        H      tau(  12) = (   0.5000000   0.4142500   1.1605072  )
        13        H      tau(  13) = (   0.8357500   0.7500000   1.3633378  )
        14        H      tau(  14) = (   0.1642500   0.2500000   0.0788593  )
        15        H      tau(  15) = (   0.6642500   0.2500000   0.6422392  )
        16        H      tau(  16) = (   0.3357500   0.7500000   0.7999579  )
        17        H      tau(  17) = (   0.6642500   0.7500000   0.7999579  )
        18        H      tau(  18) = (   0.3357500   0.2500000   0.6422392  )
        19        H      tau(  19) = (   0.8357500   0.2500000   0.0788593  )
        20        H      tau(  20) = (   0.1642500   0.7500000   1.3633378  )
        21        H      tau(  21) = (   0.5000000   0.9142500   0.2816900  )
        22        H      tau(  22) = (   0.5000000   0.0857500   1.1605072  )
        23        H      tau(  23) = (   0.0000000   0.0857500   1.0027885  )
        24        H      tau(  24) = (   0.0000000   0.9142500   0.4394086  )

     number of k points=   144

     Number of k-points >= 100: set verbosity='high' to print them.

     Dense  grid:   126087 G-vectors     FFT dimensions: (  60,  60,  80)

     Estimated max dynamical RAM per process >      14.53 MB

     Estimated total dynamical RAM >       1.73 GB

     Initial potential from superposition of free atoms

     starting charge      63.9998, renormalised to      64.0000


     %%%%%%%%%%%%%%%%%%%%%%%%%%%%%%%%%%%%%%%%%%%%%%%%%%%%%%%%%%%%%%%%%%%%%%%%
     %                                                                      %
     % You are using vdW-DF, which was implemented by the Thonhauser group. %
     % Please cite the following two papers that made this development      %
     % possible and the two reviews that describe the various versions:     %
     %                                                                      %
     %   T. Thonhauser et al., PRL 115, 136402 (2015).                      %
     %   T. Thonhauser et al., PRB 76, 125112 (2007).                       %
     %   K. Berland et al., Rep. Prog. Phys. 78, 066501 (2015).             %
     %   D.C. Langreth et al., J. Phys.: Condens. Matter 21, 084203 (2009). %
     %                                                                      %
     % If you are calculating stress with vdW-DF, please also cite:         %
     %                                                                      %
     %   R. Sabatini et al., J. Phys.: Condens. Matter 24, 424209 (2012).   %
     %                                                                      %
     %%%%%%%%%%%%%%%%%%%%%%%%%%%%%%%%%%%%%%%%%%%%%%%%%%%%%%%%%%%%%%%%%%%%%%%%

     %%%%%%%%%%%%%%%%%%%%%%%%%%%%%%%%%%%%%%%%%%%%%%%%%%%%%%%%%%%%%%%%%%%%%%%%
     %                                                                      %
     %  vdW-DF NEWS:                                                        %
     %                                                                      %
     %  * vdW-DF3 is now available. DOI: 10.1021/acs.jctc.0c00471           %
     %    use with input_dft = 'vdW-DF3-opt1' or 'vdW-DF3-opt2'             %
     %                                                                      %
     %  * Unscreened and range-separated hybrid vdW-DF-cx functionals       %
     %    DOI: 10.1063/1.4986522 and 10.1088/1361-648X/ac2ad2               %
     %    use with input_dft = 'vdW-DF-cx0'    and 'vdW-DF-ahcx'            %
     %  * Unscreened and range-separated hybrid vdW-DF2-b86r functionals    %
     %    DOI: 10.1063/1.4986522 and DOI: 10.1103/PhysRevX.12.041003        %
     %    use with input_dft = 'vdW-DF2-br0' and 'vdW-DF2-ahbr'             %
     %                                                                      %
     %%%%%%%%%%%%%%%%%%%%%%%%%%%%%%%%%%%%%%%%%%%%%%%%%%%%%%%%%%%%%%%%%%%%%%%%


     Starting wfcs are   48 randomized atomic wfcs

     total cpu time spent up to now is        3.3 secs

     per-process dynamical memory:    20.9 Mb

     Self-consistent Calculation

     iteration #  1     ecut=    90.00 Ry     beta= 0.70
     Davidson diagonalization with overlap
     ethr =  1.00E-02,  avg # of iterations =  2.0

     total cpu time spent up to now is        5.3 secs

     total energy              =    -277.26564988 Ry
     estimated scf accuracy    <       3.15602118 Ry

     iteration #  2     ecut=    90.00 Ry     beta= 0.70
     Davidson diagonalization with overlap
     ethr =  4.93E-03,  avg # of iterations =  3.0

     total cpu time spent up to now is        8.0 secs

     total energy              =    -278.32851470 Ry
     estimated scf accuracy    <       2.26177271 Ry

     iteration #  3     ecut=    90.00 Ry     beta= 0.70
     Davidson diagonalization with overlap
     ethr =  3.53E-03,  avg # of iterations =  2.0

     total cpu time spent up to now is       10.0 secs

     total energy              =    -278.59888381 Ry
     estimated scf accuracy    <       0.10776391 Ry

     iteration #  4     ecut=    90.00 Ry     beta= 0.70
     Davidson diagonalization with overlap
     ethr =  1.68E-04,  avg # of iterations =  4.0

     total cpu time spent up to now is       13.0 secs

     total energy              =    -278.68386700 Ry
     estimated scf accuracy    <       0.13024997 Ry

     iteration #  5     ecut=    90.00 Ry     beta= 0.70
     Davidson diagonalization with overlap
     ethr =  1.68E-04,  avg # of iterations =  1.7

     total cpu time spent up to now is       14.7 secs

     total energy              =    -278.68344426 Ry
     estimated scf accuracy    <       0.02384706 Ry

     iteration #  6     ecut=    90.00 Ry     beta= 0.70
     Davidson diagonalization with overlap
     ethr =  3.73E-05,  avg # of iterations =  2.0

     total cpu time spent up to now is       16.7 secs

     total energy              =    -278.68760309 Ry
     estimated scf accuracy    <       0.00174264 Ry

     iteration #  7     ecut=    90.00 Ry     beta= 0.70
     Davidson diagonalization with overlap
     ethr =  2.72E-06,  avg # of iterations =  2.0

     total cpu time spent up to now is       18.8 secs

     total energy              =    -278.68755033 Ry
     estimated scf accuracy    <       0.00048655 Ry

     iteration #  8     ecut=    90.00 Ry     beta= 0.70
     Davidson diagonalization with overlap
     ethr =  7.60E-07,  avg # of iterations =  3.0

     total cpu time spent up to now is       21.2 secs

     total energy              =    -278.68770809 Ry
     estimated scf accuracy    <       0.00004585 Ry

     iteration #  9     ecut=    90.00 Ry     beta= 0.70
     Davidson diagonalization with overlap
     ethr =  7.16E-08,  avg # of iterations =  2.0

     total cpu time spent up to now is       23.1 secs

     total energy              =    -278.68771458 Ry
     estimated scf accuracy    <       0.00001344 Ry

     iteration # 10     ecut=    90.00 Ry     beta= 0.70
     Davidson diagonalization with overlap
     ethr =  2.10E-08,  avg # of iterations =  3.0

     total cpu time spent up to now is       25.7 secs

     total energy              =    -278.68771965 Ry
     estimated scf accuracy    <       0.00003272 Ry

     iteration # 11     ecut=    90.00 Ry     beta= 0.70
     Davidson diagonalization with overlap
     ethr =  2.10E-08,  avg # of iterations =  1.0

     total cpu time spent up to now is       27.2 secs

     total energy              =    -278.68771436 Ry
     estimated scf accuracy    <       0.00002989 Ry

     iteration # 12     ecut=    90.00 Ry     beta= 0.70
     Davidson diagonalization with overlap
     ethr =  2.10E-08,  avg # of iterations =  1.0

     total cpu time spent up to now is       28.7 secs

     total energy              =    -278.68771024 Ry
     estimated scf accuracy    <       0.00001664 Ry

     iteration # 13     ecut=    90.00 Ry     beta= 0.70
     Davidson diagonalization with overlap
     ethr =  2.10E-08,  avg # of iterations =  2.0

     total cpu time spent up to now is       30.6 secs

     total energy              =    -278.68771091 Ry
     estimated scf accuracy    <       0.00000336 Ry

     iteration # 14     ecut=    90.00 Ry     beta= 0.70
     Davidson diagonalization with overlap
     ethr =  5.24E-09,  avg # of iterations =  1.0

     total cpu time spent up to now is       32.1 secs

     total energy              =    -278.68770968 Ry
     estimated scf accuracy    <       0.00000232 Ry

     iteration # 15     ecut=    90.00 Ry     beta= 0.70
     Davidson diagonalization with overlap
     ethr =  3.63E-09,  avg # of iterations =  3.0

     total cpu time spent up to now is       34.5 secs

     total energy              =    -278.68771047 Ry
     estimated scf accuracy    <       0.00000019 Ry

     iteration # 16     ecut=    90.00 Ry     beta= 0.70
     Davidson diagonalization with overlap
     ethr =  2.98E-10,  avg # of iterations =  2.0

     total cpu time spent up to now is       36.6 secs

     End of self-consistent calculation

     Number of k-points >= 100: set verbosity='high' to print the bands.

     highest occupied level (ev):    -1.1359

!    total energy              =    -278.68771050 Ry
     estimated scf accuracy    <          3.1E-09 Ry

     The total energy is the sum of the following terms:
     one-electron contribution =    -135.59023763 Ry
     hartree contribution      =      94.18149723 Ry
     xc contribution           =     -70.58112296 Ry
     ewald contribution        =    -166.69784714 Ry

     convergence has been achieved in  16 iterations

     Forces acting on atoms (cartesian axes, Ry/au):

     atom    1 type  2   force =     0.00000000   -0.00000001    0.00992353
     atom    2 type  2   force =     0.00000000    0.00000001   -0.00992353
     atom    3 type  2   force =    -0.00000000   -0.00000003    0.00992511
     atom    4 type  2   force =    -0.00000000    0.00000003   -0.00992511
     atom    5 type  2   force =     0.00000000   -0.00000002    0.00992208
     atom    6 type  2   force =     0.00000000    0.00000002   -0.00992208
     atom    7 type  2   force =     0.00000000   -0.00000003    0.00992227
     atom    8 type  2   force =     0.00000000    0.00000003   -0.00992227
     atom    9 type  1   force =     0.00000000   -0.00676772   -0.00504970
     atom   10 type  1   force =     0.00000000    0.00676772    0.00504970
     atom   11 type  1   force =     0.00000000    0.00676762   -0.00504956
     atom   12 type  1   force =     0.00000000   -0.00676762    0.00504956
     atom   13 type  1   force =     0.00676762    0.00000000   -0.00504983
     atom   14 type  1   force =    -0.00676762   -0.00000000    0.00504983
     atom   15 type  1   force =    -0.00676752    0.00000000   -0.00504973
     atom   16 type  1   force =     0.00676752   -0.00000000    0.00504973
     atom   17 type  1   force =    -0.00676752   -0.00000000    0.00504973
     atom   18 type  1   force =     0.00676752    0.00000000   -0.00504973
     atom   19 type  1   force =     0.00676762   -0.00000000    0.00504983
     atom   20 type  1   force =    -0.00676762    0.00000000   -0.00504983
     atom   21 type  1   force =     0.00000000   -0.00676761   -0.00504957
     atom   22 type  1   force =     0.00000000    0.00676761    0.00504957
     atom   23 type  1   force =     0.00000000    0.00676773   -0.00504970
     atom   24 type  1   force =     0.00000000   -0.00676773    0.00504970

     Total force =     0.043915     Total SCF correction =     0.000045


     Computing stress (Cartesian axis) and pressure

          total   stress  (Ry/bohr**3)                   (kbar)     P=       -6.58
  -0.00004346   0.00000000   0.00000000           -6.39        0.00        0.00
   0.00000000  -0.00004351   0.00000000            0.00       -6.40        0.00
   0.00000000   0.00000000  -0.00004715            0.00        0.00       -6.94


     BFGS Geometry Optimization
     Energy error            =      0.0E+00 Ry
     Gradient error          =      9.9E-03 Ry/Bohr

     number of scf cycles    =   1
     number of bfgs steps    =   0

     energy             new  =    -278.6877104967 Ry

     new trust radius        =       0.0099251135 bohr
     new conv_thr            =       0.0000001000 Ry


ATOMIC_POSITIONS (crystal)
O                0.0000000000        0.2499999986        0.6096248638
O                0.0000000000        0.7500000014        0.3903751652
O                0.5000000000        0.7499999965        0.1096249549
O                0.5000000000        0.2500000035        0.8903750161
O                0.0000000000        0.7499999981        0.8596247535
O                0.0000000000        0.2500000019        0.1403752755
O                0.5000000000        0.2499999965        0.3596247388
O                0.5000000000        0.7500000035        0.6403752322
H                0.0000000000        0.4135075608        0.6949359039
H                0.0000000000        0.5864924092        0.3050640961
H                0.5000000000        0.5864923976        0.1949359143
H                0.5000000000        0.4135075724        0.8050640857
H                0.8364923985        0.7500000000        0.9449358941
H                0.1635075715        0.2500000000        0.0550641059
H                0.6635076134        0.2500000003        0.4449359018
H                0.3364924166        0.7499999997        0.5550640982
H                0.6635076134        0.7499999997        0.5550640982
H                0.3364924166        0.2500000003        0.4449359018
H                0.8364923985        0.2500000000        0.0550641059
H                0.1635075715        0.7500000000        0.9449358941
H                0.5000000000        0.9135076027        0.1949359142
H                0.5000000000        0.0864924273        0.8050640858
H                0.0000000000        0.0864924398        0.6949359040
H                0.0000000000        0.9135075902        0.3050640960



     Writing config-only to output data dir ./iceVIII/iceVIII.save/ :
     XML data file
     NEW-OLD atomic charge density approx. for the potential

     total cpu time spent up to now is       38.8 secs

     per-process dynamical memory:    20.9 Mb

     Self-consistent Calculation

     iteration #  1     ecut=    90.00 Ry     beta= 0.70
     Davidson diagonalization with overlap
     ethr =  1.00E-06,  avg # of iterations =  4.0

     total cpu time spent up to now is       41.9 secs

     total energy              =    -278.68800574 Ry
     estimated scf accuracy    <       0.00074421 Ry

     iteration #  2     ecut=    90.00 Ry     beta= 0.70
     Davidson diagonalization with overlap
     ethr =  1.16E-06,  avg # of iterations =  3.0

     total cpu time spent up to now is       44.5 secs

     total energy              =    -278.68822292 Ry
     estimated scf accuracy    <       0.00038733 Ry

     iteration #  3     ecut=    90.00 Ry     beta= 0.70
     Davidson diagonalization with overlap
     ethr =  6.05E-07,  avg # of iterations =  2.0

     total cpu time spent up to now is       46.5 secs

     total energy              =    -278.68828247 Ry
     estimated scf accuracy    <       0.00001034 Ry

     iteration #  4     ecut=    90.00 Ry     beta= 0.70
     Davidson diagonalization with overlap
     ethr =  1.62E-08,  avg # of iterations =  4.1

     total cpu time spent up to now is       49.7 secs

     total energy              =    -278.68829167 Ry
     estimated scf accuracy    <       0.00001506 Ry

     iteration #  5     ecut=    90.00 Ry     beta= 0.70
     Davidson diagonalization with overlap
     ethr =  1.62E-08,  avg # of iterations =  2.0

     total cpu time spent up to now is       51.9 secs

     total energy              =    -278.68829344 Ry
     estimated scf accuracy    <       0.00000053 Ry

     iteration #  6     ecut=    90.00 Ry     beta= 0.70
     Davidson diagonalization with overlap
     ethr =  8.32E-10,  avg # of iterations =  4.0

     total cpu time spent up to now is       55.0 secs

     total energy              =    -278.68829381 Ry
     estimated scf accuracy    <       0.00000047 Ry

     iteration #  7     ecut=    90.00 Ry     beta= 0.70
     Davidson diagonalization with overlap
     ethr =  7.39E-10,  avg # of iterations =  2.0

     total cpu time spent up to now is       56.8 secs

     End of self-consistent calculation

     Number of k-points >= 100: set verbosity='high' to print the bands.

     highest occupied level (ev):    -1.1492

!    total energy              =    -278.68829381 Ry
     estimated scf accuracy    <       0.00000005 Ry

     The total energy is the sum of the following terms:
     one-electron contribution =    -136.48046153 Ry
     hartree contribution      =      94.57140816 Ry
     xc contribution           =     -70.67513030 Ry
     ewald contribution        =    -166.10411014 Ry

     convergence has been achieved in   7 iterations

     Forces acting on atoms (cartesian axes, Ry/au):

     atom    1 type  2   force =    -0.00000000    0.00000002   -0.00522011
     atom    2 type  2   force =    -0.00000000   -0.00000002    0.00522011
     atom    3 type  2   force =    -0.00000000    0.00000004   -0.00522120
     atom    4 type  2   force =    -0.00000000   -0.00000004    0.00522120
     atom    5 type  2   force =     0.00000000   -0.00000000   -0.00521968
     atom    6 type  2   force =     0.00000000    0.00000000    0.00521968
     atom    7 type  2   force =     0.00000000   -0.00000000   -0.00521970
     atom    8 type  2   force =     0.00000000    0.00000000    0.00521970
     atom    9 type  1   force =     0.00000000    0.00167841    0.00237072
     atom   10 type  1   force =     0.00000000   -0.00167841   -0.00237072
     atom   11 type  1   force =     0.00000000   -0.00167884    0.00237128
     atom   12 type  1   force =     0.00000000    0.00167884   -0.00237128
     atom   13 type  1   force =    -0.00167806   -0.00000000    0.00237036
     atom   14 type  1   force =     0.00167806    0.00000000   -0.00237036
     atom   15 type  1   force =     0.00167804   -0.00000000    0.00237037
     atom   16 type  1   force =    -0.00167804    0.00000000   -0.00237037
     atom   17 type  1   force =     0.00167804    0.00000000   -0.00237037
     atom   18 type  1   force =    -0.00167804   -0.00000000    0.00237037
     atom   19 type  1   force =    -0.00167806    0.00000000   -0.00237036
     atom   20 type  1   force =     0.00167806   -0.00000000    0.00237036
     atom   21 type  1   force =     0.00000000    0.00167881    0.00237126
     atom   22 type  1   force =     0.00000000   -0.00167881   -0.00237126
     atom   23 type  1   force =     0.00000000   -0.00167843    0.00237073
     atom   24 type  1   force =     0.00000000    0.00167843   -0.00237073

     Total force =     0.018788     Total SCF correction =     0.000230


     Computing stress (Cartesian axis) and pressure

          total   stress  (Ry/bohr**3)                   (kbar)     P=        8.90
   0.00005221   0.00000000   0.00000000            7.68        0.00        0.00
   0.00000000   0.00005221  -0.00000000            0.00        7.68       -0.00
   0.00000000  -0.00000000   0.00007704            0.00       -0.00       11.33

     Energy error            =      5.8E-04 Ry
     Gradient error          =      5.2E-03 Ry/Bohr

     number of scf cycles    =   2
     number of bfgs steps    =   1

     energy             old  =    -278.6877104967 Ry
     energy             new  =    -278.6882938127 Ry

     CASE: energy            _new < energy            _old

     new trust radius        =       0.0036259565 bohr
     new conv_thr            =       0.0000000052 Ry


ATOMIC_POSITIONS (crystal)
O                0.0000000000        0.2500000000        0.6093491131
O                0.0000000000        0.7500000000        0.3906509159
O                0.5000000000        0.7499999995        0.1093491461
O                0.5000000000        0.2500000005        0.8906508249
O                0.0000000000        0.7499999981        0.8593490246
O                0.0000000000        0.2500000019        0.1406510044
O                0.5000000000        0.2499999965        0.3593490095
O                0.5000000000        0.7500000035        0.6406509615
H                0.0000000000        0.4136322196        0.6950607990
H                0.0000000000        0.5863677504        0.3049392010
H                0.5000000000        0.5863677049        0.1950608396
H                0.5000000000        0.4136322651        0.8049391604
H                0.8363677667        0.7499999999        0.9450607697
H                0.1636322033        0.2500000001        0.0549392303
H                0.6636322435        0.2500000002        0.4450607778
H                0.3363677865        0.7499999998        0.5549392222
H                0.6636322435        0.7499999998        0.5549392222
H                0.3363677865        0.2500000002        0.4450607778
H                0.8363677667        0.2500000001        0.0549392303
H                0.1636322033        0.7499999999        0.9450607697
H                0.5000000000        0.9136322926        0.1950608382
H                0.5000000000        0.0863677374        0.8049391618
H                0.0000000000        0.0863677796        0.6950607997
H                0.0000000000        0.9136322504        0.3049392003



     Writing config-only to output data dir ./iceVIII/iceVIII.save/ :
     XML data file
     NEW-OLD atomic charge density approx. for the potential

     total cpu time spent up to now is       58.9 secs

     per-process dynamical memory:    22.4 Mb

     Self-consistent Calculation

     iteration #  1     ecut=    90.00 Ry     beta= 0.70
     Davidson diagonalization with overlap
     ethr =  1.00E-06,  avg # of iterations =  3.0

     total cpu time spent up to now is       61.4 secs

     total energy              =    -278.68839125 Ry
     estimated scf accuracy    <       0.00006468 Ry

     iteration #  2     ecut=    90.00 Ry     beta= 0.70
     Davidson diagonalization with overlap
     ethr =  1.01E-07,  avg # of iterations =  3.0

     total cpu time spent up to now is       64.0 secs

     total energy              =    -278.68841309 Ry
     estimated scf accuracy    <       0.00003656 Ry

     iteration #  3     ecut=    90.00 Ry     beta= 0.70
     Davidson diagonalization with overlap
     ethr =  5.71E-08,  avg # of iterations =  2.0

     total cpu time spent up to now is       66.0 secs

     total energy              =    -278.68841799 Ry
     estimated scf accuracy    <       0.00000139 Ry

     iteration #  4     ecut=    90.00 Ry     beta= 0.70
     Davidson diagonalization with overlap
     ethr =  2.17E-09,  avg # of iterations =  4.0

     total cpu time spent up to now is       69.2 secs

     total energy              =    -278.68841892 Ry
     estimated scf accuracy    <       0.00000171 Ry

     iteration #  5     ecut=    90.00 Ry     beta= 0.70
     Davidson diagonalization with overlap
     ethr =  2.17E-09,  avg # of iterations =  2.0

     total cpu time spent up to now is       71.3 secs

     total energy              =    -278.68841911 Ry
     estimated scf accuracy    <       0.00000007 Ry

     iteration #  6     ecut=    90.00 Ry     beta= 0.70
     Davidson diagonalization with overlap
     ethr =  1.04E-10,  avg # of iterations =  4.0

     total cpu time spent up to now is       74.3 secs

     total energy              =    -278.68841916 Ry
     estimated scf accuracy    <       0.00000005 Ry

     iteration #  7     ecut=    90.00 Ry     beta= 0.70
     Davidson diagonalization with overlap
     ethr =  8.56E-11,  avg # of iterations =  2.0

     total cpu time spent up to now is       76.1 secs

     total energy              =    -278.68841915 Ry
     estimated scf accuracy    <       0.00000001 Ry

     iteration #  8     ecut=    90.00 Ry     beta= 0.70
     Davidson diagonalization with overlap
     ethr =  1.62E-11,  avg # of iterations =  3.0

     total cpu time spent up to now is       78.4 secs

     End of self-consistent calculation

     Number of k-points >= 100: set verbosity='high' to print the bands.

     highest occupied level (ev):    -1.1461

!    total energy              =    -278.68841916 Ry
     estimated scf accuracy    <          1.1E-09 Ry

     The total energy is the sum of the following terms:
     one-electron contribution =    -136.23203703 Ry
     hartree contribution      =      94.46337767 Ry
     xc contribution           =     -70.64879623 Ry
     ewald contribution        =    -166.27096358 Ry

     convergence has been achieved in   8 iterations

     Forces acting on atoms (cartesian axes, Ry/au):

     atom    1 type  2   force =    -0.00000000   -0.00000001   -0.00053878
     atom    2 type  2   force =    -0.00000000    0.00000001    0.00053878
     atom    3 type  2   force =     0.00000000   -0.00000002   -0.00053878
     atom    4 type  2   force =     0.00000000    0.00000002    0.00053878
     atom    5 type  2   force =    -0.00000000    0.00000000   -0.00053792
     atom    6 type  2   force =    -0.00000000   -0.00000000    0.00053792
     atom    7 type  2   force =     0.00000000    0.00000000   -0.00053794
     atom    8 type  2   force =     0.00000000   -0.00000000    0.00053794
     atom    9 type  1   force =     0.00000000   -0.00058174    0.00005873
     atom   10 type  1   force =     0.00000000    0.00058174   -0.00005873
     atom   11 type  1   force =     0.00000000    0.00058192    0.00005870
     atom   12 type  1   force =     0.00000000   -0.00058192   -0.00005870
     atom   13 type  1   force =     0.00058175   -0.00000000    0.00005861
     atom   14 type  1   force =    -0.00058175    0.00000000   -0.00005861
     atom   15 type  1   force =    -0.00058178   -0.00000000    0.00005861
     atom   16 type  1   force =     0.00058178    0.00000000   -0.00005861
     atom   17 type  1   force =    -0.00058178    0.00000000   -0.00005861
     atom   18 type  1   force =     0.00058178   -0.00000000    0.00005861
     atom   19 type  1   force =     0.00058175    0.00000000   -0.00005861
     atom   20 type  1   force =    -0.00058175   -0.00000000    0.00005861
     atom   21 type  1   force =     0.00000000   -0.00058190    0.00005871
     atom   22 type  1   force =     0.00000000    0.00058190   -0.00005871
     atom   23 type  1   force =     0.00000000    0.00058175    0.00005872
     atom   24 type  1   force =     0.00000000   -0.00058175   -0.00005872

     Total force =     0.002791     Total SCF correction =     0.000031


     Computing stress (Cartesian axis) and pressure

          total   stress  (Ry/bohr**3)                   (kbar)     P=        4.79
   0.00002814   0.00000000   0.00000000            4.14        0.00        0.00
   0.00000000   0.00002814   0.00000000            0.00        4.14        0.00
   0.00000000   0.00000000   0.00004145            0.00        0.00        6.10

     Energy error            =      1.3E-04 Ry
     Gradient error          =      5.8E-04 Ry/Bohr

     number of scf cycles    =   3
     number of bfgs steps    =   2

     energy             old  =    -278.6882938127 Ry
     energy             new  =    -278.6884191586 Ry

     CASE: energy            _new < energy            _old

     new trust radius        =       0.0006473527 bohr
     new conv_thr            =       0.0000000010 Ry


ATOMIC_POSITIONS (crystal)
O               -0.0000000000        0.2499999992        0.6092998735
O               -0.0000000000        0.7500000008        0.3907001555
O                0.5000000000        0.7499999979        0.1092999051
O                0.5000000000        0.2500000021        0.8907000659
O               -0.0000000000        0.7499999983        0.8592998525
O               -0.0000000000        0.2500000017        0.1407001765
O                0.5000000000        0.2499999968        0.3592998361
O                0.5000000000        0.7500000032        0.6407001349
H                0.0000000000        0.4135675147        0.6950683696
H                0.0000000000        0.5864324553        0.3049316304
H                0.5000000000        0.5864324282        0.1950684093
H                0.5000000000        0.4135675418        0.8049315907
H                0.8364324740        0.7499999999        0.9450683304
H                0.1635674960        0.2500000001        0.0549316696
H                0.6635675329        0.2500000001        0.4450683381
H                0.3364324971        0.7499999999        0.5549316619
H                0.6635675329        0.7499999999        0.5549316619
H                0.3364324971        0.2500000001        0.4450683381
H                0.8364324740        0.2500000001        0.0549316696
H                0.1635674960        0.7499999999        0.9450683304
H                0.5000000000        0.9135675708        0.1950684087
H                0.5000000000        0.0864324592        0.8049315913
H                0.0000000000        0.0864324853        0.6950683699
H                0.0000000000        0.9135675447        0.3049316301



     Writing config-only to output data dir ./iceVIII/iceVIII.save/ :
     XML data file
     NEW-OLD atomic charge density approx. for the potential

     total cpu time spent up to now is       80.5 secs

     per-process dynamical memory:    22.4 Mb

     Self-consistent Calculation

     iteration #  1     ecut=    90.00 Ry     beta= 0.70
     Davidson diagonalization with overlap
     ethr =  1.00E-06,  avg # of iterations =  2.0

     Threshold (ethr) on eigenvalues was too large:
     Diagonalizing with lowered threshold

     Davidson diagonalization with overlap
     ethr =  5.65E-10,  avg # of iterations =  3.7

     total cpu time spent up to now is       85.1 secs

     total energy              =    -278.68842596 Ry
     estimated scf accuracy    <       0.00000047 Ry

     iteration #  2     ecut=    90.00 Ry     beta= 0.70
     Davidson diagonalization with overlap
     ethr =  7.40E-10,  avg # of iterations =  2.0

     total cpu time spent up to now is       87.2 secs

     total energy              =    -278.68842604 Ry
     estimated scf accuracy    <       0.00000003 Ry

     iteration #  3     ecut=    90.00 Ry     beta= 0.70
     Davidson diagonalization with overlap
     ethr =  4.70E-11,  avg # of iterations =  2.0

     total cpu time spent up to now is       89.5 secs

     total energy              =    -278.68842605 Ry
     estimated scf accuracy    <          5.7E-09 Ry

     iteration #  4     ecut=    90.00 Ry     beta= 0.70
     Davidson diagonalization with overlap
     ethr =  8.97E-12,  avg # of iterations =  2.0

     total cpu time spent up to now is       91.5 secs

     End of self-consistent calculation

     Number of k-points >= 100: set verbosity='high' to print the bands.

     highest occupied level (ev):    -1.1467

!    total energy              =    -278.68842605 Ry
     estimated scf accuracy    <          2.7E-10 Ry

     The total energy is the sum of the following terms:
     one-electron contribution =    -136.23685392 Ry
     hartree contribution      =      94.46543266 Ry
     xc contribution           =     -70.64901679 Ry
     ewald contribution        =    -166.26798801 Ry

     convergence has been achieved in   4 iterations

     Forces acting on atoms (cartesian axes, Ry/au):

     atom    1 type  2   force =     0.00000000    0.00000001   -0.00029443
     atom    2 type  2   force =     0.00000000   -0.00000001    0.00029443
     atom    3 type  2   force =    -0.00000000    0.00000001   -0.00029451
     atom    4 type  2   force =    -0.00000000   -0.00000001    0.00029451
     atom    5 type  2   force =    -0.00000000    0.00000000   -0.00029467
     atom    6 type  2   force =    -0.00000000   -0.00000000    0.00029467
     atom    7 type  2   force =     0.00000000    0.00000000   -0.00029469
     atom    8 type  2   force =     0.00000000   -0.00000000    0.00029469
     atom    9 type  1   force =    -0.00000000   -0.00041945   -0.00005286
     atom   10 type  1   force =    -0.00000000    0.00041945    0.00005286
     atom   11 type  1   force =     0.00000000    0.00041951   -0.00005283
     atom   12 type  1   force =     0.00000000   -0.00041951    0.00005283
     atom   13 type  1   force =     0.00041928   -0.00000000   -0.00005272
     atom   14 type  1   force =    -0.00041928    0.00000000    0.00005272
     atom   15 type  1   force =    -0.00041930   -0.00000000   -0.00005272
     atom   16 type  1   force =     0.00041930    0.00000000    0.00005272
     atom   17 type  1   force =    -0.00041930    0.00000000    0.00005272
     atom   18 type  1   force =     0.00041930   -0.00000000   -0.00005272
     atom   19 type  1   force =     0.00041928    0.00000000    0.00005272
     atom   20 type  1   force =    -0.00041928   -0.00000000   -0.00005272
     atom   21 type  1   force =     0.00000000   -0.00041952   -0.00005284
     atom   22 type  1   force =     0.00000000    0.00041952    0.00005284
     atom   23 type  1   force =    -0.00000000    0.00041945   -0.00005285
     atom   24 type  1   force =    -0.00000000   -0.00041945    0.00005285

     Total force =     0.001885     Total SCF correction =     0.000024


     Computing stress (Cartesian axis) and pressure

          total   stress  (Ry/bohr**3)                   (kbar)     P=        4.95
   0.00003011   0.00000000   0.00000000            4.43        0.00        0.00
   0.00000000   0.00003011  -0.00000000            0.00        4.43       -0.00
   0.00000000  -0.00000000   0.00004066            0.00       -0.00        5.98

     Energy error            =      6.9E-06 Ry
     Gradient error          =      4.2E-04 Ry/Bohr

     bfgs converged in   4 scf cycles and   3 bfgs steps
     (criteria: energy <  1.0E-04 Ry, force <  1.0E-03 Ry/Bohr)

     End of BFGS Geometry Optimization

     Final energy             =    -278.6884260508 Ry

     File ./iceVIII/iceVIII.bfgs deleted, as requested
Begin final coordinates

ATOMIC_POSITIONS (crystal)
O               -0.0000000000        0.2499999992        0.6092998735
O               -0.0000000000        0.7500000008        0.3907001555
O                0.5000000000        0.7499999979        0.1092999051
O                0.5000000000        0.2500000021        0.8907000659
O               -0.0000000000        0.7499999983        0.8592998525
O               -0.0000000000        0.2500000017        0.1407001765
O                0.5000000000        0.2499999968        0.3592998361
O                0.5000000000        0.7500000032        0.6407001349
H                0.0000000000        0.4135675147        0.6950683696
H                0.0000000000        0.5864324553        0.3049316304
H                0.5000000000        0.5864324282        0.1950684093
H                0.5000000000        0.4135675418        0.8049315907
H                0.8364324740        0.7499999999        0.9450683304
H                0.1635674960        0.2500000001        0.0549316696
H                0.6635675329        0.2500000001        0.4450683381
H                0.3364324971        0.7499999999        0.5549316619
H                0.6635675329        0.7499999999        0.5549316619
H                0.3364324971        0.2500000001        0.4450683381
H                0.8364324740        0.2500000001        0.0549316696
H                0.1635674960        0.7499999999        0.9450683304
H                0.5000000000        0.9135675708        0.1950684087
H                0.5000000000        0.0864324592        0.8049315913
H                0.0000000000        0.0864324853        0.6950683699
H                0.0000000000        0.9135675447        0.3049316301
End final coordinates



     Writing all to output data dir ./iceVIII/iceVIII.save/ :
     XML data file, charge density, pseudopotentials, collected wavefunctions

     init_run     :      2.95s CPU      3.04s WALL (       1 calls)
     electrons    :     80.07s CPU     81.95s WALL (       4 calls)
     update_pot   :      0.13s CPU      0.16s WALL (       3 calls)
     forces       :      0.56s CPU      0.58s WALL (       4 calls)
     stress       :      7.30s CPU      7.34s WALL (       4 calls)

     Called by init_run:
     wfcinit      :      0.91s CPU      0.93s WALL (       1 calls)
     potinit      :      1.55s CPU      1.60s WALL (       1 calls)
     hinit0       :      0.43s CPU      0.44s WALL (       1 calls)

     Called by electrons:
     c_bands      :     69.70s CPU     71.10s WALL (      36 calls)
     sum_band     :      8.69s CPU      8.84s WALL (      36 calls)
     v_of_rho     :      3.17s CPU      3.43s WALL (      39 calls)
     newd         :      0.05s CPU      0.07s WALL (      39 calls)
     mix_rho      :      0.06s CPU      0.06s WALL (      36 calls)
     vdW_kernel   :      1.50s CPU      1.52s WALL (       1 calls)

     Called by c_bands:
     init_us_2    :      0.98s CPU      1.02s WALL (    2916 calls)
     cegterg      :     67.69s CPU     68.54s WALL (    1296 calls)

     Called by *egterg:
     cdiaghg      :      7.31s CPU      7.38s WALL (    4411 calls)
     h_psi        :     50.93s CPU     51.63s WALL (    4591 calls)
     s_psi        :      2.00s CPU      2.02s WALL (    4591 calls)
     g_psi        :      0.17s CPU      0.17s WALL (    3259 calls)

     Called by h_psi:
     h_psi:calbec :      2.75s CPU      2.78s WALL (    4591 calls)
     vloc_psi     :     45.84s CPU     46.47s WALL (    4591 calls)
     add_vuspsi   :      2.07s CPU      2.10s WALL (    4591 calls)

     General routines
     calbec       :      3.92s CPU      3.97s WALL (    6607 calls)
     fft          :      1.31s CPU      1.34s WALL (    2591 calls)
     ffts         :      0.01s CPU      0.01s WALL (      36 calls)
     fftw         :     48.33s CPU     49.02s WALL (  294092 calls)

     Parallel routines

     PWSCF        :   1m31.92s CPU   1m35.59s WALL


   This run was terminated on:  15:26:35   1Apr2026            

=------------------------------------------------------------------------------=
   JOB DONE.
=------------------------------------------------------------------------------=
