
     Program PWSCF v.7.3.1 starts on 26Mar2026 at 16:10: 1 

     This program is part of the open-source Quantum ESPRESSO suite
     for quantum simulation of materials; please cite
         "P. Giannozzi et al., J. Phys.:Condens. Matter 21 395502 (2009);
         "P. Giannozzi et al., J. Phys.:Condens. Matter 29 465901 (2017);
         "P. Giannozzi et al., J. Chem. Phys. 152 154105 (2020);
          URL http://www.quantum-espresso.org", 
     in publications or presentations arising from this work. More details at
     http://www.quantum-espresso.org/quote

     Parallel version (MPI), running on   128 processors

     MPI processes distributed on     1 nodes
     241866 MiB available memory on the printing compute node when the environment starts

     Waiting for input...
     Reading input from standard input

     Current dimensions of program PWSCF are:
     Max number of different atomic species (ntypx) = 10
     Max number of k-points (npk) =  40000
     Max angular momentum in pseudopotentials (lmaxx) =  4

     IMPORTANT: XC functional enforced from input :
     Exchange-correlation= VDW-DF2
                           (   1   4  13   0   2   0   0)
     Any further DFT definition will be discarded
     Please, verify this is what you really want

     Found identity + ( -0.5000 -0.5000 -0.5000) symmetry
     This is a supercell, fractional translations are disabled

     K-points division:     npool     =       4
     R & G space division:  proc/nbgrp/npool/nimage =      32
     Subspace diagonalization in iterative solution of the eigenvalue problem:
     a serial algorithm will be used


     Parallelization info
     --------------------
     sticks:   dense  smooth     PW     G-vecs:    dense   smooth      PW
     Min          74      74     20                 3952     3952     572
     Max          75      75     21                 3959     3959     579
     Sum        2385    2385    665               126543   126543   18417

     Using Slab Decomposition



     bravais-lattice index     =            6
     lattice parameter (alat)  =       9.1246  a.u.
     unit-cell volume          =    1095.6256 (a.u.)^3
     number of atoms/cell      =           24
     number of atomic types    =            2
     number of electrons       =        64.00
     number of Kohn-Sham states=           32
     kinetic-energy cutoff     =      90.0000  Ry
     charge density cutoff     =     360.0000  Ry
     scf convergence threshold =      1.0E-07
     mixing beta               =       0.7000
     number of iterations used =            8  plain     mixing
     Exchange-correlation= VDW-DF2
                           (   1   4  13   0   2   0   0)

     celldm(1)=   9.124572  celldm(2)=   0.000000  celldm(3)=   1.442197
     celldm(4)=   0.000000  celldm(5)=   0.000000  celldm(6)=   0.000000

     crystal axes: (cart. coord. in units of alat)
               a(1) = (   1.000000   0.000000   0.000000 )  
               a(2) = (   0.000000   1.000000   0.000000 )  
               a(3) = (   0.000000   0.000000   1.442197 )  

     reciprocal axes: (cart. coord. in units 2 pi/alat)
               b(1) = (  1.000000  0.000000  0.000000 )  
               b(2) = (  0.000000  1.000000  0.000000 )  
               b(3) = (  0.000000  0.000000  0.693386 )  


     PseudoPot. # 1 for H  read from file:
     ./H.pbe-van_ak.UPF
     MD5 check sum: 077eb6d537518a38cb46c6de387227b7
     Pseudo is Ultrasoft, Zval =  1.0
     Generated by new atomic code, or converted to UPF format
     Using radial grid of  615 points,  1 beta functions with: 
                l(1) =   0
     Q(r) pseudized with  8 coefficients,  rinner =    0.800

     PseudoPot. # 2 for O  read from file:
     ./O.pbe-van_ak.UPF
     MD5 check sum: 78c19812648e8988a0fe644b0f25305e
     Pseudo is Ultrasoft, Zval =  6.0
     Generated by new atomic code, or converted to UPF format
     Using radial grid of  737 points,  4 beta functions with: 
                l(1) =   0
                l(2) =   0
                l(3) =   1
                l(4) =   1
     Q(r) pseudized with  8 coefficients,  rinner =    0.800   0.800   0.800


     atomic species   valence    mass     pseudopotential
     H                 1.00     1.00800     H ( 1.00)
     O                 6.00    16.00000     O ( 1.00)

      4 Sym. Ops., with inversion, found



   Cartesian axes

     site n.     atom                  positions (alat units)
         1        O      tau(   1) = (   0.0000000   0.2500000   0.8763462  )
         2        O      tau(   2) = (   0.0000000   0.7500000   0.5658510  )
         3        O      tau(   3) = (   0.5000000   0.7500000   0.1552476  )
         4        O      tau(   4) = (   0.5000000   0.2500000   1.2869495  )
         5        O      tau(   5) = (   0.0000000   0.7500000   1.2368921  )
         6        O      tau(   6) = (   0.0000000   0.2500000   0.2053051  )
         7        O      tau(   7) = (   0.5000000   0.2500000   0.5157934  )
         8        O      tau(   8) = (   0.5000000   0.7500000   0.9264037  )
         9        H      tau(   9) = (   0.0000000   0.4175939   1.0039395  )
        10        H      tau(  10) = (   0.0000000   0.5824060   0.4382577  )
        11        H      tau(  11) = (   0.5000000   0.5824060   0.2828409  )
        12        H      tau(  12) = (   0.5000000   0.4175939   1.1593562  )
        13        H      tau(  13) = (   0.8324057   0.7500000   1.3644894  )
        14        H      tau(  14) = (   0.1675943   0.2500000   0.0777077  )
        15        H      tau(  15) = (   0.6675943   0.2500000   0.6433908  )
        16        H      tau(  16) = (   0.3324057   0.7500000   0.7988063  )
        17        H      tau(  17) = (   0.6675943   0.7500000   0.7988063  )
        18        H      tau(  18) = (   0.3324057   0.2500000   0.6433908  )
        19        H      tau(  19) = (   0.8324057   0.2500000   0.0777077  )
        20        H      tau(  20) = (   0.1675943   0.7500000   1.3644894  )
        21        H      tau(  21) = (   0.5000000   0.9175940   0.2828409  )
        22        H      tau(  22) = (   0.5000000   0.0824061   1.1593562  )
        23        H      tau(  23) = (   0.0000000   0.0824061   1.0039395  )
        24        H      tau(  24) = (   0.0000000   0.9175940   0.4382577  )

     number of k points=   144

     Number of k-points >= 100: set verbosity='high' to print them.

     Dense  grid:   126543 G-vectors     FFT dimensions: (  60,  60,  80)

     Estimated max dynamical RAM per process >      14.56 MB

     Estimated total dynamical RAM >       1.73 GB

     Initial potential from superposition of free atoms

     starting charge      63.9998, renormalised to      64.0000


     %%%%%%%%%%%%%%%%%%%%%%%%%%%%%%%%%%%%%%%%%%%%%%%%%%%%%%%%%%%%%%%%%%%%%%%%
     %                                                                      %
     % You are using vdW-DF, which was implemented by the Thonhauser group. %
     % Please cite the following two papers that made this development      %
     % possible and the two reviews that describe the various versions:     %
     %                                                                      %
     %   T. Thonhauser et al., PRL 115, 136402 (2015).                      %
     %   T. Thonhauser et al., PRB 76, 125112 (2007).                       %
     %   K. Berland et al., Rep. Prog. Phys. 78, 066501 (2015).             %
     %   D.C. Langreth et al., J. Phys.: Condens. Matter 21, 084203 (2009). %
     %                                                                      %
     % If you are calculating stress with vdW-DF, please also cite:         %
     %                                                                      %
     %   R. Sabatini et al., J. Phys.: Condens. Matter 24, 424209 (2012).   %
     %                                                                      %
     %%%%%%%%%%%%%%%%%%%%%%%%%%%%%%%%%%%%%%%%%%%%%%%%%%%%%%%%%%%%%%%%%%%%%%%%

     %%%%%%%%%%%%%%%%%%%%%%%%%%%%%%%%%%%%%%%%%%%%%%%%%%%%%%%%%%%%%%%%%%%%%%%%
     %                                                                      %
     %  vdW-DF NEWS:                                                        %
     %                                                                      %
     %  * vdW-DF3 is now available. DOI: 10.1021/acs.jctc.0c00471           %
     %    use with input_dft = 'vdW-DF3-opt1' or 'vdW-DF3-opt2'             %
     %                                                                      %
     %  * Unscreened and range-separated hybrid vdW-DF-cx functionals       %
     %    DOI: 10.1063/1.4986522 and 10.1088/1361-648X/ac2ad2               %
     %    use with input_dft = 'vdW-DF-cx0'    and 'vdW-DF-ahcx'            %
     %  * Unscreened and range-separated hybrid vdW-DF2-b86r functionals    %
     %    DOI: 10.1063/1.4986522 and DOI: 10.1103/PhysRevX.12.041003        %
     %    use with input_dft = 'vdW-DF2-br0' and 'vdW-DF2-ahbr'             %
     %                                                                      %
     %%%%%%%%%%%%%%%%%%%%%%%%%%%%%%%%%%%%%%%%%%%%%%%%%%%%%%%%%%%%%%%%%%%%%%%%


     Starting wfcs are   48 randomized atomic wfcs

     total cpu time spent up to now is        3.3 secs

     per-process dynamical memory:    20.9 Mb

     Self-consistent Calculation

     iteration #  1     ecut=    90.00 Ry     beta= 0.70
     Davidson diagonalization with overlap
     ethr =  1.00E-02,  avg # of iterations =  2.0

     total cpu time spent up to now is        5.4 secs

     total energy              =    -277.29563640 Ry
     estimated scf accuracy    <       3.02526621 Ry

     iteration #  2     ecut=    90.00 Ry     beta= 0.70
     Davidson diagonalization with overlap
     ethr =  4.73E-03,  avg # of iterations =  3.0

     total cpu time spent up to now is        8.0 secs

     total energy              =    -278.30916971 Ry
     estimated scf accuracy    <       2.28192033 Ry

     iteration #  3     ecut=    90.00 Ry     beta= 0.70
     Davidson diagonalization with overlap
     ethr =  3.57E-03,  avg # of iterations =  2.0

     total cpu time spent up to now is       10.1 secs

     total energy              =    -278.58026361 Ry
     estimated scf accuracy    <       0.11208688 Ry

     iteration #  4     ecut=    90.00 Ry     beta= 0.70
     Davidson diagonalization with overlap
     ethr =  1.75E-04,  avg # of iterations =  4.0

     total cpu time spent up to now is       13.1 secs

     total energy              =    -278.66802518 Ry
     estimated scf accuracy    <       0.12940329 Ry

     iteration #  5     ecut=    90.00 Ry     beta= 0.70
     Davidson diagonalization with overlap
     ethr =  1.75E-04,  avg # of iterations =  1.3

     total cpu time spent up to now is       14.7 secs

     total energy              =    -278.66740391 Ry
     estimated scf accuracy    <       0.02410807 Ry

     iteration #  6     ecut=    90.00 Ry     beta= 0.70
     Davidson diagonalization with overlap
     ethr =  3.77E-05,  avg # of iterations =  2.0

     total cpu time spent up to now is       16.8 secs

     total energy              =    -278.67168486 Ry
     estimated scf accuracy    <       0.00151491 Ry

     iteration #  7     ecut=    90.00 Ry     beta= 0.70
     Davidson diagonalization with overlap
     ethr =  2.37E-06,  avg # of iterations =  2.1

     total cpu time spent up to now is       18.7 secs

     total energy              =    -278.67170402 Ry
     estimated scf accuracy    <       0.00041079 Ry

     iteration #  8     ecut=    90.00 Ry     beta= 0.70
     Davidson diagonalization with overlap
     ethr =  6.42E-07,  avg # of iterations =  2.1

     total cpu time spent up to now is       20.9 secs

     total energy              =    -278.67178385 Ry
     estimated scf accuracy    <       0.00002054 Ry

     iteration #  9     ecut=    90.00 Ry     beta= 0.70
     Davidson diagonalization with overlap
     ethr =  3.21E-08,  avg # of iterations =  3.0

     total cpu time spent up to now is       23.3 secs

     total energy              =    -278.67178965 Ry
     estimated scf accuracy    <       0.00000777 Ry

     iteration # 10     ecut=    90.00 Ry     beta= 0.70
     Davidson diagonalization with overlap
     ethr =  1.21E-08,  avg # of iterations =  2.9

     total cpu time spent up to now is       25.7 secs

     total energy              =    -278.67179318 Ry
     estimated scf accuracy    <       0.00001117 Ry

     iteration # 11     ecut=    90.00 Ry     beta= 0.70
     Davidson diagonalization with overlap
     ethr =  1.21E-08,  avg # of iterations =  2.0

     total cpu time spent up to now is       27.5 secs

     total energy              =    -278.67179081 Ry
     estimated scf accuracy    <       0.00001581 Ry

     iteration # 12     ecut=    90.00 Ry     beta= 0.70
     Davidson diagonalization with overlap
     ethr =  1.21E-08,  avg # of iterations =  1.0

     total cpu time spent up to now is       29.1 secs

     total energy              =    -278.67178712 Ry
     estimated scf accuracy    <       0.00000927 Ry

     iteration # 13     ecut=    90.00 Ry     beta= 0.70
     Davidson diagonalization with overlap
     ethr =  1.21E-08,  avg # of iterations =  2.0

     total cpu time spent up to now is       31.1 secs

     total energy              =    -278.67178848 Ry
     estimated scf accuracy    <       0.00000036 Ry

     iteration # 14     ecut=    90.00 Ry     beta= 0.70
     Davidson diagonalization with overlap
     ethr =  5.65E-10,  avg # of iterations =  3.0

     total cpu time spent up to now is       33.5 secs

     End of self-consistent calculation

     Number of k-points >= 100: set verbosity='high' to print the bands.

     highest occupied level (ev):    -1.1105

!    total energy              =    -278.67178858 Ry
     estimated scf accuracy    <       0.00000003 Ry

     The total energy is the sum of the following terms:
     one-electron contribution =    -133.42947525 Ry
     hartree contribution      =      93.21637723 Ry
     xc contribution           =     -70.30867785 Ry
     ewald contribution        =    -168.15001271 Ry

     convergence has been achieved in  14 iterations

     Forces acting on atoms (cartesian axes, Ry/au):

     atom    1 type  2   force =    -0.00000000    0.00000002    0.04420005
     atom    2 type  2   force =    -0.00000000   -0.00000002   -0.04420005
     atom    3 type  2   force =     0.00000000    0.00000003    0.04419973
     atom    4 type  2   force =     0.00000000   -0.00000003   -0.04419973
     atom    5 type  2   force =     0.00000000   -0.00000007    0.04422955
     atom    6 type  2   force =     0.00000000    0.00000007   -0.04422955
     atom    7 type  2   force =     0.00000000   -0.00000002    0.04422929
     atom    8 type  2   force =     0.00000000    0.00000002   -0.04422929
     atom    9 type  1   force =     0.00000000   -0.03132705   -0.02193587
     atom   10 type  1   force =     0.00000000    0.03132705    0.02193587
     atom   11 type  1   force =     0.00000000    0.03132718   -0.02193594
     atom   12 type  1   force =     0.00000000   -0.03132718    0.02193594
     atom   13 type  1   force =     0.03133792   -0.00000000   -0.02194850
     atom   14 type  1   force =    -0.03133792    0.00000000    0.02194850
     atom   15 type  1   force =    -0.03133774    0.00000000   -0.02194846
     atom   16 type  1   force =     0.03133774   -0.00000000    0.02194846
     atom   17 type  1   force =    -0.03133774   -0.00000000    0.02194846
     atom   18 type  1   force =     0.03133774    0.00000000   -0.02194846
     atom   19 type  1   force =     0.03133792    0.00000000    0.02194850
     atom   20 type  1   force =    -0.03133792   -0.00000000   -0.02194850
     atom   21 type  1   force =     0.00000000   -0.03132718   -0.02193593
     atom   22 type  1   force =     0.00000000    0.03132718    0.02193593
     atom   23 type  1   force =     0.00000000    0.03132705   -0.02193588
     atom   24 type  1   force =     0.00000000   -0.03132705    0.02193588

     Total force =     0.197612     Total SCF correction =     0.000189


     Computing stress (Cartesian axis) and pressure

          total   stress  (Ry/bohr**3)                   (kbar)     P=      -50.92
  -0.00033617   0.00000000   0.00000000          -49.45        0.00        0.00
   0.00000000  -0.00033606   0.00000000            0.00      -49.44        0.00
   0.00000000   0.00000000  -0.00036630            0.00        0.00      -53.88


     Writing all to output data dir ./iceVIII/iceVIII.save/ :
     XML data file, charge density, pseudopotentials, collected wavefunctions

     init_run     :      2.92s CPU      3.04s WALL (       1 calls)
     electrons    :     29.51s CPU     30.27s WALL (       1 calls)
     forces       :      0.14s CPU      0.15s WALL (       1 calls)
     stress       :      1.83s CPU      1.85s WALL (       1 calls)

     Called by init_run:
     wfcinit      :      0.90s CPU      0.93s WALL (       1 calls)
     potinit      :      1.53s CPU      1.59s WALL (       1 calls)
     hinit0       :      0.43s CPU      0.44s WALL (       1 calls)

     Called by electrons:
     c_bands      :     25.39s CPU     25.98s WALL (      14 calls)
     sum_band     :      3.44s CPU      3.50s WALL (      14 calls)
     v_of_rho     :      2.13s CPU      2.25s WALL (      15 calls)
     newd         :      0.02s CPU      0.03s WALL (      15 calls)
     mix_rho      :      0.03s CPU      0.03s WALL (      14 calls)
     vdW_kernel   :      1.50s CPU      1.52s WALL (       1 calls)

     Called by c_bands:
     init_us_2    :      0.37s CPU      0.38s WALL (    1116 calls)
     cegterg      :     24.62s CPU     25.01s WALL (     504 calls)

     Called by *egterg:
     cdiaghg      :      2.73s CPU      2.75s WALL (    1687 calls)
     h_psi        :     18.97s CPU     19.32s WALL (    1723 calls)
     s_psi        :      0.72s CPU      0.73s WALL (    1723 calls)
     g_psi        :      0.06s CPU      0.06s WALL (    1183 calls)

     Called by h_psi:
     h_psi:calbec :      1.03s CPU      1.05s WALL (    1723 calls)
     vloc_psi     :     17.08s CPU     17.39s WALL (    1723 calls)
     add_vuspsi   :      0.76s CPU      0.77s WALL (    1723 calls)

     General routines
     calbec       :      1.45s CPU      1.48s WALL (    2407 calls)
     fft          :      0.74s CPU      0.77s WALL (     967 calls)
     ffts         :      0.00s CPU      0.00s WALL (      14 calls)
     fftw         :     18.16s CPU     18.49s WALL (  110794 calls)

     Parallel routines

     PWSCF        :     35.20s CPU     36.91s WALL


   This run was terminated on:  16:10:37  26Mar2026            

=------------------------------------------------------------------------------=
   JOB DONE.
=------------------------------------------------------------------------------=
