
     Program PWSCF v.7.3.1 starts on 26Mar2026 at 16:10:41 

     This program is part of the open-source Quantum ESPRESSO suite
     for quantum simulation of materials; please cite
         "P. Giannozzi et al., J. Phys.:Condens. Matter 21 395502 (2009);
         "P. Giannozzi et al., J. Phys.:Condens. Matter 29 465901 (2017);
         "P. Giannozzi et al., J. Chem. Phys. 152 154105 (2020);
          URL http://www.quantum-espresso.org", 
     in publications or presentations arising from this work. More details at
     http://www.quantum-espresso.org/quote

     Parallel version (MPI), running on   128 processors

     MPI processes distributed on     1 nodes
     241858 MiB available memory on the printing compute node when the environment starts

     Waiting for input...
     Reading input from standard input

     Current dimensions of program PWSCF are:
     Max number of different atomic species (ntypx) = 10
     Max number of k-points (npk) =  40000
     Max angular momentum in pseudopotentials (lmaxx) =  4

     IMPORTANT: XC functional enforced from input :
     Exchange-correlation= VDW-DF2
                           (   1   4  13   0   2   0   0)
     Any further DFT definition will be discarded
     Please, verify this is what you really want

     Found identity + ( -0.5000 -0.5000 -0.5000) symmetry
     This is a supercell, fractional translations are disabled

     K-points division:     npool     =       4
     R & G space division:  proc/nbgrp/npool/nimage =      32
     Subspace diagonalization in iterative solution of the eigenvalue problem:
     a serial algorithm will be used


     Parallelization info
     --------------------
     sticks:   dense  smooth     PW     G-vecs:    dense   smooth      PW
     Min          74      74     20                 3970     3970     574
     Max          75      75     21                 3979     3979     581
     Sum        2393    2393    665               127207   127207   18497

     Using Slab Decomposition



     bravais-lattice index     =            6
     lattice parameter (alat)  =       9.1423  a.u.
     unit-cell volume          =    1102.0327 (a.u.)^3
     number of atoms/cell      =           24
     number of atomic types    =            2
     number of electrons       =        64.00
     number of Kohn-Sham states=           32
     kinetic-energy cutoff     =      90.0000  Ry
     charge density cutoff     =     360.0000  Ry
     scf convergence threshold =      1.0E-07
     mixing beta               =       0.7000
     number of iterations used =            8  plain     mixing
     Exchange-correlation= VDW-DF2
                           (   1   4  13   0   2   0   0)

     celldm(1)=   9.142324  celldm(2)=   0.000000  celldm(3)=   1.442197
     celldm(4)=   0.000000  celldm(5)=   0.000000  celldm(6)=   0.000000

     crystal axes: (cart. coord. in units of alat)
               a(1) = (   1.000000   0.000000   0.000000 )  
               a(2) = (   0.000000   1.000000   0.000000 )  
               a(3) = (   0.000000   0.000000   1.442197 )  

     reciprocal axes: (cart. coord. in units 2 pi/alat)
               b(1) = (  1.000000  0.000000  0.000000 )  
               b(2) = (  0.000000  1.000000  0.000000 )  
               b(3) = (  0.000000  0.000000  0.693386 )  


     PseudoPot. # 1 for H  read from file:
     ./H.pbe-van_ak.UPF
     MD5 check sum: 077eb6d537518a38cb46c6de387227b7
     Pseudo is Ultrasoft, Zval =  1.0
     Generated by new atomic code, or converted to UPF format
     Using radial grid of  615 points,  1 beta functions with: 
                l(1) =   0
     Q(r) pseudized with  8 coefficients,  rinner =    0.800

     PseudoPot. # 2 for O  read from file:
     ./O.pbe-van_ak.UPF
     MD5 check sum: 78c19812648e8988a0fe644b0f25305e
     Pseudo is Ultrasoft, Zval =  6.0
     Generated by new atomic code, or converted to UPF format
     Using radial grid of  737 points,  4 beta functions with: 
                l(1) =   0
                l(2) =   0
                l(3) =   1
                l(4) =   1
     Q(r) pseudized with  8 coefficients,  rinner =    0.800   0.800   0.800


     atomic species   valence    mass     pseudopotential
     H                 1.00     1.00800     H ( 1.00)
     O                 6.00    16.00000     O ( 1.00)

      4 Sym. Ops., with inversion, found



   Cartesian axes

     site n.     atom                  positions (alat units)
         1        O      tau(   1) = (   0.0000000   0.2500000   0.8763462  )
         2        O      tau(   2) = (   0.0000000   0.7500000   0.5658510  )
         3        O      tau(   3) = (   0.5000000   0.7500000   0.1552476  )
         4        O      tau(   4) = (   0.5000000   0.2500000   1.2869495  )
         5        O      tau(   5) = (   0.0000000   0.7500000   1.2368921  )
         6        O      tau(   6) = (   0.0000000   0.2500000   0.2053051  )
         7        O      tau(   7) = (   0.5000000   0.2500000   0.5157934  )
         8        O      tau(   8) = (   0.5000000   0.7500000   0.9264037  )
         9        H      tau(   9) = (   0.0000000   0.4175939   1.0039395  )
        10        H      tau(  10) = (   0.0000000   0.5824060   0.4382577  )
        11        H      tau(  11) = (   0.5000000   0.5824060   0.2828409  )
        12        H      tau(  12) = (   0.5000000   0.4175939   1.1593562  )
        13        H      tau(  13) = (   0.8324057   0.7500000   1.3644894  )
        14        H      tau(  14) = (   0.1675943   0.2500000   0.0777077  )
        15        H      tau(  15) = (   0.6675943   0.2500000   0.6433908  )
        16        H      tau(  16) = (   0.3324057   0.7500000   0.7988063  )
        17        H      tau(  17) = (   0.6675943   0.7500000   0.7988063  )
        18        H      tau(  18) = (   0.3324057   0.2500000   0.6433908  )
        19        H      tau(  19) = (   0.8324057   0.2500000   0.0777077  )
        20        H      tau(  20) = (   0.1675943   0.7500000   1.3644894  )
        21        H      tau(  21) = (   0.5000000   0.9175940   0.2828409  )
        22        H      tau(  22) = (   0.5000000   0.0824061   1.1593562  )
        23        H      tau(  23) = (   0.0000000   0.0824061   1.0039395  )
        24        H      tau(  24) = (   0.0000000   0.9175940   0.4382577  )

     number of k points=   144

     Number of k-points >= 100: set verbosity='high' to print them.

     Dense  grid:   127207 G-vectors     FFT dimensions: (  60,  60,  80)

     Estimated max dynamical RAM per process >      14.63 MB

     Estimated total dynamical RAM >       1.74 GB

     Initial potential from superposition of free atoms

     starting charge      63.9998, renormalised to      64.0000


     %%%%%%%%%%%%%%%%%%%%%%%%%%%%%%%%%%%%%%%%%%%%%%%%%%%%%%%%%%%%%%%%%%%%%%%%
     %                                                                      %
     % You are using vdW-DF, which was implemented by the Thonhauser group. %
     % Please cite the following two papers that made this development      %
     % possible and the two reviews that describe the various versions:     %
     %                                                                      %
     %   T. Thonhauser et al., PRL 115, 136402 (2015).                      %
     %   T. Thonhauser et al., PRB 76, 125112 (2007).                       %
     %   K. Berland et al., Rep. Prog. Phys. 78, 066501 (2015).             %
     %   D.C. Langreth et al., J. Phys.: Condens. Matter 21, 084203 (2009). %
     %                                                                      %
     % If you are calculating stress with vdW-DF, please also cite:         %
     %                                                                      %
     %   R. Sabatini et al., J. Phys.: Condens. Matter 24, 424209 (2012).   %
     %                                                                      %
     %%%%%%%%%%%%%%%%%%%%%%%%%%%%%%%%%%%%%%%%%%%%%%%%%%%%%%%%%%%%%%%%%%%%%%%%

     %%%%%%%%%%%%%%%%%%%%%%%%%%%%%%%%%%%%%%%%%%%%%%%%%%%%%%%%%%%%%%%%%%%%%%%%
     %                                                                      %
     %  vdW-DF NEWS:                                                        %
     %                                                                      %
     %  * vdW-DF3 is now available. DOI: 10.1021/acs.jctc.0c00471           %
     %    use with input_dft = 'vdW-DF3-opt1' or 'vdW-DF3-opt2'             %
     %                                                                      %
     %  * Unscreened and range-separated hybrid vdW-DF-cx functionals       %
     %    DOI: 10.1063/1.4986522 and 10.1088/1361-648X/ac2ad2               %
     %    use with input_dft = 'vdW-DF-cx0'    and 'vdW-DF-ahcx'            %
     %  * Unscreened and range-separated hybrid vdW-DF2-b86r functionals    %
     %    DOI: 10.1063/1.4986522 and DOI: 10.1103/PhysRevX.12.041003        %
     %    use with input_dft = 'vdW-DF2-br0' and 'vdW-DF2-ahbr'             %
     %                                                                      %
     %%%%%%%%%%%%%%%%%%%%%%%%%%%%%%%%%%%%%%%%%%%%%%%%%%%%%%%%%%%%%%%%%%%%%%%%


     Starting wfcs are   48 randomized atomic wfcs

     total cpu time spent up to now is        3.3 secs

     per-process dynamical memory:    21.1 Mb

     Self-consistent Calculation

     iteration #  1     ecut=    90.00 Ry     beta= 0.70
     Davidson diagonalization with overlap
     ethr =  1.00E-02,  avg # of iterations =  2.0

     total cpu time spent up to now is        5.4 secs

     total energy              =    -277.29377402 Ry
     estimated scf accuracy    <       3.01991494 Ry

     iteration #  2     ecut=    90.00 Ry     beta= 0.70
     Davidson diagonalization with overlap
     ethr =  4.72E-03,  avg # of iterations =  3.0

     total cpu time spent up to now is        8.0 secs

     total energy              =    -278.30392094 Ry
     estimated scf accuracy    <       2.29947816 Ry

     iteration #  3     ecut=    90.00 Ry     beta= 0.70
     Davidson diagonalization with overlap
     ethr =  3.59E-03,  avg # of iterations =  2.0

     total cpu time spent up to now is       10.1 secs

     total energy              =    -278.57713390 Ry
     estimated scf accuracy    <       0.11333522 Ry

     iteration #  4     ecut=    90.00 Ry     beta= 0.70
     Davidson diagonalization with overlap
     ethr =  1.77E-04,  avg # of iterations =  4.0

     total cpu time spent up to now is       13.1 secs

     total energy              =    -278.66590780 Ry
     estimated scf accuracy    <       0.13052340 Ry

     iteration #  5     ecut=    90.00 Ry     beta= 0.70
     Davidson diagonalization with overlap
     ethr =  1.77E-04,  avg # of iterations =  1.2

     total cpu time spent up to now is       14.7 secs

     total energy              =    -278.66520071 Ry
     estimated scf accuracy    <       0.02440181 Ry

     iteration #  6     ecut=    90.00 Ry     beta= 0.70
     Davidson diagonalization with overlap
     ethr =  3.81E-05,  avg # of iterations =  2.0

     total cpu time spent up to now is       16.8 secs

     total energy              =    -278.66956515 Ry
     estimated scf accuracy    <       0.00147956 Ry

     iteration #  7     ecut=    90.00 Ry     beta= 0.70
     Davidson diagonalization with overlap
     ethr =  2.31E-06,  avg # of iterations =  2.1

     total cpu time spent up to now is       18.8 secs

     total energy              =    -278.66958263 Ry
     estimated scf accuracy    <       0.00041008 Ry

     iteration #  8     ecut=    90.00 Ry     beta= 0.70
     Davidson diagonalization with overlap
     ethr =  6.41E-07,  avg # of iterations =  2.1

     total cpu time spent up to now is       21.0 secs

     total energy              =    -278.66966285 Ry
     estimated scf accuracy    <       0.00002131 Ry

     iteration #  9     ecut=    90.00 Ry     beta= 0.70
     Davidson diagonalization with overlap
     ethr =  3.33E-08,  avg # of iterations =  2.5

     total cpu time spent up to now is       23.1 secs

     total energy              =    -278.66966905 Ry
     estimated scf accuracy    <       0.00000734 Ry

     iteration # 10     ecut=    90.00 Ry     beta= 0.70
     Davidson diagonalization with overlap
     ethr =  1.15E-08,  avg # of iterations =  2.1

     total cpu time spent up to now is       25.2 secs

     total energy              =    -278.66966998 Ry
     estimated scf accuracy    <       0.00001371 Ry

     iteration # 11     ecut=    90.00 Ry     beta= 0.70
     Davidson diagonalization with overlap
     ethr =  1.15E-08,  avg # of iterations =  1.0

     total cpu time spent up to now is       26.8 secs

     total energy              =    -278.66966790 Ry
     estimated scf accuracy    <       0.00001355 Ry

     iteration # 12     ecut=    90.00 Ry     beta= 0.70
     Davidson diagonalization with overlap
     ethr =  1.15E-08,  avg # of iterations =  1.0

     total cpu time spent up to now is       28.3 secs

     total energy              =    -278.66966672 Ry
     estimated scf accuracy    <       0.00000822 Ry

     iteration # 13     ecut=    90.00 Ry     beta= 0.70
     Davidson diagonalization with overlap
     ethr =  1.15E-08,  avg # of iterations =  1.0

     total cpu time spent up to now is       29.8 secs

     total energy              =    -278.66966640 Ry
     estimated scf accuracy    <       0.00000356 Ry

     iteration # 14     ecut=    90.00 Ry     beta= 0.70
     Davidson diagonalization with overlap
     ethr =  5.56E-09,  avg # of iterations =  1.0

     total cpu time spent up to now is       31.4 secs

     total energy              =    -278.66966613 Ry
     estimated scf accuracy    <       0.00000193 Ry

     iteration # 15     ecut=    90.00 Ry     beta= 0.70
     Davidson diagonalization with overlap
     ethr =  3.01E-09,  avg # of iterations =  1.0

     total cpu time spent up to now is       32.9 secs

     total energy              =    -278.66966572 Ry
     estimated scf accuracy    <       0.00000092 Ry

     iteration # 16     ecut=    90.00 Ry     beta= 0.70
     Davidson diagonalization with overlap
     ethr =  1.44E-09,  avg # of iterations =  2.9

     total cpu time spent up to now is       35.3 secs

     End of self-consistent calculation

     Number of k-points >= 100: set verbosity='high' to print the bands.

     highest occupied level (ev):    -1.1475

!    total energy              =    -278.66966601 Ry
     estimated scf accuracy    <       0.00000004 Ry

     The total energy is the sum of the following terms:
     one-electron contribution =    -133.98480051 Ry
     hartree contribution      =      93.41157350 Ry
     xc contribution           =     -70.27293118 Ry
     ewald contribution        =    -167.82350783 Ry

     convergence has been achieved in  16 iterations

     Forces acting on atoms (cartesian axes, Ry/au):

     atom    1 type  2   force =     0.00000000    0.00000011    0.04694687
     atom    2 type  2   force =     0.00000000   -0.00000011   -0.04694687
     atom    3 type  2   force =     0.00000000    0.00000018    0.04694412
     atom    4 type  2   force =     0.00000000   -0.00000018   -0.04694412
     atom    5 type  2   force =     0.00000000    0.00000003    0.04694554
     atom    6 type  2   force =     0.00000000   -0.00000003   -0.04694554
     atom    7 type  2   force =     0.00000000   -0.00000010    0.04694586
     atom    8 type  2   force =     0.00000000    0.00000010   -0.04694586
     atom    9 type  1   force =     0.00000000   -0.03347598   -0.02333951
     atom   10 type  1   force =     0.00000000    0.03347598    0.02333951
     atom   11 type  1   force =     0.00000000    0.03347628   -0.02333988
     atom   12 type  1   force =     0.00000000   -0.03347628    0.02333988
     atom   13 type  1   force =     0.03348846    0.00000000   -0.02335544
     atom   14 type  1   force =    -0.03348846   -0.00000000    0.02335544
     atom   15 type  1   force =    -0.03348841   -0.00000001   -0.02335546
     atom   16 type  1   force =     0.03348841    0.00000001    0.02335546
     atom   17 type  1   force =    -0.03348841    0.00000001    0.02335546
     atom   18 type  1   force =     0.03348841   -0.00000001   -0.02335546
     atom   19 type  1   force =     0.03348846   -0.00000000    0.02335544
     atom   20 type  1   force =    -0.03348846    0.00000000   -0.02335544
     atom   21 type  1   force =     0.00000000   -0.03347624   -0.02333987
     atom   22 type  1   force =     0.00000000    0.03347624    0.02333987
     atom   23 type  1   force =     0.00000000    0.03347599   -0.02333951
     atom   24 type  1   force =     0.00000000   -0.03347599    0.02333951

     Total force =     0.210452     Total SCF correction =     0.000186


     Computing stress (Cartesian axis) and pressure

          total   stress  (Ry/bohr**3)                   (kbar)     P=      -56.46
  -0.00037382   0.00000000   0.00000000          -54.99        0.00        0.00
   0.00000000  -0.00037367  -0.00000000            0.00      -54.97       -0.00
   0.00000000  -0.00000000  -0.00040393            0.00       -0.00      -59.42


     Writing all to output data dir ./iceVIII/iceVIII.save/ :
     XML data file, charge density, pseudopotentials, collected wavefunctions

     init_run     :      3.00s CPU      3.07s WALL (       1 calls)
     electrons    :     31.27s CPU     32.02s WALL (       1 calls)
     forces       :      0.14s CPU      0.15s WALL (       1 calls)
     stress       :      1.85s CPU      1.86s WALL (       1 calls)

     Called by init_run:
     wfcinit      :      0.94s CPU      0.95s WALL (       1 calls)
     potinit      :      1.57s CPU      1.60s WALL (       1 calls)
     hinit0       :      0.43s CPU      0.44s WALL (       1 calls)

     Called by electrons:
     c_bands      :     26.56s CPU     27.15s WALL (      16 calls)
     sum_band     :      3.91s CPU      3.96s WALL (      16 calls)
     v_of_rho     :      2.26s CPU      2.36s WALL (      17 calls)
     newd         :      0.02s CPU      0.03s WALL (      17 calls)
     mix_rho      :      0.03s CPU      0.03s WALL (      16 calls)
     vdW_kernel   :      1.50s CPU      1.51s WALL (       1 calls)

     Called by c_bands:
     init_us_2    :      0.43s CPU      0.45s WALL (    1260 calls)
     cegterg      :     25.59s CPU     25.96s WALL (     576 calls)

     Called by *egterg:
     cdiaghg      :      2.77s CPU      2.79s WALL (    1709 calls)
     h_psi        :     19.99s CPU     20.32s WALL (    1745 calls)
     s_psi        :      0.77s CPU      0.78s WALL (    1745 calls)
     g_psi        :      0.06s CPU      0.06s WALL (    1133 calls)

     Called by h_psi:
     h_psi:calbec :      1.09s CPU      1.11s WALL (    1745 calls)
     vloc_psi     :     17.95s CPU     18.24s WALL (    1745 calls)
     add_vuspsi   :      0.83s CPU      0.85s WALL (    1745 calls)

     General routines
     calbec       :      1.54s CPU      1.57s WALL (    2501 calls)
     fft          :      0.79s CPU      0.80s WALL (    1089 calls)
     ffts         :      0.01s CPU      0.01s WALL (      16 calls)
     fftw         :     19.26s CPU     19.55s WALL (  118082 calls)

     Parallel routines

     PWSCF        :     37.03s CPU     38.60s WALL


   This run was terminated on:  16:11:20  26Mar2026            

=------------------------------------------------------------------------------=
   JOB DONE.
=------------------------------------------------------------------------------=
