
     Program PWSCF v.7.3.1 starts on 26Mar2026 at 16:12:52 

     This program is part of the open-source Quantum ESPRESSO suite
     for quantum simulation of materials; please cite
         "P. Giannozzi et al., J. Phys.:Condens. Matter 21 395502 (2009);
         "P. Giannozzi et al., J. Phys.:Condens. Matter 29 465901 (2017);
         "P. Giannozzi et al., J. Chem. Phys. 152 154105 (2020);
          URL http://www.quantum-espresso.org", 
     in publications or presentations arising from this work. More details at
     http://www.quantum-espresso.org/quote

     Parallel version (MPI), running on   128 processors

     MPI processes distributed on     1 nodes
     241801 MiB available memory on the printing compute node when the environment starts

     Waiting for input...
     Reading input from standard input

     Current dimensions of program PWSCF are:
     Max number of different atomic species (ntypx) = 10
     Max number of k-points (npk) =  40000
     Max angular momentum in pseudopotentials (lmaxx) =  4

     IMPORTANT: XC functional enforced from input :
     Exchange-correlation= VDW-DF2
                           (   1   4  13   0   2   0   0)
     Any further DFT definition will be discarded
     Please, verify this is what you really want

     Found identity + ( -0.5000 -0.5000 -0.5000) symmetry
     This is a supercell, fractional translations are disabled

     K-points division:     npool     =       4
     R & G space division:  proc/nbgrp/npool/nimage =      32
     Subspace diagonalization in iterative solution of the eigenvalue problem:
     a serial algorithm will be used


     Parallelization info
     --------------------
     sticks:   dense  smooth     PW     G-vecs:    dense   smooth      PW
     Min          75      75     21                 4039     4039     585
     Max          76      76     22                 4046     4046     589
     Sum        2417    2417    673               129377   129377   18803

     Using Slab Decomposition



     bravais-lattice index     =            6
     lattice parameter (alat)  =       9.1956  a.u.
     unit-cell volume          =    1121.4040 (a.u.)^3
     number of atoms/cell      =           24
     number of atomic types    =            2
     number of electrons       =        64.00
     number of Kohn-Sham states=           32
     kinetic-energy cutoff     =      90.0000  Ry
     charge density cutoff     =     360.0000  Ry
     scf convergence threshold =      1.0E-07
     mixing beta               =       0.7000
     number of iterations used =            8  plain     mixing
     Exchange-correlation= VDW-DF2
                           (   1   4  13   0   2   0   0)

     celldm(1)=   9.195581  celldm(2)=   0.000000  celldm(3)=   1.442197
     celldm(4)=   0.000000  celldm(5)=   0.000000  celldm(6)=   0.000000

     crystal axes: (cart. coord. in units of alat)
               a(1) = (   1.000000   0.000000   0.000000 )  
               a(2) = (   0.000000   1.000000   0.000000 )  
               a(3) = (   0.000000   0.000000   1.442197 )  

     reciprocal axes: (cart. coord. in units 2 pi/alat)
               b(1) = (  1.000000  0.000000  0.000000 )  
               b(2) = (  0.000000  1.000000  0.000000 )  
               b(3) = (  0.000000  0.000000  0.693386 )  


     PseudoPot. # 1 for H  read from file:
     ./H.pbe-van_ak.UPF
     MD5 check sum: 077eb6d537518a38cb46c6de387227b7
     Pseudo is Ultrasoft, Zval =  1.0
     Generated by new atomic code, or converted to UPF format
     Using radial grid of  615 points,  1 beta functions with: 
                l(1) =   0
     Q(r) pseudized with  8 coefficients,  rinner =    0.800

     PseudoPot. # 2 for O  read from file:
     ./O.pbe-van_ak.UPF
     MD5 check sum: 78c19812648e8988a0fe644b0f25305e
     Pseudo is Ultrasoft, Zval =  6.0
     Generated by new atomic code, or converted to UPF format
     Using radial grid of  737 points,  4 beta functions with: 
                l(1) =   0
                l(2) =   0
                l(3) =   1
                l(4) =   1
     Q(r) pseudized with  8 coefficients,  rinner =    0.800   0.800   0.800


     atomic species   valence    mass     pseudopotential
     H                 1.00     1.00800     H ( 1.00)
     O                 6.00    16.00000     O ( 1.00)

      4 Sym. Ops., with inversion, found



   Cartesian axes

     site n.     atom                  positions (alat units)
         1        O      tau(   1) = (   0.0000000   0.2500000   0.8763462  )
         2        O      tau(   2) = (   0.0000000   0.7500000   0.5658510  )
         3        O      tau(   3) = (   0.5000000   0.7500000   0.1552476  )
         4        O      tau(   4) = (   0.5000000   0.2500000   1.2869495  )
         5        O      tau(   5) = (   0.0000000   0.7500000   1.2368921  )
         6        O      tau(   6) = (   0.0000000   0.2500000   0.2053051  )
         7        O      tau(   7) = (   0.5000000   0.2500000   0.5157934  )
         8        O      tau(   8) = (   0.5000000   0.7500000   0.9264037  )
         9        H      tau(   9) = (   0.0000000   0.4175939   1.0039395  )
        10        H      tau(  10) = (   0.0000000   0.5824060   0.4382577  )
        11        H      tau(  11) = (   0.5000000   0.5824060   0.2828409  )
        12        H      tau(  12) = (   0.5000000   0.4175939   1.1593562  )
        13        H      tau(  13) = (   0.8324057   0.7500000   1.3644894  )
        14        H      tau(  14) = (   0.1675943   0.2500000   0.0777077  )
        15        H      tau(  15) = (   0.6675943   0.2500000   0.6433908  )
        16        H      tau(  16) = (   0.3324057   0.7500000   0.7988063  )
        17        H      tau(  17) = (   0.6675943   0.7500000   0.7988063  )
        18        H      tau(  18) = (   0.3324057   0.2500000   0.6433908  )
        19        H      tau(  19) = (   0.8324057   0.2500000   0.0777077  )
        20        H      tau(  20) = (   0.1675943   0.7500000   1.3644894  )
        21        H      tau(  21) = (   0.5000000   0.9175940   0.2828409  )
        22        H      tau(  22) = (   0.5000000   0.0824061   1.1593562  )
        23        H      tau(  23) = (   0.0000000   0.0824061   1.0039395  )
        24        H      tau(  24) = (   0.0000000   0.9175940   0.4382577  )

     number of k points=   144

     Number of k-points >= 100: set verbosity='high' to print them.

     Dense  grid:   129377 G-vectors     FFT dimensions: (  60,  60,  81)

     Estimated max dynamical RAM per process >      14.86 MB

     Estimated total dynamical RAM >       1.77 GB

     Initial potential from superposition of free atoms

     starting charge      63.9998, renormalised to      64.0000


     %%%%%%%%%%%%%%%%%%%%%%%%%%%%%%%%%%%%%%%%%%%%%%%%%%%%%%%%%%%%%%%%%%%%%%%%
     %                                                                      %
     % You are using vdW-DF, which was implemented by the Thonhauser group. %
     % Please cite the following two papers that made this development      %
     % possible and the two reviews that describe the various versions:     %
     %                                                                      %
     %   T. Thonhauser et al., PRL 115, 136402 (2015).                      %
     %   T. Thonhauser et al., PRB 76, 125112 (2007).                       %
     %   K. Berland et al., Rep. Prog. Phys. 78, 066501 (2015).             %
     %   D.C. Langreth et al., J. Phys.: Condens. Matter 21, 084203 (2009). %
     %                                                                      %
     % If you are calculating stress with vdW-DF, please also cite:         %
     %                                                                      %
     %   R. Sabatini et al., J. Phys.: Condens. Matter 24, 424209 (2012).   %
     %                                                                      %
     %%%%%%%%%%%%%%%%%%%%%%%%%%%%%%%%%%%%%%%%%%%%%%%%%%%%%%%%%%%%%%%%%%%%%%%%

     %%%%%%%%%%%%%%%%%%%%%%%%%%%%%%%%%%%%%%%%%%%%%%%%%%%%%%%%%%%%%%%%%%%%%%%%
     %                                                                      %
     %  vdW-DF NEWS:                                                        %
     %                                                                      %
     %  * vdW-DF3 is now available. DOI: 10.1021/acs.jctc.0c00471           %
     %    use with input_dft = 'vdW-DF3-opt1' or 'vdW-DF3-opt2'             %
     %                                                                      %
     %  * Unscreened and range-separated hybrid vdW-DF-cx functionals       %
     %    DOI: 10.1063/1.4986522 and 10.1088/1361-648X/ac2ad2               %
     %    use with input_dft = 'vdW-DF-cx0'    and 'vdW-DF-ahcx'            %
     %  * Unscreened and range-separated hybrid vdW-DF2-b86r functionals    %
     %    DOI: 10.1063/1.4986522 and DOI: 10.1103/PhysRevX.12.041003        %
     %    use with input_dft = 'vdW-DF2-br0' and 'vdW-DF2-ahbr'             %
     %                                                                      %
     %%%%%%%%%%%%%%%%%%%%%%%%%%%%%%%%%%%%%%%%%%%%%%%%%%%%%%%%%%%%%%%%%%%%%%%%


     Starting wfcs are   48 randomized atomic wfcs

     total cpu time spent up to now is        3.2 secs

     per-process dynamical memory:    21.1 Mb

     Self-consistent Calculation

     iteration #  1     ecut=    90.00 Ry     beta= 0.70
     Davidson diagonalization with overlap
     ethr =  1.00E-02,  avg # of iterations =  2.0

     total cpu time spent up to now is        5.4 secs

     total energy              =    -277.28653361 Ry
     estimated scf accuracy    <       3.00517356 Ry

     iteration #  2     ecut=    90.00 Ry     beta= 0.70
     Davidson diagonalization with overlap
     ethr =  4.70E-03,  avg # of iterations =  3.0

     total cpu time spent up to now is        8.1 secs

     total energy              =    -278.28748873 Ry
     estimated scf accuracy    <       2.35220918 Ry

     iteration #  3     ecut=    90.00 Ry     beta= 0.70
     Davidson diagonalization with overlap
     ethr =  3.68E-03,  avg # of iterations =  2.0

     total cpu time spent up to now is       10.2 secs

     total energy              =    -278.56658777 Ry
     estimated scf accuracy    <       0.11728574 Ry

     iteration #  4     ecut=    90.00 Ry     beta= 0.70
     Davidson diagonalization with overlap
     ethr =  1.83E-04,  avg # of iterations =  4.0

     total cpu time spent up to now is       13.4 secs

     total energy              =    -278.65849598 Ry
     estimated scf accuracy    <       0.13360597 Ry

     iteration #  5     ecut=    90.00 Ry     beta= 0.70
     Davidson diagonalization with overlap
     ethr =  1.83E-04,  avg # of iterations =  1.1

     total cpu time spent up to now is       15.0 secs

     total energy              =    -278.65757372 Ry
     estimated scf accuracy    <       0.02525976 Ry

     iteration #  6     ecut=    90.00 Ry     beta= 0.70
     Davidson diagonalization with overlap
     ethr =  3.95E-05,  avg # of iterations =  2.0

     total cpu time spent up to now is       17.2 secs

     total energy              =    -278.66210692 Ry
     estimated scf accuracy    <       0.00142259 Ry

     iteration #  7     ecut=    90.00 Ry     beta= 0.70
     Davidson diagonalization with overlap
     ethr =  2.22E-06,  avg # of iterations =  2.0

     total cpu time spent up to now is       19.1 secs

     total energy              =    -278.66214528 Ry
     estimated scf accuracy    <       0.00039596 Ry

     iteration #  8     ecut=    90.00 Ry     beta= 0.70
     Davidson diagonalization with overlap
     ethr =  6.19E-07,  avg # of iterations =  2.0

     total cpu time spent up to now is       21.3 secs

     total energy              =    -278.66220457 Ry
     estimated scf accuracy    <       0.00003686 Ry

     iteration #  9     ecut=    90.00 Ry     beta= 0.70
     Davidson diagonalization with overlap
     ethr =  5.76E-08,  avg # of iterations =  2.1

     total cpu time spent up to now is       23.3 secs

     total energy              =    -278.66221159 Ry
     estimated scf accuracy    <       0.00000943 Ry

     iteration # 10     ecut=    90.00 Ry     beta= 0.70
     Davidson diagonalization with overlap
     ethr =  1.47E-08,  avg # of iterations =  1.6

     total cpu time spent up to now is       25.1 secs

     total energy              =    -278.66221214 Ry
     estimated scf accuracy    <       0.00001273 Ry

     iteration # 11     ecut=    90.00 Ry     beta= 0.70
     Davidson diagonalization with overlap
     ethr =  1.47E-08,  avg # of iterations =  1.0

     total cpu time spent up to now is       26.6 secs

     total energy              =    -278.66220961 Ry
     estimated scf accuracy    <       0.00001306 Ry

     iteration # 12     ecut=    90.00 Ry     beta= 0.70
     Davidson diagonalization with overlap
     ethr =  1.47E-08,  avg # of iterations =  1.0

     total cpu time spent up to now is       28.3 secs

     total energy              =    -278.66220917 Ry
     estimated scf accuracy    <       0.00000623 Ry

     iteration # 13     ecut=    90.00 Ry     beta= 0.70
     Davidson diagonalization with overlap
     ethr =  9.74E-09,  avg # of iterations =  1.0

     total cpu time spent up to now is       29.9 secs

     total energy              =    -278.66220851 Ry
     estimated scf accuracy    <       0.00000376 Ry

     iteration # 14     ecut=    90.00 Ry     beta= 0.70
     Davidson diagonalization with overlap
     ethr =  5.88E-09,  avg # of iterations =  1.0

     total cpu time spent up to now is       31.5 secs

     total energy              =    -278.66220805 Ry
     estimated scf accuracy    <       0.00000144 Ry

     iteration # 15     ecut=    90.00 Ry     beta= 0.70
     Davidson diagonalization with overlap
     ethr =  2.25E-09,  avg # of iterations =  2.0

     total cpu time spent up to now is       33.6 secs

     End of self-consistent calculation

     Number of k-points >= 100: set verbosity='high' to print the bands.

     highest occupied level (ev):    -1.2577

!    total energy              =    -278.66220850 Ry
     estimated scf accuracy    <       0.00000009 Ry

     The total energy is the sum of the following terms:
     one-electron contribution =    -135.64683541 Ry
     hartree contribution      =      94.00583716 Ry
     xc contribution           =     -70.16965324 Ry
     ewald contribution        =    -166.85155701 Ry

     convergence has been achieved in  15 iterations

     Forces acting on atoms (cartesian axes, Ry/au):

     atom    1 type  2   force =     0.00000000   -0.00000012    0.05498309
     atom    2 type  2   force =     0.00000000    0.00000012   -0.05498309
     atom    3 type  2   force =     0.00000000   -0.00000020    0.05513513
     atom    4 type  2   force =     0.00000000    0.00000020   -0.05513513
     atom    5 type  2   force =     0.00000000   -0.00000000    0.05495676
     atom    6 type  2   force =     0.00000000    0.00000000   -0.05495676
     atom    7 type  2   force =     0.00000000   -0.00000002    0.05518010
     atom    8 type  2   force =     0.00000000    0.00000002   -0.05518010
     atom    9 type  1   force =     0.00000000   -0.03983615   -0.02747076
     atom   10 type  1   force =     0.00000000    0.03983615    0.02747076
     atom   11 type  1   force =     0.00000000    0.03981992   -0.02749227
     atom   12 type  1   force =     0.00000000   -0.03981992    0.02749227
     atom   13 type  1   force =     0.03983116    0.00000001   -0.02750267
     atom   14 type  1   force =    -0.03983116   -0.00000001    0.02750267
     atom   15 type  1   force =    -0.03984203    0.00000000   -0.02748359
     atom   16 type  1   force =     0.03984203   -0.00000000    0.02748359
     atom   17 type  1   force =    -0.03984203   -0.00000000    0.02748359
     atom   18 type  1   force =     0.03984203    0.00000000   -0.02748359
     atom   19 type  1   force =     0.03983116   -0.00000001    0.02750267
     atom   20 type  1   force =    -0.03983116    0.00000001   -0.02750267
     atom   21 type  1   force =     0.00000000   -0.03981997   -0.02749229
     atom   22 type  1   force =     0.00000000    0.03981997    0.02749229
     atom   23 type  1   force =     0.00000000    0.03983609   -0.02747073
     atom   24 type  1   force =     0.00000000   -0.03983609    0.02747073

     Total force =     0.248457     Total SCF correction =     0.000593


     Computing stress (Cartesian axis) and pressure

          total   stress  (Ry/bohr**3)                   (kbar)     P=      -70.61
  -0.00046914   0.00000000   0.00000000          -69.01        0.00        0.00
   0.00000000  -0.00046909  -0.00000000            0.00      -69.00       -0.00
   0.00000000  -0.00000000  -0.00050177            0.00       -0.00      -73.81


     Writing all to output data dir ./iceVIII/iceVIII.save/ :
     XML data file, charge density, pseudopotentials, collected wavefunctions

     init_run     :      2.86s CPU      2.98s WALL (       1 calls)
     electrons    :     29.81s CPU     30.46s WALL (       1 calls)
     forces       :      0.15s CPU      0.16s WALL (       1 calls)
     stress       :      1.86s CPU      1.88s WALL (       1 calls)

     Called by init_run:
     wfcinit      :      0.92s CPU      0.96s WALL (       1 calls)
     potinit      :      1.55s CPU      1.60s WALL (       1 calls)
     hinit0       :      0.34s CPU      0.35s WALL (       1 calls)

     Called by electrons:
     c_bands      :     25.26s CPU     25.72s WALL (      15 calls)
     sum_band     :      3.80s CPU      3.87s WALL (      15 calls)
     v_of_rho     :      2.20s CPU      2.33s WALL (      16 calls)
     newd         :      0.02s CPU      0.03s WALL (      16 calls)
     mix_rho      :      0.03s CPU      0.03s WALL (      15 calls)
     vdW_kernel   :      1.49s CPU      1.52s WALL (       1 calls)

     Called by c_bands:
     init_us_2    :      0.40s CPU      0.41s WALL (    1188 calls)
     cegterg      :     24.33s CPU     24.59s WALL (     540 calls)

     Called by *egterg:
     cdiaghg      :      2.49s CPU      2.50s WALL (    1558 calls)
     h_psi        :     19.23s CPU     19.48s WALL (    1594 calls)
     s_psi        :      0.69s CPU      0.69s WALL (    1594 calls)
     g_psi        :      0.05s CPU      0.05s WALL (    1018 calls)

     Called by h_psi:
     h_psi:calbec :      1.01s CPU      1.02s WALL (    1594 calls)
     vloc_psi     :     17.39s CPU     17.61s WALL (    1594 calls)
     add_vuspsi   :      0.74s CPU      0.75s WALL (    1594 calls)

     General routines
     calbec       :      1.48s CPU      1.49s WALL (    2314 calls)
     fft          :      0.70s CPU      0.71s WALL (    1028 calls)
     ffts         :      0.01s CPU      0.01s WALL (      15 calls)
     fftw         :     18.74s CPU     18.98s WALL (  109358 calls)

     Parallel routines

     PWSCF        :     35.45s CPU     37.08s WALL


   This run was terminated on:  16:13:29  26Mar2026            

=------------------------------------------------------------------------------=
   JOB DONE.
=------------------------------------------------------------------------------=
