
     Program PWSCF v.7.3.1 starts on 26Mar2026 at 16:13:31 

     This program is part of the open-source Quantum ESPRESSO suite
     for quantum simulation of materials; please cite
         "P. Giannozzi et al., J. Phys.:Condens. Matter 21 395502 (2009);
         "P. Giannozzi et al., J. Phys.:Condens. Matter 29 465901 (2017);
         "P. Giannozzi et al., J. Chem. Phys. 152 154105 (2020);
          URL http://www.quantum-espresso.org", 
     in publications or presentations arising from this work. More details at
     http://www.quantum-espresso.org/quote

     Parallel version (MPI), running on   128 processors

     MPI processes distributed on     1 nodes
     241813 MiB available memory on the printing compute node when the environment starts

     Waiting for input...
     Reading input from standard input

     Current dimensions of program PWSCF are:
     Max number of different atomic species (ntypx) = 10
     Max number of k-points (npk) =  40000
     Max angular momentum in pseudopotentials (lmaxx) =  4

     IMPORTANT: XC functional enforced from input :
     Exchange-correlation= VDW-DF2
                           (   1   4  13   0   2   0   0)
     Any further DFT definition will be discarded
     Please, verify this is what you really want

     Found identity + ( -0.5000 -0.5000 -0.5000) symmetry
     This is a supercell, fractional translations are disabled

     K-points division:     npool     =       4
     R & G space division:  proc/nbgrp/npool/nimage =      32
     Subspace diagonalization in iterative solution of the eigenvalue problem:
     a serial algorithm will be used


     Parallelization info
     --------------------
     sticks:   dense  smooth     PW     G-vecs:    dense   smooth      PW
     Min          76      76     21                 4062     4062     587
     Max          77      77     22                 4068     4068     593
     Sum        2433    2433    673               130081   130081   18891

     Using Slab Decomposition



     bravais-lattice index     =            6
     lattice parameter (alat)  =       9.2133  a.u.
     unit-cell volume          =    1127.9111 (a.u.)^3
     number of atoms/cell      =           24
     number of atomic types    =            2
     number of electrons       =        64.00
     number of Kohn-Sham states=           32
     kinetic-energy cutoff     =      90.0000  Ry
     charge density cutoff     =     360.0000  Ry
     scf convergence threshold =      1.0E-07
     mixing beta               =       0.7000
     number of iterations used =            8  plain     mixing
     Exchange-correlation= VDW-DF2
                           (   1   4  13   0   2   0   0)

     celldm(1)=   9.213333  celldm(2)=   0.000000  celldm(3)=   1.442197
     celldm(4)=   0.000000  celldm(5)=   0.000000  celldm(6)=   0.000000

     crystal axes: (cart. coord. in units of alat)
               a(1) = (   1.000000   0.000000   0.000000 )  
               a(2) = (   0.000000   1.000000   0.000000 )  
               a(3) = (   0.000000   0.000000   1.442197 )  

     reciprocal axes: (cart. coord. in units 2 pi/alat)
               b(1) = (  1.000000  0.000000  0.000000 )  
               b(2) = (  0.000000  1.000000  0.000000 )  
               b(3) = (  0.000000  0.000000  0.693386 )  


     PseudoPot. # 1 for H  read from file:
     ./H.pbe-van_ak.UPF
     MD5 check sum: 077eb6d537518a38cb46c6de387227b7
     Pseudo is Ultrasoft, Zval =  1.0
     Generated by new atomic code, or converted to UPF format
     Using radial grid of  615 points,  1 beta functions with: 
                l(1) =   0
     Q(r) pseudized with  8 coefficients,  rinner =    0.800

     PseudoPot. # 2 for O  read from file:
     ./O.pbe-van_ak.UPF
     MD5 check sum: 78c19812648e8988a0fe644b0f25305e
     Pseudo is Ultrasoft, Zval =  6.0
     Generated by new atomic code, or converted to UPF format
     Using radial grid of  737 points,  4 beta functions with: 
                l(1) =   0
                l(2) =   0
                l(3) =   1
                l(4) =   1
     Q(r) pseudized with  8 coefficients,  rinner =    0.800   0.800   0.800


     atomic species   valence    mass     pseudopotential
     H                 1.00     1.00800     H ( 1.00)
     O                 6.00    16.00000     O ( 1.00)

      4 Sym. Ops., with inversion, found



   Cartesian axes

     site n.     atom                  positions (alat units)
         1        O      tau(   1) = (   0.0000000   0.2500000   0.8763462  )
         2        O      tau(   2) = (   0.0000000   0.7500000   0.5658510  )
         3        O      tau(   3) = (   0.5000000   0.7500000   0.1552476  )
         4        O      tau(   4) = (   0.5000000   0.2500000   1.2869495  )
         5        O      tau(   5) = (   0.0000000   0.7500000   1.2368921  )
         6        O      tau(   6) = (   0.0000000   0.2500000   0.2053051  )
         7        O      tau(   7) = (   0.5000000   0.2500000   0.5157934  )
         8        O      tau(   8) = (   0.5000000   0.7500000   0.9264037  )
         9        H      tau(   9) = (   0.0000000   0.4175939   1.0039395  )
        10        H      tau(  10) = (   0.0000000   0.5824060   0.4382577  )
        11        H      tau(  11) = (   0.5000000   0.5824060   0.2828409  )
        12        H      tau(  12) = (   0.5000000   0.4175939   1.1593562  )
        13        H      tau(  13) = (   0.8324057   0.7500000   1.3644894  )
        14        H      tau(  14) = (   0.1675943   0.2500000   0.0777077  )
        15        H      tau(  15) = (   0.6675943   0.2500000   0.6433908  )
        16        H      tau(  16) = (   0.3324057   0.7500000   0.7988063  )
        17        H      tau(  17) = (   0.6675943   0.7500000   0.7988063  )
        18        H      tau(  18) = (   0.3324057   0.2500000   0.6433908  )
        19        H      tau(  19) = (   0.8324057   0.2500000   0.0777077  )
        20        H      tau(  20) = (   0.1675943   0.7500000   1.3644894  )
        21        H      tau(  21) = (   0.5000000   0.9175940   0.2828409  )
        22        H      tau(  22) = (   0.5000000   0.0824061   1.1593562  )
        23        H      tau(  23) = (   0.0000000   0.0824061   1.0039395  )
        24        H      tau(  24) = (   0.0000000   0.9175940   0.4382577  )

     number of k points=   144

     Number of k-points >= 100: set verbosity='high' to print them.

     Dense  grid:   130081 G-vectors     FFT dimensions: (  60,  60,  81)

     Estimated max dynamical RAM per process >      14.94 MB

     Estimated total dynamical RAM >       1.77 GB

     Initial potential from superposition of free atoms

     starting charge      63.9998, renormalised to      64.0000


     %%%%%%%%%%%%%%%%%%%%%%%%%%%%%%%%%%%%%%%%%%%%%%%%%%%%%%%%%%%%%%%%%%%%%%%%
     %                                                                      %
     % You are using vdW-DF, which was implemented by the Thonhauser group. %
     % Please cite the following two papers that made this development      %
     % possible and the two reviews that describe the various versions:     %
     %                                                                      %
     %   T. Thonhauser et al., PRL 115, 136402 (2015).                      %
     %   T. Thonhauser et al., PRB 76, 125112 (2007).                       %
     %   K. Berland et al., Rep. Prog. Phys. 78, 066501 (2015).             %
     %   D.C. Langreth et al., J. Phys.: Condens. Matter 21, 084203 (2009). %
     %                                                                      %
     % If you are calculating stress with vdW-DF, please also cite:         %
     %                                                                      %
     %   R. Sabatini et al., J. Phys.: Condens. Matter 24, 424209 (2012).   %
     %                                                                      %
     %%%%%%%%%%%%%%%%%%%%%%%%%%%%%%%%%%%%%%%%%%%%%%%%%%%%%%%%%%%%%%%%%%%%%%%%

     %%%%%%%%%%%%%%%%%%%%%%%%%%%%%%%%%%%%%%%%%%%%%%%%%%%%%%%%%%%%%%%%%%%%%%%%
     %                                                                      %
     %  vdW-DF NEWS:                                                        %
     %                                                                      %
     %  * vdW-DF3 is now available. DOI: 10.1021/acs.jctc.0c00471           %
     %    use with input_dft = 'vdW-DF3-opt1' or 'vdW-DF3-opt2'             %
     %                                                                      %
     %  * Unscreened and range-separated hybrid vdW-DF-cx functionals       %
     %    DOI: 10.1063/1.4986522 and 10.1088/1361-648X/ac2ad2               %
     %    use with input_dft = 'vdW-DF-cx0'    and 'vdW-DF-ahcx'            %
     %  * Unscreened and range-separated hybrid vdW-DF2-b86r functionals    %
     %    DOI: 10.1063/1.4986522 and DOI: 10.1103/PhysRevX.12.041003        %
     %    use with input_dft = 'vdW-DF2-br0' and 'vdW-DF2-ahbr'             %
     %                                                                      %
     %%%%%%%%%%%%%%%%%%%%%%%%%%%%%%%%%%%%%%%%%%%%%%%%%%%%%%%%%%%%%%%%%%%%%%%%


     Starting wfcs are   48 randomized atomic wfcs

     total cpu time spent up to now is        3.2 secs

     per-process dynamical memory:    21.2 Mb

     Self-consistent Calculation

     iteration #  1     ecut=    90.00 Ry     beta= 0.70
     Davidson diagonalization with overlap
     ethr =  1.00E-02,  avg # of iterations =  2.0

     total cpu time spent up to now is        5.4 secs

     total energy              =    -277.28333105 Ry
     estimated scf accuracy    <       3.00054111 Ry

     iteration #  2     ecut=    90.00 Ry     beta= 0.70
     Davidson diagonalization with overlap
     ethr =  4.69E-03,  avg # of iterations =  3.0

     total cpu time spent up to now is        8.2 secs

     total energy              =    -278.28124846 Ry
     estimated scf accuracy    <       2.37076541 Ry

     iteration #  3     ecut=    90.00 Ry     beta= 0.70
     Davidson diagonalization with overlap
     ethr =  3.70E-03,  avg # of iterations =  2.0

     total cpu time spent up to now is       10.2 secs

     total energy              =    -278.56247686 Ry
     estimated scf accuracy    <       0.11867673 Ry

     iteration #  4     ecut=    90.00 Ry     beta= 0.70
     Davidson diagonalization with overlap
     ethr =  1.85E-04,  avg # of iterations =  4.0

     total cpu time spent up to now is       13.4 secs

     total energy              =    -278.65543082 Ry
     estimated scf accuracy    <       0.13474548 Ry

     iteration #  5     ecut=    90.00 Ry     beta= 0.70
     Davidson diagonalization with overlap
     ethr =  1.85E-04,  avg # of iterations =  1.1

     total cpu time spent up to now is       15.0 secs

     total energy              =    -278.65444996 Ry
     estimated scf accuracy    <       0.02554772 Ry

     iteration #  6     ecut=    90.00 Ry     beta= 0.70
     Davidson diagonalization with overlap
     ethr =  3.99E-05,  avg # of iterations =  2.0

     total cpu time spent up to now is       17.2 secs

     total energy              =    -278.65905192 Ry
     estimated scf accuracy    <       0.00139551 Ry

     iteration #  7     ecut=    90.00 Ry     beta= 0.70
     Davidson diagonalization with overlap
     ethr =  2.18E-06,  avg # of iterations =  2.1

     total cpu time spent up to now is       19.1 secs

     total energy              =    -278.65910328 Ry
     estimated scf accuracy    <       0.00038216 Ry

     iteration #  8     ecut=    90.00 Ry     beta= 0.70
     Davidson diagonalization with overlap
     ethr =  5.97E-07,  avg # of iterations =  2.0

     total cpu time spent up to now is       21.2 secs

     total energy              =    -278.65915450 Ry
     estimated scf accuracy    <       0.00004269 Ry

     iteration #  9     ecut=    90.00 Ry     beta= 0.70
     Davidson diagonalization with overlap
     ethr =  6.67E-08,  avg # of iterations =  2.0

     total cpu time spent up to now is       23.2 secs

     total energy              =    -278.65916167 Ry
     estimated scf accuracy    <       0.00001086 Ry

     iteration # 10     ecut=    90.00 Ry     beta= 0.70
     Davidson diagonalization with overlap
     ethr =  1.70E-08,  avg # of iterations =  1.4

     total cpu time spent up to now is       24.9 secs

     total energy              =    -278.65916190 Ry
     estimated scf accuracy    <       0.00001342 Ry

     iteration # 11     ecut=    90.00 Ry     beta= 0.70
     Davidson diagonalization with overlap
     ethr =  1.70E-08,  avg # of iterations =  1.0

     total cpu time spent up to now is       26.5 secs

     total energy              =    -278.65915898 Ry
     estimated scf accuracy    <       0.00001242 Ry

     iteration # 12     ecut=    90.00 Ry     beta= 0.70
     Davidson diagonalization with overlap
     ethr =  1.70E-08,  avg # of iterations =  1.0

     total cpu time spent up to now is       28.1 secs

     total energy              =    -278.65915880 Ry
     estimated scf accuracy    <       0.00000438 Ry

     iteration # 13     ecut=    90.00 Ry     beta= 0.70
     Davidson diagonalization with overlap
     ethr =  6.85E-09,  avg # of iterations =  1.0

     total cpu time spent up to now is       29.7 secs

     total energy              =    -278.65915772 Ry
     estimated scf accuracy    <       0.00000277 Ry

     iteration # 14     ecut=    90.00 Ry     beta= 0.70
     Davidson diagonalization with overlap
     ethr =  4.33E-09,  avg # of iterations =  3.0

     total cpu time spent up to now is       32.2 secs

     End of self-consistent calculation

     Number of k-points >= 100: set verbosity='high' to print the bands.

     highest occupied level (ev):    -1.2939

!    total energy              =    -278.65915855 Ry
     estimated scf accuracy    <       0.00000002 Ry

     The total energy is the sum of the following terms:
     one-electron contribution =    -136.19790778 Ry
     hartree contribution      =      94.20449319 Ry
     xc contribution           =     -70.13567357 Ry
     ewald contribution        =    -166.53007039 Ry

     convergence has been achieved in  14 iterations

     Forces acting on atoms (cartesian axes, Ry/au):

     atom    1 type  2   force =     0.00000000    0.00000001    0.05748604
     atom    2 type  2   force =     0.00000000   -0.00000001   -0.05748604
     atom    3 type  2   force =     0.00000000    0.00000010    0.05757798
     atom    4 type  2   force =     0.00000000   -0.00000010   -0.05757798
     atom    5 type  2   force =     0.00000000    0.00000005    0.05752009
     atom    6 type  2   force =     0.00000000   -0.00000005   -0.05752009
     atom    7 type  2   force =     0.00000000    0.00000011    0.05753325
     atom    8 type  2   force =     0.00000000   -0.00000011   -0.05753325
     atom    9 type  1   force =     0.00000000   -0.04188415   -0.02882067
     atom   10 type  1   force =     0.00000000    0.04188415    0.02882067
     atom   11 type  1   force =     0.00000000    0.04186857   -0.02884225
     atom   12 type  1   force =     0.00000000   -0.04186857    0.02884225
     atom   13 type  1   force =     0.04188336    0.00000001   -0.02884446
     atom   14 type  1   force =    -0.04188336   -0.00000001    0.02884446
     atom   15 type  1   force =    -0.04188824    0.00000001   -0.02884429
     atom   16 type  1   force =     0.04188824   -0.00000001    0.02884429
     atom   17 type  1   force =    -0.04188824   -0.00000001    0.02884429
     atom   18 type  1   force =     0.04188824    0.00000001   -0.02884429
     atom   19 type  1   force =     0.04188336   -0.00000001    0.02884446
     atom   20 type  1   force =    -0.04188336    0.00000001   -0.02884446
     atom   21 type  1   force =     0.00000000   -0.04186858   -0.02884228
     atom   22 type  1   force =     0.00000000    0.04186858    0.02884228
     atom   23 type  1   force =     0.00000000    0.04188416   -0.02882065
     atom   24 type  1   force =     0.00000000   -0.04188416    0.02882065

     Total force =     0.260475     Total SCF correction =     0.000134


     Computing stress (Cartesian axis) and pressure

          total   stress  (Ry/bohr**3)                   (kbar)     P=      -75.03
  -0.00049890   0.00000000   0.00000000          -73.39        0.00        0.00
   0.00000000  -0.00049871   0.00000000            0.00      -73.36        0.00
   0.00000000   0.00000000  -0.00053251            0.00        0.00      -78.33


     Writing all to output data dir ./iceVIII/iceVIII.save/ :
     XML data file, charge density, pseudopotentials, collected wavefunctions

     init_run     :      2.88s CPU      2.98s WALL (       1 calls)
     electrons    :     28.41s CPU     29.05s WALL (       1 calls)
     forces       :      0.15s CPU      0.15s WALL (       1 calls)
     stress       :      1.87s CPU      1.89s WALL (       1 calls)

     Called by init_run:
     wfcinit      :      0.91s CPU      0.96s WALL (       1 calls)
     potinit      :      1.57s CPU      1.60s WALL (       1 calls)
     hinit0       :      0.34s CPU      0.35s WALL (       1 calls)

     Called by electrons:
     c_bands      :     24.10s CPU     24.58s WALL (      14 calls)
     sum_band     :      3.60s CPU      3.65s WALL (      14 calls)
     v_of_rho     :      2.19s CPU      2.28s WALL (      15 calls)
     newd         :      0.02s CPU      0.03s WALL (      15 calls)
     mix_rho      :      0.03s CPU      0.03s WALL (      14 calls)
     vdW_kernel   :      1.51s CPU      1.52s WALL (       1 calls)

     Called by c_bands:
     init_us_2    :      0.39s CPU      0.40s WALL (    1116 calls)
     cegterg      :     23.22s CPU     23.53s WALL (     504 calls)

     Called by *egterg:
     cdiaghg      :      2.40s CPU      2.42s WALL (    1502 calls)
     h_psi        :     18.27s CPU     18.58s WALL (    1538 calls)
     s_psi        :      0.69s CPU      0.70s WALL (    1538 calls)
     g_psi        :      0.05s CPU      0.05s WALL (     998 calls)

     Called by h_psi:
     h_psi:calbec :      0.97s CPU      0.99s WALL (    1538 calls)
     vloc_psi     :     16.47s CPU     16.75s WALL (    1538 calls)
     add_vuspsi   :      0.72s CPU      0.73s WALL (    1538 calls)

     General routines
     calbec       :      1.39s CPU      1.41s WALL (    2222 calls)
     fft          :      0.67s CPU      0.68s WALL (     967 calls)
     ffts         :      0.01s CPU      0.01s WALL (      14 calls)
     fftw         :     17.70s CPU     17.98s WALL (  104032 calls)

     Parallel routines

     PWSCF        :     34.12s CPU     35.59s WALL


   This run was terminated on:  16:14: 6  26Mar2026            

=------------------------------------------------------------------------------=
   JOB DONE.
=------------------------------------------------------------------------------=
