
     Program PWSCF v.7.3.1 starts on  1Apr2026 at 15:32:40 

     This program is part of the open-source Quantum ESPRESSO suite
     for quantum simulation of materials; please cite
         "P. Giannozzi et al., J. Phys.:Condens. Matter 21 395502 (2009);
         "P. Giannozzi et al., J. Phys.:Condens. Matter 29 465901 (2017);
         "P. Giannozzi et al., J. Chem. Phys. 152 154105 (2020);
          URL http://www.quantum-espresso.org", 
     in publications or presentations arising from this work. More details at
     http://www.quantum-espresso.org/quote

     Parallel version (MPI), running on   128 processors

     MPI processes distributed on     1 nodes
     241632 MiB available memory on the printing compute node when the environment starts

     Waiting for input...
     Reading input from standard input

     Current dimensions of program PWSCF are:
     Max number of different atomic species (ntypx) = 10
     Max number of k-points (npk) =  40000
     Max angular momentum in pseudopotentials (lmaxx) =  4

     IMPORTANT: XC functional enforced from input :
     Exchange-correlation= VDW-DF2
                           (   1   4  13   0   2   0   0)
     Any further DFT definition will be discarded
     Please, verify this is what you really want

     Found identity + ( -0.5000 -0.5000  0.5000) symmetry
     This is a supercell, fractional translations are disabled

     K-points division:     npool     =       4
     R & G space division:  proc/nbgrp/npool/nimage =      32
     Subspace diagonalization in iterative solution of the eigenvalue problem:
     a serial algorithm will be used


     Parallelization info
     --------------------
     sticks:   dense  smooth     PW     G-vecs:    dense   smooth      PW
     Min          76      76     21                 4076     4076     587
     Max          77      77     22                 4081     4081     593
     Sum        2433    2433    673               130449   130449   18923

     Using Slab Decomposition



     bravais-lattice index     =            6
     lattice parameter (alat)  =       9.2222  a.u.
     unit-cell volume          =    1131.1741 (a.u.)^3
     number of atoms/cell      =           24
     number of atomic types    =            2
     number of electrons       =        64.00
     number of Kohn-Sham states=           32
     kinetic-energy cutoff     =      90.0000  Ry
     charge density cutoff     =     360.0000  Ry
     scf convergence threshold =      1.0E-07
     mixing beta               =       0.7000
     number of iterations used =            8  plain     mixing
     energy convergence thresh.=      1.0E-04
     force convergence thresh. =      1.0E-03
     Exchange-correlation= VDW-DF2
                           (   1   4  13   0   2   0   0)
     nstep                     =           50


     celldm(1)=   9.222209  celldm(2)=   0.000000  celldm(3)=   1.442197
     celldm(4)=   0.000000  celldm(5)=   0.000000  celldm(6)=   0.000000

     crystal axes: (cart. coord. in units of alat)
               a(1) = (   1.000000   0.000000   0.000000 )  
               a(2) = (   0.000000   1.000000   0.000000 )  
               a(3) = (   0.000000   0.000000   1.442197 )  

     reciprocal axes: (cart. coord. in units 2 pi/alat)
               b(1) = (  1.000000  0.000000  0.000000 )  
               b(2) = (  0.000000  1.000000  0.000000 )  
               b(3) = (  0.000000  0.000000  0.693386 )  


     PseudoPot. # 1 for H  read from file:
     ./H.pbe-van_ak.UPF
     MD5 check sum: 077eb6d537518a38cb46c6de387227b7
     Pseudo is Ultrasoft, Zval =  1.0
     Generated by new atomic code, or converted to UPF format
     Using radial grid of  615 points,  1 beta functions with: 
                l(1) =   0
     Q(r) pseudized with  8 coefficients,  rinner =    0.800

     PseudoPot. # 2 for O  read from file:
     ./O.pbe-van_ak.UPF
     MD5 check sum: 78c19812648e8988a0fe644b0f25305e
     Pseudo is Ultrasoft, Zval =  6.0
     Generated by new atomic code, or converted to UPF format
     Using radial grid of  737 points,  4 beta functions with: 
                l(1) =   0
                l(2) =   0
                l(3) =   1
                l(4) =   1
     Q(r) pseudized with  8 coefficients,  rinner =    0.800   0.800   0.800


     atomic species   valence    mass     pseudopotential
     H                 1.00     1.00800     H ( 1.00)
     O                 6.00    16.00000     O ( 1.00)

      4 Sym. Ops., with inversion, found



   Cartesian axes

     site n.     atom                  positions (alat units)
         1        O      tau(   1) = (   0.0000000   0.2500000   0.8781106  )
         2        O      tau(   2) = (   0.0000000   0.7500000   0.5640866  )
         3        O      tau(   3) = (   0.5000000   0.7500000   0.1570120  )
         4        O      tau(   4) = (   0.5000000   0.2500000   1.2851851  )
         5        O      tau(   5) = (   0.0000000   0.7500000   1.2386599  )
         6        O      tau(   6) = (   0.0000000   0.2500000   0.2035373  )
         7        O      tau(   7) = (   0.5000000   0.2500000   0.5175613  )
         8        O      tau(   8) = (   0.5000000   0.7500000   0.9246358  )
         9        H      tau(   9) = (   0.0000000   0.4142500   1.0027885  )
        10        H      tau(  10) = (   0.0000000   0.5857500   0.4394086  )
        11        H      tau(  11) = (   0.5000000   0.5857500   0.2816900  )
        12        H      tau(  12) = (   0.5000000   0.4142500   1.1605072  )
        13        H      tau(  13) = (   0.8357500   0.7500000   1.3633378  )
        14        H      tau(  14) = (   0.1642500   0.2500000   0.0788593  )
        15        H      tau(  15) = (   0.6642500   0.2500000   0.6422392  )
        16        H      tau(  16) = (   0.3357500   0.7500000   0.7999579  )
        17        H      tau(  17) = (   0.6642500   0.7500000   0.7999579  )
        18        H      tau(  18) = (   0.3357500   0.2500000   0.6422392  )
        19        H      tau(  19) = (   0.8357500   0.2500000   0.0788593  )
        20        H      tau(  20) = (   0.1642500   0.7500000   1.3633378  )
        21        H      tau(  21) = (   0.5000000   0.9142500   0.2816900  )
        22        H      tau(  22) = (   0.5000000   0.0857500   1.1605072  )
        23        H      tau(  23) = (   0.0000000   0.0857500   1.0027885  )
        24        H      tau(  24) = (   0.0000000   0.9142500   0.4394086  )

     number of k points=   144

     Number of k-points >= 100: set verbosity='high' to print them.

     Dense  grid:   130449 G-vectors     FFT dimensions: (  60,  60,  81)

     Estimated max dynamical RAM per process >      14.97 MB

     Estimated total dynamical RAM >       1.78 GB

     Initial potential from superposition of free atoms

     starting charge      63.9998, renormalised to      64.0000


     %%%%%%%%%%%%%%%%%%%%%%%%%%%%%%%%%%%%%%%%%%%%%%%%%%%%%%%%%%%%%%%%%%%%%%%%
     %                                                                      %
     % You are using vdW-DF, which was implemented by the Thonhauser group. %
     % Please cite the following two papers that made this development      %
     % possible and the two reviews that describe the various versions:     %
     %                                                                      %
     %   T. Thonhauser et al., PRL 115, 136402 (2015).                      %
     %   T. Thonhauser et al., PRB 76, 125112 (2007).                       %
     %   K. Berland et al., Rep. Prog. Phys. 78, 066501 (2015).             %
     %   D.C. Langreth et al., J. Phys.: Condens. Matter 21, 084203 (2009). %
     %                                                                      %
     % If you are calculating stress with vdW-DF, please also cite:         %
     %                                                                      %
     %   R. Sabatini et al., J. Phys.: Condens. Matter 24, 424209 (2012).   %
     %                                                                      %
     %%%%%%%%%%%%%%%%%%%%%%%%%%%%%%%%%%%%%%%%%%%%%%%%%%%%%%%%%%%%%%%%%%%%%%%%

     %%%%%%%%%%%%%%%%%%%%%%%%%%%%%%%%%%%%%%%%%%%%%%%%%%%%%%%%%%%%%%%%%%%%%%%%
     %                                                                      %
     %  vdW-DF NEWS:                                                        %
     %                                                                      %
     %  * vdW-DF3 is now available. DOI: 10.1021/acs.jctc.0c00471           %
     %    use with input_dft = 'vdW-DF3-opt1' or 'vdW-DF3-opt2'             %
     %                                                                      %
     %  * Unscreened and range-separated hybrid vdW-DF-cx functionals       %
     %    DOI: 10.1063/1.4986522 and 10.1088/1361-648X/ac2ad2               %
     %    use with input_dft = 'vdW-DF-cx0'    and 'vdW-DF-ahcx'            %
     %  * Unscreened and range-separated hybrid vdW-DF2-b86r functionals    %
     %    DOI: 10.1063/1.4986522 and DOI: 10.1103/PhysRevX.12.041003        %
     %    use with input_dft = 'vdW-DF2-br0' and 'vdW-DF2-ahbr'             %
     %                                                                      %
     %%%%%%%%%%%%%%%%%%%%%%%%%%%%%%%%%%%%%%%%%%%%%%%%%%%%%%%%%%%%%%%%%%%%%%%%


     Starting wfcs are   48 randomized atomic wfcs

     total cpu time spent up to now is        3.2 secs

     per-process dynamical memory:    21.4 Mb

     Self-consistent Calculation

     iteration #  1     ecut=    90.00 Ry     beta= 0.70
     Davidson diagonalization with overlap
     ethr =  1.00E-02,  avg # of iterations =  2.0

     total cpu time spent up to now is        5.4 secs

     total energy              =    -277.26351947 Ry
     estimated scf accuracy    <       3.12047531 Ry

     iteration #  2     ecut=    90.00 Ry     beta= 0.70
     Davidson diagonalization with overlap
     ethr =  4.88E-03,  avg # of iterations =  3.0

     total cpu time spent up to now is        8.2 secs

     total energy              =    -278.30147722 Ry
     estimated scf accuracy    <       2.37859489 Ry

     iteration #  3     ecut=    90.00 Ry     beta= 0.70
     Davidson diagonalization with overlap
     ethr =  3.72E-03,  avg # of iterations =  2.0

     total cpu time spent up to now is       10.2 secs

     total energy              =    -278.58854349 Ry
     estimated scf accuracy    <       0.11466386 Ry

     iteration #  4     ecut=    90.00 Ry     beta= 0.70
     Davidson diagonalization with overlap
     ethr =  1.79E-04,  avg # of iterations =  4.0

     total cpu time spent up to now is       13.5 secs

     total energy              =    -278.67929503 Ry
     estimated scf accuracy    <       0.13744488 Ry

     iteration #  5     ecut=    90.00 Ry     beta= 0.70
     Davidson diagonalization with overlap
     ethr =  1.79E-04,  avg # of iterations =  1.4

     total cpu time spent up to now is       15.2 secs

     total energy              =    -278.67854054 Ry
     estimated scf accuracy    <       0.02563256 Ry

     iteration #  6     ecut=    90.00 Ry     beta= 0.70
     Davidson diagonalization with overlap
     ethr =  4.01E-05,  avg # of iterations =  2.0

     total cpu time spent up to now is       17.3 secs

     total energy              =    -278.68305149 Ry
     estimated scf accuracy    <       0.00170796 Ry

     iteration #  7     ecut=    90.00 Ry     beta= 0.70
     Davidson diagonalization with overlap
     ethr =  2.67E-06,  avg # of iterations =  2.0

     total cpu time spent up to now is       19.3 secs

     total energy              =    -278.68307676 Ry
     estimated scf accuracy    <       0.00048166 Ry

     iteration #  8     ecut=    90.00 Ry     beta= 0.70
     Davidson diagonalization with overlap
     ethr =  7.53E-07,  avg # of iterations =  2.2

     total cpu time spent up to now is       21.6 secs

     total energy              =    -278.68315971 Ry
     estimated scf accuracy    <       0.00003255 Ry

     iteration #  9     ecut=    90.00 Ry     beta= 0.70
     Davidson diagonalization with overlap
     ethr =  5.09E-08,  avg # of iterations =  2.0

     total cpu time spent up to now is       23.6 secs

     total energy              =    -278.68316945 Ry
     estimated scf accuracy    <       0.00001783 Ry

     iteration # 10     ecut=    90.00 Ry     beta= 0.70
     Davidson diagonalization with overlap
     ethr =  2.79E-08,  avg # of iterations =  1.9

     total cpu time spent up to now is       25.4 secs

     total energy              =    -278.68316755 Ry
     estimated scf accuracy    <       0.00003331 Ry

     iteration # 11     ecut=    90.00 Ry     beta= 0.70
     Davidson diagonalization with overlap
     ethr =  2.79E-08,  avg # of iterations =  1.0

     total cpu time spent up to now is       27.0 secs

     total energy              =    -278.68316323 Ry
     estimated scf accuracy    <       0.00002538 Ry

     iteration # 12     ecut=    90.00 Ry     beta= 0.70
     Davidson diagonalization with overlap
     ethr =  2.79E-08,  avg # of iterations =  1.0

     total cpu time spent up to now is       28.5 secs

     total energy              =    -278.68316309 Ry
     estimated scf accuracy    <       0.00001280 Ry

     iteration # 13     ecut=    90.00 Ry     beta= 0.70
     Davidson diagonalization with overlap
     ethr =  2.00E-08,  avg # of iterations =  1.0

     total cpu time spent up to now is       30.2 secs

     total energy              =    -278.68316227 Ry
     estimated scf accuracy    <       0.00001167 Ry

     iteration # 14     ecut=    90.00 Ry     beta= 0.70
     Davidson diagonalization with overlap
     ethr =  1.82E-08,  avg # of iterations =  1.0

     total cpu time spent up to now is       31.8 secs

     total energy              =    -278.68316110 Ry
     estimated scf accuracy    <       0.00000796 Ry

     iteration # 15     ecut=    90.00 Ry     beta= 0.70
     Davidson diagonalization with overlap
     ethr =  1.24E-08,  avg # of iterations =  1.0

     total cpu time spent up to now is       33.4 secs

     total energy              =    -278.68315947 Ry
     estimated scf accuracy    <       0.00000380 Ry

     iteration # 16     ecut=    90.00 Ry     beta= 0.70
     Davidson diagonalization with overlap
     ethr =  5.93E-09,  avg # of iterations =  2.1

     total cpu time spent up to now is       35.6 secs

     total energy              =    -278.68316028 Ry
     estimated scf accuracy    <       0.00000012 Ry

     iteration # 17     ecut=    90.00 Ry     beta= 0.70
     Davidson diagonalization with overlap
     ethr =  1.80E-10,  avg # of iterations =  5.2

     total cpu time spent up to now is       39.1 secs

     total energy              =    -278.68316042 Ry
     estimated scf accuracy    <       0.00000018 Ry

     iteration # 18     ecut=    90.00 Ry     beta= 0.70
     Davidson diagonalization with overlap
     ethr =  1.80E-10,  avg # of iterations =  1.0

     total cpu time spent up to now is       40.7 secs

     total energy              =    -278.68316039 Ry
     estimated scf accuracy    <       0.00000014 Ry

     iteration # 19     ecut=    90.00 Ry     beta= 0.70
     Davidson diagonalization with overlap
     ethr =  1.80E-10,  avg # of iterations =  1.0

     total cpu time spent up to now is       42.2 secs

     End of self-consistent calculation

     Number of k-points >= 100: set verbosity='high' to print the bands.

     highest occupied level (ev):    -1.3551

!    total energy              =    -278.68316035 Ry
     estimated scf accuracy    <       0.00000007 Ry

     The total energy is the sum of the following terms:
     one-electron contribution =    -138.90864315 Ry
     hartree contribution      =      95.36948529 Ry
     xc contribution           =     -70.37144329 Ry
     ewald contribution        =    -164.77255920 Ry

     convergence has been achieved in  19 iterations

     Forces acting on atoms (cartesian axes, Ry/au):

     atom    1 type  2   force =     0.00000000    0.00000001    0.02851585
     atom    2 type  2   force =     0.00000000   -0.00000001   -0.02851585
     atom    3 type  2   force =     0.00000000    0.00000001    0.02862963
     atom    4 type  2   force =     0.00000000   -0.00000001   -0.02862963
     atom    5 type  2   force =     0.00000000    0.00000004    0.02853950
     atom    6 type  2   force =     0.00000000   -0.00000004   -0.02853950
     atom    7 type  2   force =     0.00000000    0.00000001    0.02855460
     atom    8 type  2   force =     0.00000000   -0.00000001   -0.02855460
     atom    9 type  1   force =     0.00000000   -0.02132601   -0.01458246
     atom   10 type  1   force =     0.00000000    0.02132601    0.01458246
     atom   11 type  1   force =     0.00000000    0.02131255   -0.01460713
     atom   12 type  1   force =     0.00000000   -0.02131255    0.01460713
     atom   13 type  1   force =     0.02132027    0.00000000   -0.01459114
     atom   14 type  1   force =    -0.02132027   -0.00000000    0.01459114
     atom   15 type  1   force =    -0.02131815    0.00000000   -0.01459686
     atom   16 type  1   force =     0.02131815   -0.00000000    0.01459686
     atom   17 type  1   force =    -0.02131815   -0.00000000    0.01459686
     atom   18 type  1   force =     0.02131815    0.00000000   -0.01459686
     atom   19 type  1   force =     0.02132027   -0.00000000    0.01459114
     atom   20 type  1   force =    -0.02132027    0.00000000   -0.01459114
     atom   21 type  1   force =     0.00000000   -0.02131255   -0.01460713
     atom   22 type  1   force =     0.00000000    0.02131255    0.01460713
     atom   23 type  1   force =     0.00000000    0.02132600   -0.01458245
     atom   24 type  1   force =     0.00000000   -0.02132600    0.01458245

     Total force =     0.131170     Total SCF correction =     0.000235


     Computing stress (Cartesian axis) and pressure

          total   stress  (Ry/bohr**3)                   (kbar)     P=      -38.77
  -0.00026074   0.00000000   0.00000000          -38.36        0.00        0.00
   0.00000000  -0.00026074  -0.00000000            0.00      -38.36       -0.00
   0.00000000  -0.00000000  -0.00026917            0.00       -0.00      -39.60


     BFGS Geometry Optimization
     Energy error            =      0.0E+00 Ry
     Gradient error          =      2.9E-02 Ry/Bohr

     number of scf cycles    =   1
     number of bfgs steps    =   0

     energy             new  =    -278.6831603501 Ry

     new trust radius        =       0.0286296349 bohr
     new conv_thr            =       0.0000001000 Ry


ATOMIC_POSITIONS (crystal)
O                0.0000000000        0.2500000009        0.6110140384
O                0.0000000000        0.7499999991        0.3889859906
O                0.5000000000        0.7500000013        0.1110225648
O                0.5000000000        0.2499999987        0.8889774062
O                0.0000000000        0.7500000042        0.8610158171
O                0.0000000000        0.2499999958        0.1389842119
O                0.5000000000        0.2500000009        0.3610169233
O                0.5000000000        0.7499999991        0.6389830477
H                0.0000000000        0.4119375242        0.6942236046
H                0.0000000000        0.5880624458        0.3057763954
H                0.5000000000        0.5880609869        0.1942217495
H                0.5000000000        0.4119389831        0.8057782505
H                0.8380618236        0.7500000003        0.9442229520
H                0.1619381464        0.2499999997        0.0557770480
H                0.6619384064        0.2500000003        0.4442225215
H                0.3380616236        0.7499999997        0.5557774785
H                0.6619384064        0.7499999997        0.5557774785
H                0.3380616236        0.2500000003        0.4442225215
H                0.8380618236        0.2499999997        0.0557770480
H                0.1619381464        0.7500000003        0.9442229520
H                0.5000000000        0.9119390132        0.1942217493
H                0.5000000000        0.0880610168        0.8057782507
H                0.0000000000        0.0880624756        0.6942236049
H                0.0000000000        0.9119375544        0.3057763951



     Writing config-only to output data dir ./iceVIII/iceVIII.save/ :
     XML data file
     NEW-OLD atomic charge density approx. for the potential

     total cpu time spent up to now is       44.5 secs

     per-process dynamical memory:    22.8 Mb

     Self-consistent Calculation

     iteration #  1     ecut=    90.00 Ry     beta= 0.70
     Davidson diagonalization with overlap
     ethr =  1.00E-06,  avg # of iterations =  7.0

     total cpu time spent up to now is       49.0 secs

     total energy              =    -278.68631252 Ry
     estimated scf accuracy    <       0.00688394 Ry

     iteration #  2     ecut=    90.00 Ry     beta= 0.70
     Davidson diagonalization with overlap
     ethr =  1.08E-05,  avg # of iterations =  3.0

     total cpu time spent up to now is       51.7 secs

     total energy              =    -278.68835575 Ry
     estimated scf accuracy    <       0.00371988 Ry

     iteration #  3     ecut=    90.00 Ry     beta= 0.70
     Davidson diagonalization with overlap
     ethr =  5.81E-06,  avg # of iterations =  2.0

     total cpu time spent up to now is       53.8 secs

     total energy              =    -278.68892431 Ry
     estimated scf accuracy    <       0.00010009 Ry

     iteration #  4     ecut=    90.00 Ry     beta= 0.70
     Davidson diagonalization with overlap
     ethr =  1.56E-07,  avg # of iterations =  4.0

     total cpu time spent up to now is       57.1 secs

     total energy              =    -278.68900661 Ry
     estimated scf accuracy    <       0.00012302 Ry

     iteration #  5     ecut=    90.00 Ry     beta= 0.70
     Davidson diagonalization with overlap
     ethr =  1.56E-07,  avg # of iterations =  2.0

     total cpu time spent up to now is       59.4 secs

     total energy              =    -278.68902394 Ry
     estimated scf accuracy    <       0.00000271 Ry

     iteration #  6     ecut=    90.00 Ry     beta= 0.70
     Davidson diagonalization with overlap
     ethr =  4.24E-09,  avg # of iterations =  4.0

     total cpu time spent up to now is       62.7 secs

     total energy              =    -278.68902608 Ry
     estimated scf accuracy    <       0.00000455 Ry

     iteration #  7     ecut=    90.00 Ry     beta= 0.70
     Davidson diagonalization with overlap
     ethr =  4.24E-09,  avg # of iterations =  2.0

     total cpu time spent up to now is       65.0 secs

     total energy              =    -278.68902645 Ry
     estimated scf accuracy    <       0.00000030 Ry

     iteration #  8     ecut=    90.00 Ry     beta= 0.70
     Davidson diagonalization with overlap
     ethr =  4.70E-10,  avg # of iterations =  3.0

     total cpu time spent up to now is       67.8 secs

     total energy              =    -278.68902664 Ry
     estimated scf accuracy    <       0.00000011 Ry

     iteration #  9     ecut=    90.00 Ry     beta= 0.70
     Davidson diagonalization with overlap
     ethr =  1.64E-10,  avg # of iterations =  2.0

     total cpu time spent up to now is       69.6 secs

     End of self-consistent calculation

     Number of k-points >= 100: set verbosity='high' to print the bands.

     highest occupied level (ev):    -1.3958

!    total energy              =    -278.68902660 Ry
     estimated scf accuracy    <       0.00000005 Ry

     The total energy is the sum of the following terms:
     one-electron contribution =    -141.60049214 Ry
     hartree contribution      =      96.56178070 Ry
     xc contribution           =     -70.65347331 Ry
     ewald contribution        =    -162.99684186 Ry

     convergence has been achieved in   9 iterations

     Forces acting on atoms (cartesian axes, Ry/au):

     atom    1 type  2   force =     0.00000000   -0.00000001   -0.01514273
     atom    2 type  2   force =     0.00000000    0.00000001    0.01514273
     atom    3 type  2   force =     0.00000000   -0.00000002   -0.01511311
     atom    4 type  2   force =     0.00000000    0.00000002    0.01511311
     atom    5 type  2   force =     0.00000000   -0.00000000   -0.01507067
     atom    6 type  2   force =     0.00000000    0.00000000    0.01507067
     atom    7 type  2   force =     0.00000000   -0.00000000   -0.01517667
     atom    8 type  2   force =     0.00000000    0.00000000    0.01517667
     atom    9 type  1   force =     0.00000000    0.00329773    0.00661855
     atom   10 type  1   force =     0.00000000   -0.00329773   -0.00661855
     atom   11 type  1   force =     0.00000000   -0.00334658    0.00663800
     atom   12 type  1   force =     0.00000000    0.00334658   -0.00663800
     atom   13 type  1   force =    -0.00330915    0.00000000    0.00662332
     atom   14 type  1   force =     0.00330915   -0.00000000   -0.00662332
     atom   15 type  1   force =     0.00331691    0.00000000    0.00661308
     atom   16 type  1   force =    -0.00331691   -0.00000000   -0.00661308
     atom   17 type  1   force =     0.00331691   -0.00000000   -0.00661308
     atom   18 type  1   force =    -0.00331691    0.00000000    0.00661308
     atom   19 type  1   force =    -0.00330915   -0.00000000   -0.00662332
     atom   20 type  1   force =     0.00330915    0.00000000    0.00662332
     atom   21 type  1   force =     0.00000000    0.00334660    0.00663801
     atom   22 type  1   force =     0.00000000   -0.00334660   -0.00663801
     atom   23 type  1   force =     0.00000000   -0.00329772    0.00661854
     atom   24 type  1   force =     0.00000000    0.00329772   -0.00661854

     Total force =     0.052041     Total SCF correction =     0.000216


     Computing stress (Cartesian axis) and pressure

          total   stress  (Ry/bohr**3)                   (kbar)     P=        6.71
   0.00002370   0.00000000   0.00000000            3.49        0.00        0.00
   0.00000000   0.00002381   0.00000000            0.00        3.50        0.00
   0.00000000   0.00000000   0.00008936            0.00        0.00       13.14

     Energy error            =      5.9E-03 Ry
     Gradient error          =      1.5E-02 Ry/Bohr

     number of scf cycles    =   2
     number of bfgs steps    =   1

     energy             old  =    -278.6831603501 Ry
     energy             new  =    -278.6890266050 Ry

     CASE: energy            _new < energy            _old

     new trust radius        =       0.0107177208 bohr
     new conv_thr            =       0.0000000152 Ry


ATOMIC_POSITIONS (crystal)
O                0.0000000000        0.2499999999        0.6102100425
O                0.0000000000        0.7500000001        0.3897899865
O                0.5000000000        0.7500000000        0.1102203518
O                0.5000000000        0.2500000000        0.8897796192
O                0.0000000000        0.7500000041        0.8602158444
O                0.0000000000        0.2499999959        0.1397841846
O                0.5000000000        0.2500000009        0.3602110944
O                0.5000000000        0.7499999991        0.6397888766
H                0.0000000000        0.4121630516        0.6945723899
H                0.0000000000        0.5878369184        0.3054276101
H                0.5000000000        0.5878315306        0.1945715826
H                0.5000000000        0.4121684394        0.8054284174
H                0.8378353731        0.7500000004        0.9445719912
H                0.1621645969        0.2499999996        0.0554280088
H                0.6621654804        0.2500000003        0.4445709863
H                0.3378345496        0.7499999997        0.5554290137
H                0.6621654804        0.7499999997        0.5554290137
H                0.3378345496        0.2500000003        0.4445709863
H                0.8378353731        0.2499999996        0.0554280088
H                0.1621645969        0.7500000004        0.9445719912
H                0.5000000000        0.9121684707        0.1945715830
H                0.5000000000        0.0878315593        0.8054284170
H                0.0000000000        0.0878369491        0.6945723898
H                0.0000000000        0.9121630809        0.3054276102



     Writing config-only to output data dir ./iceVIII/iceVIII.save/ :
     XML data file
     NEW-OLD atomic charge density approx. for the potential

     total cpu time spent up to now is       71.7 secs

     per-process dynamical memory:    22.8 Mb

     Self-consistent Calculation

     iteration #  1     ecut=    90.00 Ry     beta= 0.70
     Davidson diagonalization with overlap
     ethr =  1.00E-06,  avg # of iterations =  4.0

     total cpu time spent up to now is       74.9 secs

     total energy              =    -278.68980377 Ry
     estimated scf accuracy    <       0.00055369 Ry

     iteration #  2     ecut=    90.00 Ry     beta= 0.70
     Davidson diagonalization with overlap
     ethr =  8.65E-07,  avg # of iterations =  3.0

     total cpu time spent up to now is       77.7 secs

     total energy              =    -278.68996449 Ry
     estimated scf accuracy    <       0.00030015 Ry

     iteration #  3     ecut=    90.00 Ry     beta= 0.70
     Davidson diagonalization with overlap
     ethr =  4.69E-07,  avg # of iterations =  2.0

     total cpu time spent up to now is       79.7 secs

     total energy              =    -278.69001179 Ry
     estimated scf accuracy    <       0.00000815 Ry

     iteration #  4     ecut=    90.00 Ry     beta= 0.70
     Davidson diagonalization with overlap
     ethr =  1.27E-08,  avg # of iterations =  4.1

     total cpu time spent up to now is       83.0 secs

     total energy              =    -278.69001869 Ry
     estimated scf accuracy    <       0.00001120 Ry

     iteration #  5     ecut=    90.00 Ry     beta= 0.70
     Davidson diagonalization with overlap
     ethr =  1.27E-08,  avg # of iterations =  2.0

     total cpu time spent up to now is       85.3 secs

     total energy              =    -278.69002044 Ry
     estimated scf accuracy    <       0.00000017 Ry

     iteration #  6     ecut=    90.00 Ry     beta= 0.70
     Davidson diagonalization with overlap
     ethr =  2.69E-10,  avg # of iterations =  4.1

     total cpu time spent up to now is       88.7 secs

     total energy              =    -278.69002059 Ry
     estimated scf accuracy    <       0.00000041 Ry

     iteration #  7     ecut=    90.00 Ry     beta= 0.70
     Davidson diagonalization with overlap
     ethr =  2.69E-10,  avg # of iterations =  2.0

     total cpu time spent up to now is       91.0 secs

     total energy              =    -278.69002062 Ry
     estimated scf accuracy    <       0.00000003 Ry

     iteration #  8     ecut=    90.00 Ry     beta= 0.70
     Davidson diagonalization with overlap
     ethr =  5.21E-11,  avg # of iterations =  3.0

     total cpu time spent up to now is       93.8 secs

     End of self-consistent calculation

     Number of k-points >= 100: set verbosity='high' to print the bands.

     highest occupied level (ev):    -1.3877

!    total energy              =    -278.69002064 Ry
     estimated scf accuracy    <          8.3E-09 Ry

     The total energy is the sum of the following terms:
     one-electron contribution =    -140.91772487 Ry
     hartree contribution      =      96.25580031 Ry
     xc contribution           =     -70.58055170 Ry
     ewald contribution        =    -163.44754437 Ry

     convergence has been achieved in   8 iterations

     Forces acting on atoms (cartesian axes, Ry/au):

     atom    1 type  2   force =     0.00000000    0.00000001   -0.00198672
     atom    2 type  2   force =     0.00000000   -0.00000001    0.00198672
     atom    3 type  2   force =     0.00000000    0.00000001   -0.00194191
     atom    4 type  2   force =     0.00000000   -0.00000001    0.00194191
     atom    5 type  2   force =    -0.00000000   -0.00000000   -0.00197025
     atom    6 type  2   force =    -0.00000000    0.00000000    0.00197025
     atom    7 type  2   force =     0.00000000   -0.00000000   -0.00198097
     atom    8 type  2   force =     0.00000000    0.00000000    0.00198097
     atom    9 type  1   force =     0.00000000   -0.00257397    0.00025342
     atom   10 type  1   force =     0.00000000    0.00257397   -0.00025342
     atom   11 type  1   force =     0.00000000    0.00254789    0.00026360
     atom   12 type  1   force =     0.00000000   -0.00254789   -0.00026360
     atom   13 type  1   force =     0.00255295    0.00000000    0.00027295
     atom   14 type  1   force =    -0.00255295   -0.00000000   -0.00027295
     atom   15 type  1   force =    -0.00257099    0.00000000    0.00023772
     atom   16 type  1   force =     0.00257099   -0.00000000   -0.00023772
     atom   17 type  1   force =    -0.00257099   -0.00000000   -0.00023772
     atom   18 type  1   force =     0.00257099    0.00000000    0.00023772
     atom   19 type  1   force =     0.00255295   -0.00000000   -0.00027295
     atom   20 type  1   force =    -0.00255295    0.00000000    0.00027295
     atom   21 type  1   force =     0.00000000   -0.00254790    0.00026360
     atom   22 type  1   force =     0.00000000    0.00254790   -0.00026360
     atom   23 type  1   force =     0.00000000    0.00257397    0.00025342
     atom   24 type  1   force =     0.00000000   -0.00257397   -0.00025342

     Total force =     0.011708     Total SCF correction =     0.000086


     Computing stress (Cartesian axis) and pressure

          total   stress  (Ry/bohr**3)                   (kbar)     P=       -5.22
  -0.00004677   0.00000000   0.00000000           -6.88        0.00        0.00
   0.00000000  -0.00004675  -0.00000000            0.00       -6.88       -0.00
   0.00000000  -0.00000000  -0.00001302            0.00       -0.00       -1.92

     Energy error            =      9.9E-04 Ry
     Gradient error          =      2.6E-03 Ry/Bohr

     number of scf cycles    =   3
     number of bfgs steps    =   2

     energy             old  =    -278.6890266050 Ry
     energy             new  =    -278.6900206356 Ry

     CASE: energy            _new < energy            _old

     new trust radius        =       0.0028713564 bohr
     new conv_thr            =       0.0000000026 Ry


ATOMIC_POSITIONS (crystal)
O                0.0000000000        0.2500000005        0.6099941550
O                0.0000000000        0.7499999995        0.3900058740
O                0.5000000000        0.7500000008        0.1100083087
O                0.5000000000        0.2499999992        0.8899916623
O               -0.0000000000        0.7500000038        0.8600017028
O               -0.0000000000        0.2499999962        0.1399983262
O                0.5000000000        0.2500000009        0.3599955078
O                0.5000000000        0.7499999991        0.6400044632
H                0.0000000000        0.4118643448        0.6946157559
H                0.0000000000        0.5881356252        0.3053842441
H                0.5000000000        0.5881268253        0.1946158443
H                0.5000000000        0.4118731447        0.8053841557
H                0.8381315688        0.7500000005        0.9446169275
H                0.1618684012        0.2499999995        0.0553830725
H                0.6618672859        0.2500000003        0.4446130592
H                0.3381327441        0.7499999997        0.5553869408
H                0.6618672859        0.7499999997        0.5553869408
H                0.3381327441        0.2500000003        0.4446130592
H                0.8381315688        0.2499999995        0.0553830725
H                0.1618684012        0.7500000005        0.9446169275
H                0.5000000000        0.9118731752        0.1946158442
H                0.5000000000        0.0881268548        0.8053841558
H                0.0000000000        0.0881356554        0.6946157561
H                0.0000000000        0.9118643746        0.3053842439



     Writing config-only to output data dir ./iceVIII/iceVIII.save/ :
     XML data file
     NEW-OLD atomic charge density approx. for the potential

     total cpu time spent up to now is       96.1 secs

     per-process dynamical memory:    22.8 Mb

     Self-consistent Calculation

     iteration #  1     ecut=    90.00 Ry     beta= 0.70
     Davidson diagonalization with overlap
     ethr =  1.00E-06,  avg # of iterations =  2.0

     Threshold (ethr) on eigenvalues was too large:
     Diagonalizing with lowered threshold

     Davidson diagonalization with overlap
     ethr =  1.19E-08,  avg # of iterations =  3.4

     total cpu time spent up to now is      100.9 secs

     total energy              =    -278.69014671 Ry
     estimated scf accuracy    <       0.00000946 Ry

     iteration #  2     ecut=    90.00 Ry     beta= 0.70
     Davidson diagonalization with overlap
     ethr =  1.48E-08,  avg # of iterations =  2.0

     total cpu time spent up to now is      103.1 secs

     total energy              =    -278.69014835 Ry
     estimated scf accuracy    <       0.00000071 Ry

     iteration #  3     ecut=    90.00 Ry     beta= 0.70
     Davidson diagonalization with overlap
     ethr =  1.11E-09,  avg # of iterations =  2.0

     total cpu time spent up to now is      105.4 secs

     total energy              =    -278.69014853 Ry
     estimated scf accuracy    <       0.00000013 Ry

     iteration #  4     ecut=    90.00 Ry     beta= 0.70
     Davidson diagonalization with overlap
     ethr =  1.97E-10,  avg # of iterations =  2.0

     total cpu time spent up to now is      107.4 secs

     total energy              =    -278.69014855 Ry
     estimated scf accuracy    <          5.4E-09 Ry

     iteration #  5     ecut=    90.00 Ry     beta= 0.70
     Davidson diagonalization with overlap
     ethr =  8.43E-12,  avg # of iterations =  3.7

     total cpu time spent up to now is      110.0 secs

     total energy              =    -278.69014855 Ry
     estimated scf accuracy    <          2.7E-09 Ry

     iteration #  6     ecut=    90.00 Ry     beta= 0.70
     Davidson diagonalization with overlap
     ethr =  4.14E-12,  avg # of iterations =  2.0

     total cpu time spent up to now is      112.1 secs

     End of self-consistent calculation

     Number of k-points >= 100: set verbosity='high' to print the bands.

     highest occupied level (ev):    -1.3902

!    total energy              =    -278.69014855 Ry
     estimated scf accuracy    <          8.6E-11 Ry

     The total energy is the sum of the following terms:
     one-electron contribution =    -140.94013737 Ry
     hartree contribution      =      96.26488697 Ry
     xc contribution           =     -70.58171531 Ry
     ewald contribution        =    -163.43318284 Ry

     convergence has been achieved in   6 iterations

     Forces acting on atoms (cartesian axes, Ry/au):

     atom    1 type  2   force =    -0.00000000   -0.00000000   -0.00088833
     atom    2 type  2   force =    -0.00000000    0.00000000    0.00088833
     atom    3 type  2   force =     0.00000000   -0.00000001   -0.00085868
     atom    4 type  2   force =     0.00000000    0.00000001    0.00085868
     atom    5 type  2   force =    -0.00000000   -0.00000000   -0.00086899
     atom    6 type  2   force =    -0.00000000    0.00000000    0.00086899
     atom    7 type  2   force =    -0.00000000   -0.00000000   -0.00089270
     atom    8 type  2   force =    -0.00000000    0.00000000    0.00089270
     atom    9 type  1   force =     0.00000000   -0.00179872   -0.00025063
     atom   10 type  1   force =     0.00000000    0.00179872    0.00025063
     atom   11 type  1   force =     0.00000000    0.00178046   -0.00023485
     atom   12 type  1   force =     0.00000000   -0.00178046    0.00023485
     atom   13 type  1   force =     0.00179236    0.00000000   -0.00023714
     atom   14 type  1   force =    -0.00179236   -0.00000000    0.00023714
     atom   15 type  1   force =    -0.00179185    0.00000000   -0.00025931
     atom   16 type  1   force =     0.00179185   -0.00000000    0.00025931
     atom   17 type  1   force =    -0.00179185   -0.00000000    0.00025931
     atom   18 type  1   force =     0.00179185    0.00000000   -0.00025931
     atom   19 type  1   force =     0.00179236   -0.00000000    0.00023714
     atom   20 type  1   force =    -0.00179236    0.00000000   -0.00023714
     atom   21 type  1   force =     0.00000000   -0.00178045   -0.00023484
     atom   22 type  1   force =     0.00000000    0.00178045    0.00023484
     atom   23 type  1   force =     0.00000000    0.00179872   -0.00025063
     atom   24 type  1   force =     0.00000000   -0.00179872    0.00025063

     Total force =     0.007644     Total SCF correction =     0.000031


     Computing stress (Cartesian axis) and pressure

          total   stress  (Ry/bohr**3)                   (kbar)     P=       -4.57
  -0.00003823   0.00000000   0.00000000           -5.62        0.00        0.00
   0.00000000  -0.00003819   0.00000000            0.00       -5.62        0.00
   0.00000000   0.00000000  -0.00001684            0.00        0.00       -2.48

     Energy error            =      1.3E-04 Ry
     Gradient error          =      1.8E-03 Ry/Bohr

     number of scf cycles    =   4
     number of bfgs steps    =   3

     energy             old  =    -278.6900206356 Ry
     energy             new  =    -278.6901485524 Ry

     CASE: energy            _new < energy            _old

     new trust radius        =       0.0031584920 bohr
     new conv_thr            =       0.0000000013 Ry


ATOMIC_POSITIONS (crystal)
O               -0.0000000000        0.2499999996        0.6097855073
O               -0.0000000000        0.7500000004        0.3902145217
O                0.5000000000        0.7499999995        0.1098039810
O                0.5000000000        0.2500000005        0.8901959900
O               -0.0000000000        0.7500000033        0.8597961454
O               -0.0000000000        0.2499999967        0.1402038836
O                0.5000000000        0.2500000008        0.3597861308
O                0.5000000000        0.7499999992        0.6402138402
H                0.0000000000        0.4115219491        0.6946212264
H                0.0000000000        0.5884780209        0.3053787736
H                0.5000000000        0.5884651468        0.1946234694
H                0.5000000000        0.4115348232        0.8053765306
H                0.8384725021        0.7500000007        0.9446242272
H                0.1615274679        0.2499999993        0.0553757728
H                0.6615263762        0.2500000004        0.4446172938
H                0.3384736538        0.7499999996        0.5553827062
H                0.6615263762        0.7499999996        0.5553827062
H                0.3384736538        0.2500000004        0.4446172938
H                0.8384725021        0.2499999993        0.0553757728
H                0.1615274679        0.7500000007        0.9446242272
H                0.5000000000        0.9115348548        0.1946234698
H                0.5000000000        0.0884651752        0.8053765302
H                0.0000000000        0.0884780521        0.6946212262
H                0.0000000000        0.9115219779        0.3053787738



     Writing config-only to output data dir ./iceVIII/iceVIII.save/ :
     XML data file
     NEW-OLD atomic charge density approx. for the potential

     total cpu time spent up to now is      114.3 secs

     per-process dynamical memory:    22.8 Mb

     Self-consistent Calculation

     iteration #  1     ecut=    90.00 Ry     beta= 0.70
     Davidson diagonalization with overlap
     ethr =  1.00E-06,  avg # of iterations =  2.0

     Threshold (ethr) on eigenvalues was too large:
     Diagonalizing with lowered threshold

     Davidson diagonalization with overlap
     ethr =  1.02E-08,  avg # of iterations =  4.2

     total cpu time spent up to now is      119.2 secs

     total energy              =    -278.69022116 Ry
     estimated scf accuracy    <       0.00000922 Ry

     iteration #  2     ecut=    90.00 Ry     beta= 0.70
     Davidson diagonalization with overlap
     ethr =  1.44E-08,  avg # of iterations =  2.0

     total cpu time spent up to now is      121.3 secs

     total energy              =    -278.69022262 Ry
     estimated scf accuracy    <       0.00000044 Ry

     iteration #  3     ecut=    90.00 Ry     beta= 0.70
     Davidson diagonalization with overlap
     ethr =  6.83E-10,  avg # of iterations =  2.0

     total cpu time spent up to now is      123.4 secs

     total energy              =    -278.69022270 Ry
     estimated scf accuracy    <       0.00000005 Ry

     iteration #  4     ecut=    90.00 Ry     beta= 0.70
     Davidson diagonalization with overlap
     ethr =  7.69E-11,  avg # of iterations =  2.1

     total cpu time spent up to now is      125.6 secs

     total energy              =    -278.69022271 Ry
     estimated scf accuracy    <          3.8E-09 Ry

     iteration #  5     ecut=    90.00 Ry     beta= 0.70
     Davidson diagonalization with overlap
     ethr =  5.88E-12,  avg # of iterations =  2.1

     total cpu time spent up to now is      127.7 secs

     End of self-consistent calculation

     Number of k-points >= 100: set verbosity='high' to print the bands.

     highest occupied level (ev):    -1.3933

!    total energy              =    -278.69022271 Ry
     estimated scf accuracy    <          1.6E-10 Ry

     The total energy is the sum of the following terms:
     one-electron contribution =    -141.00648495 Ry
     hartree contribution      =      96.29266842 Ry
     xc contribution           =     -70.58703847 Ry
     ewald contribution        =    -163.38936771 Ry

     convergence has been achieved in   5 iterations

     Forces acting on atoms (cartesian axes, Ry/au):

     atom    1 type  2   force =     0.00000000    0.00000001   -0.00046533
     atom    2 type  2   force =     0.00000000   -0.00000001    0.00046533
     atom    3 type  2   force =     0.00000000    0.00000002   -0.00043933
     atom    4 type  2   force =     0.00000000   -0.00000002    0.00043933
     atom    5 type  2   force =     0.00000000   -0.00000000   -0.00045908
     atom    6 type  2   force =     0.00000000    0.00000000    0.00045908
     atom    7 type  2   force =    -0.00000000   -0.00000000   -0.00046268
     atom    8 type  2   force =    -0.00000000    0.00000000    0.00046268
     atom    9 type  1   force =     0.00000000   -0.00059232   -0.00041412
     atom   10 type  1   force =     0.00000000    0.00059232    0.00041412
     atom   11 type  1   force =     0.00000000    0.00058884   -0.00039916
     atom   12 type  1   force =     0.00000000   -0.00058884    0.00039916
     atom   13 type  1   force =     0.00058931    0.00000000   -0.00039832
     atom   14 type  1   force =    -0.00058931   -0.00000000    0.00039832
     atom   15 type  1   force =    -0.00059184   -0.00000000   -0.00042434
     atom   16 type  1   force =     0.00059184    0.00000000    0.00042434
     atom   17 type  1   force =    -0.00059184    0.00000000    0.00042434
     atom   18 type  1   force =     0.00059184   -0.00000000   -0.00042434
     atom   19 type  1   force =     0.00058931   -0.00000000    0.00039832
     atom   20 type  1   force =    -0.00058931    0.00000000   -0.00039832
     atom   21 type  1   force =     0.00000000   -0.00058886   -0.00039917
     atom   22 type  1   force =     0.00000000    0.00058886    0.00039917
     atom   23 type  1   force =     0.00000000    0.00059231   -0.00041411
     atom   24 type  1   force =     0.00000000   -0.00059231    0.00041411

     Total force =     0.003151     Total SCF correction =     0.000020


     Computing stress (Cartesian axis) and pressure

          total   stress  (Ry/bohr**3)                   (kbar)     P=       -3.38
  -0.00002630   0.00000000   0.00000000           -3.87        0.00        0.00
   0.00000000  -0.00002628  -0.00000000            0.00       -3.87       -0.00
   0.00000000  -0.00000000  -0.00001644            0.00       -0.00       -2.42

     Energy error            =      7.4E-05 Ry
     Gradient error          =      5.9E-04 Ry/Bohr

     bfgs converged in   5 scf cycles and   4 bfgs steps
     (criteria: energy <  1.0E-04 Ry, force <  1.0E-03 Ry/Bohr)

     End of BFGS Geometry Optimization

     Final energy             =    -278.6902227062 Ry

     File ./iceVIII/iceVIII.bfgs deleted, as requested
Begin final coordinates

ATOMIC_POSITIONS (crystal)
O               -0.0000000000        0.2499999996        0.6097855073
O               -0.0000000000        0.7500000004        0.3902145217
O                0.5000000000        0.7499999995        0.1098039810
O                0.5000000000        0.2500000005        0.8901959900
O               -0.0000000000        0.7500000033        0.8597961454
O               -0.0000000000        0.2499999967        0.1402038836
O                0.5000000000        0.2500000008        0.3597861308
O                0.5000000000        0.7499999992        0.6402138402
H                0.0000000000        0.4115219491        0.6946212264
H                0.0000000000        0.5884780209        0.3053787736
H                0.5000000000        0.5884651468        0.1946234694
H                0.5000000000        0.4115348232        0.8053765306
H                0.8384725021        0.7500000007        0.9446242272
H                0.1615274679        0.2499999993        0.0553757728
H                0.6615263762        0.2500000004        0.4446172938
H                0.3384736538        0.7499999996        0.5553827062
H                0.6615263762        0.7499999996        0.5553827062
H                0.3384736538        0.2500000004        0.4446172938
H                0.8384725021        0.2499999993        0.0553757728
H                0.1615274679        0.7500000007        0.9446242272
H                0.5000000000        0.9115348548        0.1946234698
H                0.5000000000        0.0884651752        0.8053765302
H                0.0000000000        0.0884780521        0.6946212262
H                0.0000000000        0.9115219779        0.3053787738
End final coordinates



     Writing all to output data dir ./iceVIII/iceVIII.save/ :
     XML data file, charge density, pseudopotentials, collected wavefunctions

     init_run     :      2.92s CPU      3.00s WALL (       1 calls)
     electrons    :    113.31s CPU    115.85s WALL (       5 calls)
     update_pot   :      0.18s CPU      0.21s WALL (       4 calls)
     forces       :      0.71s CPU      0.73s WALL (       5 calls)
     stress       :      9.35s CPU      9.40s WALL (       5 calls)

     Called by init_run:
     wfcinit      :      0.95s CPU      0.97s WALL (       1 calls)
     potinit      :      1.57s CPU      1.60s WALL (       1 calls)
     hinit0       :      0.33s CPU      0.35s WALL (       1 calls)

     Called by electrons:
     c_bands      :     98.57s CPU    100.55s WALL (      49 calls)
     sum_band     :     12.39s CPU     12.56s WALL (      49 calls)
     v_of_rho     :      3.86s CPU      4.13s WALL (      52 calls)
     newd         :      0.07s CPU      0.10s WALL (      52 calls)
     mix_rho      :      0.08s CPU      0.08s WALL (      49 calls)
     vdW_kernel   :      1.52s CPU      1.52s WALL (       1 calls)

     Called by c_bands:
     init_us_2    :      1.36s CPU      1.42s WALL (    3924 calls)
     cegterg      :     95.78s CPU     96.98s WALL (    1764 calls)

     Called by *egterg:
     cdiaghg      :     10.06s CPU     10.14s WALL (    5943 calls)
     h_psi        :     72.28s CPU     73.29s WALL (    6195 calls)
     s_psi        :      2.73s CPU      2.77s WALL (    6195 calls)
     g_psi        :      0.24s CPU      0.25s WALL (    4395 calls)

     Called by h_psi:
     h_psi:calbec :      3.90s CPU      3.95s WALL (    6195 calls)
     vloc_psi     :     65.10s CPU     66.02s WALL (    6195 calls)
     add_vuspsi   :      2.88s CPU      2.92s WALL (    6195 calls)

     General routines
     calbec       :      5.50s CPU      5.57s WALL (    8859 calls)
     fft          :      1.58s CPU      1.62s WALL (    3438 calls)
     ffts         :      0.02s CPU      0.02s WALL (      49 calls)
     fftw         :     69.06s CPU     70.01s WALL (  399348 calls)

     Parallel routines

     PWSCF        :   2m 7.53s CPU   2m12.05s WALL


   This run was terminated on:  15:34:52   1Apr2026            

=------------------------------------------------------------------------------=
   JOB DONE.
=------------------------------------------------------------------------------=
