
     Program PWSCF v.7.3.1 starts on 26Mar2026 at 16:16:58 

     This program is part of the open-source Quantum ESPRESSO suite
     for quantum simulation of materials; please cite
         "P. Giannozzi et al., J. Phys.:Condens. Matter 21 395502 (2009);
         "P. Giannozzi et al., J. Phys.:Condens. Matter 29 465901 (2017);
         "P. Giannozzi et al., J. Chem. Phys. 152 154105 (2020);
          URL http://www.quantum-espresso.org", 
     in publications or presentations arising from this work. More details at
     http://www.quantum-espresso.org/quote

     Parallel version (MPI), running on   128 processors

     MPI processes distributed on     1 nodes
     241737 MiB available memory on the printing compute node when the environment starts

     Waiting for input...
     Reading input from standard input

     Current dimensions of program PWSCF are:
     Max number of different atomic species (ntypx) = 10
     Max number of k-points (npk) =  40000
     Max angular momentum in pseudopotentials (lmaxx) =  4

     IMPORTANT: XC functional enforced from input :
     Exchange-correlation= VDW-DF2
                           (   1   4  13   0   2   0   0)
     Any further DFT definition will be discarded
     Please, verify this is what you really want

     Found identity + ( -0.5000 -0.5000 -0.5000) symmetry
     This is a supercell, fractional translations are disabled

     K-points division:     npool     =       4
     R & G space division:  proc/nbgrp/npool/nimage =      32
     Subspace diagonalization in iterative solution of the eigenvalue problem:
     a serial algorithm will be used


     Parallelization info
     --------------------
     sticks:   dense  smooth     PW     G-vecs:    dense   smooth      PW
     Min          77      77     21                 4185     4185     605
     Max          78      78     22                 4188     4188     612
     Sum        2477    2477    673               133981   133981   19387

     Using Slab Decomposition



     bravais-lattice index     =            6
     lattice parameter (alat)  =       9.3021  a.u.
     unit-cell volume          =    1160.8248 (a.u.)^3
     number of atoms/cell      =           24
     number of atomic types    =            2
     number of electrons       =        64.00
     number of Kohn-Sham states=           32
     kinetic-energy cutoff     =      90.0000  Ry
     charge density cutoff     =     360.0000  Ry
     scf convergence threshold =      1.0E-07
     mixing beta               =       0.7000
     number of iterations used =            8  plain     mixing
     Exchange-correlation= VDW-DF2
                           (   1   4  13   0   2   0   0)

     celldm(1)=   9.302093  celldm(2)=   0.000000  celldm(3)=   1.442197
     celldm(4)=   0.000000  celldm(5)=   0.000000  celldm(6)=   0.000000

     crystal axes: (cart. coord. in units of alat)
               a(1) = (   1.000000   0.000000   0.000000 )  
               a(2) = (   0.000000   1.000000   0.000000 )  
               a(3) = (   0.000000   0.000000   1.442197 )  

     reciprocal axes: (cart. coord. in units 2 pi/alat)
               b(1) = (  1.000000  0.000000  0.000000 )  
               b(2) = (  0.000000  1.000000  0.000000 )  
               b(3) = (  0.000000  0.000000  0.693386 )  


     PseudoPot. # 1 for H  read from file:
     ./H.pbe-van_ak.UPF
     MD5 check sum: 077eb6d537518a38cb46c6de387227b7
     Pseudo is Ultrasoft, Zval =  1.0
     Generated by new atomic code, or converted to UPF format
     Using radial grid of  615 points,  1 beta functions with: 
                l(1) =   0
     Q(r) pseudized with  8 coefficients,  rinner =    0.800

     PseudoPot. # 2 for O  read from file:
     ./O.pbe-van_ak.UPF
     MD5 check sum: 78c19812648e8988a0fe644b0f25305e
     Pseudo is Ultrasoft, Zval =  6.0
     Generated by new atomic code, or converted to UPF format
     Using radial grid of  737 points,  4 beta functions with: 
                l(1) =   0
                l(2) =   0
                l(3) =   1
                l(4) =   1
     Q(r) pseudized with  8 coefficients,  rinner =    0.800   0.800   0.800


     atomic species   valence    mass     pseudopotential
     H                 1.00     1.00800     H ( 1.00)
     O                 6.00    16.00000     O ( 1.00)

      4 Sym. Ops., with inversion, found



   Cartesian axes

     site n.     atom                  positions (alat units)
         1        O      tau(   1) = (   0.0000000   0.2500000   0.8763462  )
         2        O      tau(   2) = (   0.0000000   0.7500000   0.5658510  )
         3        O      tau(   3) = (   0.5000000   0.7500000   0.1552476  )
         4        O      tau(   4) = (   0.5000000   0.2500000   1.2869495  )
         5        O      tau(   5) = (   0.0000000   0.7500000   1.2368921  )
         6        O      tau(   6) = (   0.0000000   0.2500000   0.2053051  )
         7        O      tau(   7) = (   0.5000000   0.2500000   0.5157934  )
         8        O      tau(   8) = (   0.5000000   0.7500000   0.9264037  )
         9        H      tau(   9) = (   0.0000000   0.4175939   1.0039395  )
        10        H      tau(  10) = (   0.0000000   0.5824060   0.4382577  )
        11        H      tau(  11) = (   0.5000000   0.5824060   0.2828409  )
        12        H      tau(  12) = (   0.5000000   0.4175939   1.1593562  )
        13        H      tau(  13) = (   0.8324057   0.7500000   1.3644894  )
        14        H      tau(  14) = (   0.1675943   0.2500000   0.0777077  )
        15        H      tau(  15) = (   0.6675943   0.2500000   0.6433908  )
        16        H      tau(  16) = (   0.3324057   0.7500000   0.7988063  )
        17        H      tau(  17) = (   0.6675943   0.7500000   0.7988063  )
        18        H      tau(  18) = (   0.3324057   0.2500000   0.6433908  )
        19        H      tau(  19) = (   0.8324057   0.2500000   0.0777077  )
        20        H      tau(  20) = (   0.1675943   0.7500000   1.3644894  )
        21        H      tau(  21) = (   0.5000000   0.9175940   0.2828409  )
        22        H      tau(  22) = (   0.5000000   0.0824061   1.1593562  )
        23        H      tau(  23) = (   0.0000000   0.0824061   1.0039395  )
        24        H      tau(  24) = (   0.0000000   0.9175940   0.4382577  )

     number of k points=   144

     Number of k-points >= 100: set verbosity='high' to print them.

     Dense  grid:   133981 G-vectors     FFT dimensions: (  60,  60,  81)

     Estimated max dynamical RAM per process >      15.33 MB

     Estimated total dynamical RAM >       1.82 GB

     Initial potential from superposition of free atoms

     starting charge      63.9998, renormalised to      64.0000


     %%%%%%%%%%%%%%%%%%%%%%%%%%%%%%%%%%%%%%%%%%%%%%%%%%%%%%%%%%%%%%%%%%%%%%%%
     %                                                                      %
     % You are using vdW-DF, which was implemented by the Thonhauser group. %
     % Please cite the following two papers that made this development      %
     % possible and the two reviews that describe the various versions:     %
     %                                                                      %
     %   T. Thonhauser et al., PRL 115, 136402 (2015).                      %
     %   T. Thonhauser et al., PRB 76, 125112 (2007).                       %
     %   K. Berland et al., Rep. Prog. Phys. 78, 066501 (2015).             %
     %   D.C. Langreth et al., J. Phys.: Condens. Matter 21, 084203 (2009). %
     %                                                                      %
     % If you are calculating stress with vdW-DF, please also cite:         %
     %                                                                      %
     %   R. Sabatini et al., J. Phys.: Condens. Matter 24, 424209 (2012).   %
     %                                                                      %
     %%%%%%%%%%%%%%%%%%%%%%%%%%%%%%%%%%%%%%%%%%%%%%%%%%%%%%%%%%%%%%%%%%%%%%%%

     %%%%%%%%%%%%%%%%%%%%%%%%%%%%%%%%%%%%%%%%%%%%%%%%%%%%%%%%%%%%%%%%%%%%%%%%
     %                                                                      %
     %  vdW-DF NEWS:                                                        %
     %                                                                      %
     %  * vdW-DF3 is now available. DOI: 10.1021/acs.jctc.0c00471           %
     %    use with input_dft = 'vdW-DF3-opt1' or 'vdW-DF3-opt2'             %
     %                                                                      %
     %  * Unscreened and range-separated hybrid vdW-DF-cx functionals       %
     %    DOI: 10.1063/1.4986522 and 10.1088/1361-648X/ac2ad2               %
     %    use with input_dft = 'vdW-DF-cx0'    and 'vdW-DF-ahcx'            %
     %  * Unscreened and range-separated hybrid vdW-DF2-b86r functionals    %
     %    DOI: 10.1063/1.4986522 and DOI: 10.1103/PhysRevX.12.041003        %
     %    use with input_dft = 'vdW-DF2-br0' and 'vdW-DF2-ahbr'             %
     %                                                                      %
     %%%%%%%%%%%%%%%%%%%%%%%%%%%%%%%%%%%%%%%%%%%%%%%%%%%%%%%%%%%%%%%%%%%%%%%%


     Starting wfcs are   48 randomized atomic wfcs

     total cpu time spent up to now is        3.2 secs

     per-process dynamical memory:    21.8 Mb

     Self-consistent Calculation

     iteration #  1     ecut=    90.00 Ry     beta= 0.70
     Davidson diagonalization with overlap
     ethr =  1.00E-02,  avg # of iterations =  2.0

     total cpu time spent up to now is        5.4 secs

     total energy              =    -277.26411509 Ry
     estimated scf accuracy    <       2.97879730 Ry

     iteration #  2     ecut=    90.00 Ry     beta= 0.70
     Davidson diagonalization with overlap
     ethr =  4.65E-03,  avg # of iterations =  3.0

     total cpu time spent up to now is        8.2 secs

     total energy              =    -278.24735067 Ry
     estimated scf accuracy    <       2.46282102 Ry

     iteration #  3     ecut=    90.00 Ry     beta= 0.70
     Davidson diagonalization with overlap
     ethr =  3.85E-03,  avg # of iterations =  2.0

     total cpu time spent up to now is       10.3 secs

     total energy              =    -278.53867297 Ry
     estimated scf accuracy    <       0.12584422 Ry

     iteration #  4     ecut=    90.00 Ry     beta= 0.70
     Davidson diagonalization with overlap
     ethr =  1.97E-04,  avg # of iterations =  4.0

     total cpu time spent up to now is       13.5 secs

     total energy              =    -278.63711423 Ry
     estimated scf accuracy    <       0.13994448 Ry

     iteration #  5     ecut=    90.00 Ry     beta= 0.70
     Davidson diagonalization with overlap
     ethr =  1.97E-04,  avg # of iterations =  1.1

     total cpu time spent up to now is       15.1 secs

     total energy              =    -278.63572314 Ry
     estimated scf accuracy    <       0.02703965 Ry

     iteration #  6     ecut=    90.00 Ry     beta= 0.70
     Davidson diagonalization with overlap
     ethr =  4.22E-05,  avg # of iterations =  2.0

     total cpu time spent up to now is       17.3 secs

     total energy              =    -278.64068559 Ry
     estimated scf accuracy    <       0.00123583 Ry

     iteration #  7     ecut=    90.00 Ry     beta= 0.70
     Davidson diagonalization with overlap
     ethr =  1.93E-06,  avg # of iterations =  2.0

     total cpu time spent up to now is       19.2 secs

     total energy              =    -278.64078313 Ry
     estimated scf accuracy    <       0.00031230 Ry

     iteration #  8     ecut=    90.00 Ry     beta= 0.70
     Davidson diagonalization with overlap
     ethr =  4.88E-07,  avg # of iterations =  2.0

     total cpu time spent up to now is       21.2 secs

     total energy              =    -278.64080235 Ry
     estimated scf accuracy    <       0.00006676 Ry

     iteration #  9     ecut=    90.00 Ry     beta= 0.70
     Davidson diagonalization with overlap
     ethr =  1.04E-07,  avg # of iterations =  2.0

     total cpu time spent up to now is       23.2 secs

     total energy              =    -278.64081233 Ry
     estimated scf accuracy    <       0.00000841 Ry

     iteration # 10     ecut=    90.00 Ry     beta= 0.70
     Davidson diagonalization with overlap
     ethr =  1.31E-08,  avg # of iterations =  2.0

     total cpu time spent up to now is       25.1 secs

     total energy              =    -278.64081334 Ry
     estimated scf accuracy    <       0.00000697 Ry

     iteration # 11     ecut=    90.00 Ry     beta= 0.70
     Davidson diagonalization with overlap
     ethr =  1.09E-08,  avg # of iterations =  1.0

     total cpu time spent up to now is       26.7 secs

     total energy              =    -278.64081223 Ry
     estimated scf accuracy    <       0.00000718 Ry

     iteration # 12     ecut=    90.00 Ry     beta= 0.70
     Davidson diagonalization with overlap
     ethr =  1.09E-08,  avg # of iterations =  1.0

     total cpu time spent up to now is       28.3 secs

     total energy              =    -278.64081147 Ry
     estimated scf accuracy    <       0.00000334 Ry

     iteration # 13     ecut=    90.00 Ry     beta= 0.70
     Davidson diagonalization with overlap
     ethr =  5.21E-09,  avg # of iterations =  2.0

     total cpu time spent up to now is       30.2 secs

     total energy              =    -278.64081154 Ry
     estimated scf accuracy    <       0.00000063 Ry

     iteration # 14     ecut=    90.00 Ry     beta= 0.70
     Davidson diagonalization with overlap
     ethr =  9.82E-10,  avg # of iterations =  2.0

     total cpu time spent up to now is       32.2 secs

     total energy              =    -278.64081156 Ry
     estimated scf accuracy    <       0.00000010 Ry

     iteration # 15     ecut=    90.00 Ry     beta= 0.70
     Davidson diagonalization with overlap
     ethr =  1.59E-10,  avg # of iterations =  4.0

     total cpu time spent up to now is       35.4 secs

     total energy              =    -278.64081160 Ry
     estimated scf accuracy    <       0.00000032 Ry

     iteration # 16     ecut=    90.00 Ry     beta= 0.70
     Davidson diagonalization with overlap
     ethr =  1.59E-10,  avg # of iterations =  2.0

     total cpu time spent up to now is       37.7 secs

     End of self-consistent calculation

     Number of k-points >= 100: set verbosity='high' to print the bands.

     highest occupied level (ev):    -1.4710

!    total energy              =    -278.64081158 Ry
     estimated scf accuracy    <       0.00000005 Ry

     The total energy is the sum of the following terms:
     one-electron contribution =    -138.91271964 Ry
     hartree contribution      =      95.17921788 Ry
     xc contribution           =     -69.96626682 Ry
     ewald contribution        =    -164.94104300 Ry

     convergence has been achieved in  16 iterations

     Forces acting on atoms (cartesian axes, Ry/au):

     atom    1 type  2   force =    -0.00000000    0.00000004    0.07009774
     atom    2 type  2   force =    -0.00000000   -0.00000004   -0.07009774
     atom    3 type  2   force =    -0.00000000   -0.00000003    0.07018753
     atom    4 type  2   force =    -0.00000000    0.00000003   -0.07018753
     atom    5 type  2   force =     0.00000000   -0.00000002    0.07008494
     atom    6 type  2   force =     0.00000000    0.00000002   -0.07008494
     atom    7 type  2   force =     0.00000000   -0.00000001    0.07020760
     atom    8 type  2   force =     0.00000000    0.00000001   -0.07020760
     atom    9 type  1   force =     0.00000000   -0.05162520   -0.03518186
     atom   10 type  1   force =     0.00000000    0.05162520    0.03518186
     atom   11 type  1   force =     0.00000000    0.05160816   -0.03519463
     atom   12 type  1   force =     0.00000000   -0.05160816    0.03519463
     atom   13 type  1   force =     0.05162112    0.00000000   -0.03519903
     atom   14 type  1   force =    -0.05162112   -0.00000000    0.03519903
     atom   15 type  1   force =    -0.05162573    0.00000000   -0.03519884
     atom   16 type  1   force =     0.05162573   -0.00000000    0.03519884
     atom   17 type  1   force =    -0.05162573   -0.00000000    0.03519884
     atom   18 type  1   force =     0.05162573    0.00000000   -0.03519884
     atom   19 type  1   force =     0.05162112   -0.00000000    0.03519903
     atom   20 type  1   force =    -0.05162112    0.00000000   -0.03519903
     atom   21 type  1   force =     0.00000000   -0.05160816   -0.03519462
     atom   22 type  1   force =     0.00000000    0.05160816    0.03519462
     atom   23 type  1   force =     0.00000000    0.05162519   -0.03518185
     atom   24 type  1   force =     0.00000000   -0.05162519    0.03518185

     Total force =     0.319082     Total SCF correction =     0.000264


     Computing stress (Cartesian axis) and pressure

          total   stress  (Ry/bohr**3)                   (kbar)     P=      -96.35
  -0.00064338   0.00000000   0.00000000          -94.64        0.00        0.00
   0.00000000  -0.00064325   0.00000000            0.00      -94.63        0.00
   0.00000000   0.00000000  -0.00067828            0.00        0.00      -99.78


     Writing all to output data dir ./iceVIII/iceVIII.save/ :
     XML data file, charge density, pseudopotentials, collected wavefunctions

     init_run     :      2.91s CPU      3.01s WALL (       1 calls)
     electrons    :     33.78s CPU     34.50s WALL (       1 calls)
     forces       :      0.15s CPU      0.16s WALL (       1 calls)
     stress       :      1.93s CPU      1.95s WALL (       1 calls)

     Called by init_run:
     wfcinit      :      0.96s CPU      0.99s WALL (       1 calls)
     potinit      :      1.56s CPU      1.60s WALL (       1 calls)
     hinit0       :      0.34s CPU      0.35s WALL (       1 calls)

     Called by electrons:
     c_bands      :     28.91s CPU     29.45s WALL (      16 calls)
     sum_band     :      4.04s CPU      4.12s WALL (      16 calls)
     v_of_rho     :      2.28s CPU      2.38s WALL (      17 calls)
     newd         :      0.03s CPU      0.04s WALL (      17 calls)
     mix_rho      :      0.03s CPU      0.04s WALL (      16 calls)
     vdW_kernel   :      1.51s CPU      1.52s WALL (       1 calls)

     Called by c_bands:
     init_us_2    :      0.45s CPU      0.46s WALL (    1260 calls)
     cegterg      :     27.88s CPU     28.22s WALL (     576 calls)

     Called by *egterg:
     cdiaghg      :      2.89s CPU      2.92s WALL (    1821 calls)
     h_psi        :     21.69s CPU     21.98s WALL (    1857 calls)
     s_psi        :      0.82s CPU      0.83s WALL (    1857 calls)
     g_psi        :      0.07s CPU      0.07s WALL (    1245 calls)

     Called by h_psi:
     h_psi:calbec :      1.19s CPU      1.21s WALL (    1857 calls)
     vloc_psi     :     19.50s CPU     19.76s WALL (    1857 calls)
     add_vuspsi   :      0.87s CPU      0.88s WALL (    1857 calls)

     General routines
     calbec       :      1.66s CPU      1.68s WALL (    2613 calls)
     fft          :      0.72s CPU      0.74s WALL (    1089 calls)
     ffts         :      0.01s CPU      0.01s WALL (      16 calls)
     fftw         :     20.86s CPU     21.16s WALL (  121848 calls)

     Parallel routines

     PWSCF        :     39.66s CPU     41.35s WALL


   This run was terminated on:  16:17:40  26Mar2026            

=------------------------------------------------------------------------------=
   JOB DONE.
=------------------------------------------------------------------------------=
