
     Program PWSCF v.7.3.1 starts on  1Apr2026 at 15:42:19 

     This program is part of the open-source Quantum ESPRESSO suite
     for quantum simulation of materials; please cite
         "P. Giannozzi et al., J. Phys.:Condens. Matter 21 395502 (2009);
         "P. Giannozzi et al., J. Phys.:Condens. Matter 29 465901 (2017);
         "P. Giannozzi et al., J. Chem. Phys. 152 154105 (2020);
          URL http://www.quantum-espresso.org", 
     in publications or presentations arising from this work. More details at
     http://www.quantum-espresso.org/quote

     Parallel version (MPI), running on   128 processors

     MPI processes distributed on     1 nodes
     241589 MiB available memory on the printing compute node when the environment starts

     Waiting for input...
     Reading input from standard input

     Current dimensions of program PWSCF are:
     Max number of different atomic species (ntypx) = 10
     Max number of k-points (npk) =  40000
     Max angular momentum in pseudopotentials (lmaxx) =  4

     IMPORTANT: XC functional enforced from input :
     Exchange-correlation= VDW-DF2
                           (   1   4  13   0   2   0   0)
     Any further DFT definition will be discarded
     Please, verify this is what you really want

     Found identity + ( -0.5000 -0.5000  0.5000) symmetry
     This is a supercell, fractional translations are disabled

     K-points division:     npool     =       4
     R & G space division:  proc/nbgrp/npool/nimage =      32
     Subspace diagonalization in iterative solution of the eigenvalue problem:
     a serial algorithm will be used


     Parallelization info
     --------------------
     sticks:   dense  smooth     PW     G-vecs:    dense   smooth      PW
     Min          77      77     21                 4218     4218     609
     Max          78      78     22                 4224     4224     614
     Sum        2493    2493    681               135069   135069   19523

     Using Slab Decomposition



     bravais-lattice index     =            6
     lattice parameter (alat)  =       9.3287  a.u.
     unit-cell volume          =    1170.8223 (a.u.)^3
     number of atoms/cell      =           24
     number of atomic types    =            2
     number of electrons       =        64.00
     number of Kohn-Sham states=           32
     kinetic-energy cutoff     =      90.0000  Ry
     charge density cutoff     =     360.0000  Ry
     scf convergence threshold =      1.0E-07
     mixing beta               =       0.7000
     number of iterations used =            8  plain     mixing
     energy convergence thresh.=      1.0E-04
     force convergence thresh. =      1.0E-03
     Exchange-correlation= VDW-DF2
                           (   1   4  13   0   2   0   0)
     nstep                     =           50


     celldm(1)=   9.328721  celldm(2)=   0.000000  celldm(3)=   1.442197
     celldm(4)=   0.000000  celldm(5)=   0.000000  celldm(6)=   0.000000

     crystal axes: (cart. coord. in units of alat)
               a(1) = (   1.000000   0.000000   0.000000 )  
               a(2) = (   0.000000   1.000000   0.000000 )  
               a(3) = (   0.000000   0.000000   1.442197 )  

     reciprocal axes: (cart. coord. in units 2 pi/alat)
               b(1) = (  1.000000  0.000000  0.000000 )  
               b(2) = (  0.000000  1.000000  0.000000 )  
               b(3) = (  0.000000  0.000000  0.693386 )  


     PseudoPot. # 1 for H  read from file:
     ./H.pbe-van_ak.UPF
     MD5 check sum: 077eb6d537518a38cb46c6de387227b7
     Pseudo is Ultrasoft, Zval =  1.0
     Generated by new atomic code, or converted to UPF format
     Using radial grid of  615 points,  1 beta functions with: 
                l(1) =   0
     Q(r) pseudized with  8 coefficients,  rinner =    0.800

     PseudoPot. # 2 for O  read from file:
     ./O.pbe-van_ak.UPF
     MD5 check sum: 78c19812648e8988a0fe644b0f25305e
     Pseudo is Ultrasoft, Zval =  6.0
     Generated by new atomic code, or converted to UPF format
     Using radial grid of  737 points,  4 beta functions with: 
                l(1) =   0
                l(2) =   0
                l(3) =   1
                l(4) =   1
     Q(r) pseudized with  8 coefficients,  rinner =    0.800   0.800   0.800


     atomic species   valence    mass     pseudopotential
     H                 1.00     1.00800     H ( 1.00)
     O                 6.00    16.00000     O ( 1.00)

      4 Sym. Ops., with inversion, found



   Cartesian axes

     site n.     atom                  positions (alat units)
         1        O      tau(   1) = (   0.0000000   0.2500000   0.8781106  )
         2        O      tau(   2) = (   0.0000000   0.7500000   0.5640866  )
         3        O      tau(   3) = (   0.5000000   0.7500000   0.1570120  )
         4        O      tau(   4) = (   0.5000000   0.2500000   1.2851851  )
         5        O      tau(   5) = (   0.0000000   0.7500000   1.2386599  )
         6        O      tau(   6) = (   0.0000000   0.2500000   0.2035373  )
         7        O      tau(   7) = (   0.5000000   0.2500000   0.5175613  )
         8        O      tau(   8) = (   0.5000000   0.7500000   0.9246358  )
         9        H      tau(   9) = (   0.0000000   0.4142500   1.0027885  )
        10        H      tau(  10) = (   0.0000000   0.5857500   0.4394086  )
        11        H      tau(  11) = (   0.5000000   0.5857500   0.2816900  )
        12        H      tau(  12) = (   0.5000000   0.4142500   1.1605072  )
        13        H      tau(  13) = (   0.8357500   0.7500000   1.3633378  )
        14        H      tau(  14) = (   0.1642500   0.2500000   0.0788593  )
        15        H      tau(  15) = (   0.6642500   0.2500000   0.6422392  )
        16        H      tau(  16) = (   0.3357500   0.7500000   0.7999579  )
        17        H      tau(  17) = (   0.6642500   0.7500000   0.7999579  )
        18        H      tau(  18) = (   0.3357500   0.2500000   0.6422392  )
        19        H      tau(  19) = (   0.8357500   0.2500000   0.0788593  )
        20        H      tau(  20) = (   0.1642500   0.7500000   1.3633378  )
        21        H      tau(  21) = (   0.5000000   0.9142500   0.2816900  )
        22        H      tau(  22) = (   0.5000000   0.0857500   1.1605072  )
        23        H      tau(  23) = (   0.0000000   0.0857500   1.0027885  )
        24        H      tau(  24) = (   0.0000000   0.9142500   0.4394086  )

     number of k points=   144

     Number of k-points >= 100: set verbosity='high' to print them.

     Dense  grid:   135069 G-vectors     FFT dimensions: (  60,  60,  81)

     Estimated max dynamical RAM per process >      15.43 MB

     Estimated total dynamical RAM >       1.83 GB

     Initial potential from superposition of free atoms

     starting charge      63.9998, renormalised to      64.0000


     %%%%%%%%%%%%%%%%%%%%%%%%%%%%%%%%%%%%%%%%%%%%%%%%%%%%%%%%%%%%%%%%%%%%%%%%
     %                                                                      %
     % You are using vdW-DF, which was implemented by the Thonhauser group. %
     % Please cite the following two papers that made this development      %
     % possible and the two reviews that describe the various versions:     %
     %                                                                      %
     %   T. Thonhauser et al., PRL 115, 136402 (2015).                      %
     %   T. Thonhauser et al., PRB 76, 125112 (2007).                       %
     %   K. Berland et al., Rep. Prog. Phys. 78, 066501 (2015).             %
     %   D.C. Langreth et al., J. Phys.: Condens. Matter 21, 084203 (2009). %
     %                                                                      %
     % If you are calculating stress with vdW-DF, please also cite:         %
     %                                                                      %
     %   R. Sabatini et al., J. Phys.: Condens. Matter 24, 424209 (2012).   %
     %                                                                      %
     %%%%%%%%%%%%%%%%%%%%%%%%%%%%%%%%%%%%%%%%%%%%%%%%%%%%%%%%%%%%%%%%%%%%%%%%

     %%%%%%%%%%%%%%%%%%%%%%%%%%%%%%%%%%%%%%%%%%%%%%%%%%%%%%%%%%%%%%%%%%%%%%%%
     %                                                                      %
     %  vdW-DF NEWS:                                                        %
     %                                                                      %
     %  * vdW-DF3 is now available. DOI: 10.1021/acs.jctc.0c00471           %
     %    use with input_dft = 'vdW-DF3-opt1' or 'vdW-DF3-opt2'             %
     %                                                                      %
     %  * Unscreened and range-separated hybrid vdW-DF-cx functionals       %
     %    DOI: 10.1063/1.4986522 and 10.1088/1361-648X/ac2ad2               %
     %    use with input_dft = 'vdW-DF-cx0'    and 'vdW-DF-ahcx'            %
     %  * Unscreened and range-separated hybrid vdW-DF2-b86r functionals    %
     %    DOI: 10.1063/1.4986522 and DOI: 10.1103/PhysRevX.12.041003        %
     %    use with input_dft = 'vdW-DF2-br0' and 'vdW-DF2-ahbr'             %
     %                                                                      %
     %%%%%%%%%%%%%%%%%%%%%%%%%%%%%%%%%%%%%%%%%%%%%%%%%%%%%%%%%%%%%%%%%%%%%%%%


     Starting wfcs are   48 randomized atomic wfcs

     total cpu time spent up to now is        3.2 secs

     per-process dynamical memory:    21.8 Mb

     Self-consistent Calculation

     iteration #  1     ecut=    90.00 Ry     beta= 0.70
     Davidson diagonalization with overlap
     ethr =  1.00E-02,  avg # of iterations =  2.0

     total cpu time spent up to now is        5.4 secs

     total energy              =    -277.25082689 Ry
     estimated scf accuracy    <       3.08942331 Ry

     iteration #  2     ecut=    90.00 Ry     beta= 0.70
     Davidson diagonalization with overlap
     ethr =  4.83E-03,  avg # of iterations =  3.0

     total cpu time spent up to now is        8.2 secs

     total energy              =    -278.26867268 Ry
     estimated scf accuracy    <       2.48964541 Ry

     iteration #  3     ecut=    90.00 Ry     beta= 0.70
     Davidson diagonalization with overlap
     ethr =  3.89E-03,  avg # of iterations =  2.0

     total cpu time spent up to now is       10.3 secs

     total energy              =    -278.56896447 Ry
     estimated scf accuracy    <       0.12264235 Ry

     iteration #  4     ecut=    90.00 Ry     beta= 0.70
     Davidson diagonalization with overlap
     ethr =  1.92E-04,  avg # of iterations =  4.0

     total cpu time spent up to now is       13.6 secs

     total energy              =    -278.66605502 Ry
     estimated scf accuracy    <       0.14415235 Ry

     iteration #  5     ecut=    90.00 Ry     beta= 0.70
     Davidson diagonalization with overlap
     ethr =  1.92E-04,  avg # of iterations =  1.2

     total cpu time spent up to now is       15.3 secs

     total energy              =    -278.66484563 Ry
     estimated scf accuracy    <       0.02744540 Ry

     iteration #  6     ecut=    90.00 Ry     beta= 0.70
     Davidson diagonalization with overlap
     ethr =  4.29E-05,  avg # of iterations =  2.0

     total cpu time spent up to now is       17.4 secs

     total energy              =    -278.66976726 Ry
     estimated scf accuracy    <       0.00153747 Ry

     iteration #  7     ecut=    90.00 Ry     beta= 0.70
     Davidson diagonalization with overlap
     ethr =  2.40E-06,  avg # of iterations =  2.1

     total cpu time spent up to now is       19.4 secs

     total energy              =    -278.66985508 Ry
     estimated scf accuracy    <       0.00040135 Ry

     iteration #  8     ecut=    90.00 Ry     beta= 0.70
     Davidson diagonalization with overlap
     ethr =  6.27E-07,  avg # of iterations =  2.0

     total cpu time spent up to now is       21.4 secs

     total energy              =    -278.66989373 Ry
     estimated scf accuracy    <       0.00006595 Ry

     iteration #  9     ecut=    90.00 Ry     beta= 0.70
     Davidson diagonalization with overlap
     ethr =  1.03E-07,  avg # of iterations =  2.0

     total cpu time spent up to now is       23.4 secs

     total energy              =    -278.66990177 Ry
     estimated scf accuracy    <       0.00002122 Ry

     iteration # 10     ecut=    90.00 Ry     beta= 0.70
     Davidson diagonalization with overlap
     ethr =  3.32E-08,  avg # of iterations =  1.0

     total cpu time spent up to now is       25.0 secs

     total energy              =    -278.66990182 Ry
     estimated scf accuracy    <       0.00002287 Ry

     iteration # 11     ecut=    90.00 Ry     beta= 0.70
     Davidson diagonalization with overlap
     ethr =  3.32E-08,  avg # of iterations =  1.0

     total cpu time spent up to now is       26.6 secs

     total energy              =    -278.66989716 Ry
     estimated scf accuracy    <       0.00001878 Ry

     iteration # 12     ecut=    90.00 Ry     beta= 0.70
     Davidson diagonalization with overlap
     ethr =  2.93E-08,  avg # of iterations =  1.0

     total cpu time spent up to now is       28.2 secs

     total energy              =    -278.66989719 Ry
     estimated scf accuracy    <       0.00000479 Ry

     iteration # 13     ecut=    90.00 Ry     beta= 0.70
     Davidson diagonalization with overlap
     ethr =  7.48E-09,  avg # of iterations =  1.3

     total cpu time spent up to now is       29.9 secs

     total energy              =    -278.66989617 Ry
     estimated scf accuracy    <       0.00000269 Ry

     iteration # 14     ecut=    90.00 Ry     beta= 0.70
     Davidson diagonalization with overlap
     ethr =  4.21E-09,  avg # of iterations =  3.0

     total cpu time spent up to now is       32.4 secs

     End of self-consistent calculation

     Number of k-points >= 100: set verbosity='high' to print the bands.

     highest occupied level (ev):    -1.5639

!    total energy              =    -278.66989694 Ry
     estimated scf accuracy    <       0.00000003 Ry

     The total energy is the sum of the following terms:
     one-electron contribution =    -142.15693411 Ry
     hartree contribution      =      96.54676821 Ry
     xc contribution           =     -70.16849507 Ry
     ewald contribution        =    -162.89123597 Ry

     convergence has been achieved in  14 iterations

     Forces acting on atoms (cartesian axes, Ry/au):

     atom    1 type  2   force =    -0.00000000    0.00000022    0.04550162
     atom    2 type  2   force =    -0.00000000   -0.00000022   -0.04550162
     atom    3 type  2   force =     0.00000000   -0.00000008    0.04566921
     atom    4 type  2   force =     0.00000000    0.00000008   -0.04566921
     atom    5 type  2   force =     0.00000000   -0.00000016    0.04555214
     atom    6 type  2   force =     0.00000000    0.00000016   -0.04555214
     atom    7 type  2   force =     0.00000000    0.00000000    0.04560164
     atom    8 type  2   force =     0.00000000   -0.00000000   -0.04560164
     atom    9 type  1   force =     0.00000000   -0.03469164   -0.02338354
     atom   10 type  1   force =     0.00000000    0.03469164    0.02338354
     atom   11 type  1   force =     0.00000000    0.03468352   -0.02337963
     atom   12 type  1   force =     0.00000000   -0.03468352    0.02337963
     atom   13 type  1   force =     0.03468273    0.00000002   -0.02338132
     atom   14 type  1   force =    -0.03468273   -0.00000002    0.02338132
     atom   15 type  1   force =    -0.03468598    0.00000002   -0.02338106
     atom   16 type  1   force =     0.03468598   -0.00000002    0.02338106
     atom   17 type  1   force =    -0.03468598   -0.00000002    0.02338106
     atom   18 type  1   force =     0.03468598    0.00000002   -0.02338106
     atom   19 type  1   force =     0.03468273   -0.00000002    0.02338132
     atom   20 type  1   force =    -0.03468273    0.00000002   -0.02338132
     atom   21 type  1   force =     0.00000000   -0.03468357   -0.02337965
     atom   22 type  1   force =     0.00000000    0.03468357    0.02337965
     atom   23 type  1   force =     0.00000000    0.03469167   -0.02338354
     atom   24 type  1   force =     0.00000000   -0.03469167    0.02338354

     Total force =     0.211230     Total SCF correction =     0.000199


     Computing stress (Cartesian axis) and pressure

          total   stress  (Ry/bohr**3)                   (kbar)     P=      -66.17
  -0.00044624   0.00000000   0.00000000          -65.64        0.00        0.00
   0.00000000  -0.00044630  -0.00000000            0.00      -65.65       -0.00
   0.00000000  -0.00000000  -0.00045694            0.00       -0.00      -67.22


     BFGS Geometry Optimization
     Energy error            =      0.0E+00 Ry
     Gradient error          =      4.6E-02 Ry/Bohr

     number of scf cycles    =   1
     number of bfgs steps    =   0

     energy             new  =    -278.6698969446 Ry

     new trust radius        =       0.0456692124 bohr
     new conv_thr            =       0.0000001000 Ry


ATOMIC_POSITIONS (crystal)
O               -0.0000000000        0.2500000231        0.6122520799
O               -0.0000000000        0.7499999769        0.3877479491
O                0.5000000000        0.7499999918        0.1122645075
O                0.5000000000        0.2500000082        0.8877354635
O                0.0000000000        0.7499999829        0.8622558349
O                0.0000000000        0.2500000171        0.1377441941
O                0.5000000000        0.2500000001        0.3622594849
O                0.5000000000        0.7499999999        0.6377404861
H                0.0000000000        0.4105311870        0.6935819550
H                0.0000000000        0.5894687830        0.3064180450
H                0.5000000000        0.5894679127        0.1935822457
H                0.5000000000        0.4105320573        0.8064177543
H                0.8394678280        0.7500000019        0.9435821202
H                0.1605321420        0.2499999981        0.0564178798
H                0.6605318235        0.2500000024        0.4435821391
H                0.3394682065        0.7499999976        0.5564178609
H                0.6605318235        0.7499999976        0.5564178609
H                0.3394682065        0.2500000024        0.4435821391
H                0.8394678280        0.2499999981        0.0564178798
H                0.1605321420        0.7500000019        0.9435821202
H                0.5000000000        0.9105320816        0.1935822442
H                0.5000000000        0.0894679484        0.8064177558
H                0.0000000000        0.0894688165        0.6935819550
H                0.0000000000        0.9105312135        0.3064180450



     Writing config-only to output data dir ./iceVIII/iceVIII.save/ :
     XML data file
     NEW-OLD atomic charge density approx. for the potential

     total cpu time spent up to now is       34.7 secs

     per-process dynamical memory:    23.0 Mb

     Self-consistent Calculation

     iteration #  1     ecut=    90.00 Ry     beta= 0.70
     Davidson diagonalization with overlap
     ethr =  1.00E-06,  avg # of iterations =  8.0

     total cpu time spent up to now is       39.9 secs

     total energy              =    -278.67979023 Ry
     estimated scf accuracy    <       0.01757336 Ry

     iteration #  2     ecut=    90.00 Ry     beta= 0.70
     Davidson diagonalization with overlap
     ethr =  2.75E-05,  avg # of iterations =  3.0

     total cpu time spent up to now is       42.6 secs

     total energy              =    -278.68493189 Ry
     estimated scf accuracy    <       0.00983336 Ry

     iteration #  3     ecut=    90.00 Ry     beta= 0.70
     Davidson diagonalization with overlap
     ethr =  1.54E-05,  avg # of iterations =  2.0

     total cpu time spent up to now is       44.8 secs

     total energy              =    -278.68646335 Ry
     estimated scf accuracy    <       0.00026165 Ry

     iteration #  4     ecut=    90.00 Ry     beta= 0.70
     Davidson diagonalization with overlap
     ethr =  4.09E-07,  avg # of iterations =  4.0

     total cpu time spent up to now is       48.2 secs

     total energy              =    -278.68668468 Ry
     estimated scf accuracy    <       0.00033615 Ry

     iteration #  5     ecut=    90.00 Ry     beta= 0.70
     Davidson diagonalization with overlap
     ethr =  4.09E-07,  avg # of iterations =  2.0

     total cpu time spent up to now is       50.5 secs

     total energy              =    -278.68673240 Ry
     estimated scf accuracy    <       0.00000715 Ry

     iteration #  6     ecut=    90.00 Ry     beta= 0.70
     Davidson diagonalization with overlap
     ethr =  1.12E-08,  avg # of iterations =  4.0

     total cpu time spent up to now is       53.8 secs

     total energy              =    -278.68673801 Ry
     estimated scf accuracy    <       0.00001328 Ry

     iteration #  7     ecut=    90.00 Ry     beta= 0.70
     Davidson diagonalization with overlap
     ethr =  1.12E-08,  avg # of iterations =  2.0

     total cpu time spent up to now is       56.1 secs

     total energy              =    -278.68673915 Ry
     estimated scf accuracy    <       0.00000084 Ry

     iteration #  8     ecut=    90.00 Ry     beta= 0.70
     Davidson diagonalization with overlap
     ethr =  1.31E-09,  avg # of iterations =  3.0

     total cpu time spent up to now is       59.0 secs

     total energy              =    -278.68673968 Ry
     estimated scf accuracy    <       0.00000027 Ry

     iteration #  9     ecut=    90.00 Ry     beta= 0.70
     Davidson diagonalization with overlap
     ethr =  4.22E-10,  avg # of iterations =  2.0

     total cpu time spent up to now is       60.8 secs

     total energy              =    -278.68673963 Ry
     estimated scf accuracy    <       0.00000015 Ry

     iteration # 10     ecut=    90.00 Ry     beta= 0.70
     Davidson diagonalization with overlap
     ethr =  2.30E-10,  avg # of iterations =  2.0

     total cpu time spent up to now is       62.8 secs

     End of self-consistent calculation

     Number of k-points >= 100: set verbosity='high' to print the bands.

     highest occupied level (ev):    -1.6277

!    total energy              =    -278.68673964 Ry
     estimated scf accuracy    <       0.00000001 Ry

     The total energy is the sum of the following terms:
     one-electron contribution =    -146.51124804 Ry
     hartree contribution      =      98.47940169 Ry
     xc contribution           =     -70.61864904 Ry
     ewald contribution        =    -160.03624426 Ry

     convergence has been achieved in  10 iterations

     Forces acting on atoms (cartesian axes, Ry/au):

     atom    1 type  2   force =    -0.00000000   -0.00000026   -0.02180509
     atom    2 type  2   force =    -0.00000000    0.00000026    0.02180509
     atom    3 type  2   force =     0.00000000    0.00000006   -0.02178477
     atom    4 type  2   force =     0.00000000   -0.00000006    0.02178477
     atom    5 type  2   force =    -0.00000000    0.00000002   -0.02176967
     atom    6 type  2   force =    -0.00000000   -0.00000002    0.02176967
     atom    7 type  2   force =     0.00000000   -0.00000000   -0.02185272
     atom    8 type  2   force =     0.00000000    0.00000000    0.02185272
     atom    9 type  1   force =     0.00000000    0.00364655    0.00964118
     atom   10 type  1   force =     0.00000000   -0.00364655   -0.00964118
     atom   11 type  1   force =     0.00000000   -0.00369643    0.00970611
     atom   12 type  1   force =     0.00000000    0.00369643   -0.00970611
     atom   13 type  1   force =    -0.00365356   -0.00000000    0.00966050
     atom   14 type  1   force =     0.00365356    0.00000000   -0.00966050
     atom   15 type  1   force =     0.00368138    0.00000000    0.00967337
     atom   16 type  1   force =    -0.00368138   -0.00000000   -0.00967337
     atom   17 type  1   force =     0.00368138   -0.00000000   -0.00967337
     atom   18 type  1   force =    -0.00368138    0.00000000    0.00967337
     atom   19 type  1   force =    -0.00365356    0.00000000   -0.00966050
     atom   20 type  1   force =     0.00365356   -0.00000000    0.00966050
     atom   21 type  1   force =     0.00000000    0.00369638    0.00970608
     atom   22 type  1   force =     0.00000000   -0.00369638   -0.00970608
     atom   23 type  1   force =     0.00000000   -0.00364631    0.00964101
     atom   24 type  1   force =     0.00000000    0.00364631   -0.00964101

     Total force =     0.074261     Total SCF correction =     0.000117


     Computing stress (Cartesian axis) and pressure

          total   stress  (Ry/bohr**3)                   (kbar)     P=        2.18
  -0.00001862   0.00000000   0.00000000           -2.74        0.00        0.00
   0.00000000  -0.00001853   0.00000000            0.00       -2.73        0.00
   0.00000000   0.00000000   0.00008151            0.00        0.00       11.99

     Energy error            =      1.7E-02 Ry
     Gradient error          =      2.2E-02 Ry/Bohr

     number of scf cycles    =   2
     number of bfgs steps    =   1

     energy             old  =    -278.6698969446 Ry
     energy             new  =    -278.6867396383 Ry

     CASE: energy            _new < energy            _old

     new trust radius        =       0.0159263310 bohr
     new conv_thr            =       0.0000000219 Ry


ATOMIC_POSITIONS (crystal)
O               -0.0000000000        0.2500000025        0.6110708845
O               -0.0000000000        0.7499999975        0.3889291445
O                0.5000000000        0.7499999966        0.1110846939
O                0.5000000000        0.2500000034        0.8889152771
O               -0.0000000000        0.7499999840        0.8610767248
O               -0.0000000000        0.2500000160        0.1389233042
O                0.5000000000        0.2499999999        0.3610757104
O                0.5000000000        0.7500000001        0.6389242606
H                0.0000000000        0.4107638582        0.6940998593
H                0.0000000000        0.5892361118        0.3059001407
H                0.5000000000        0.5892311281        0.1941038535
H                0.5000000000        0.4107688419        0.8058961465
H                0.8392345638        0.7500000016        0.9441011279
H                0.1607654062        0.2499999984        0.0558988721
H                0.6607673671        0.2500000026        0.4441018801
H                0.3392326629        0.7499999974        0.5558981199
H                0.6607673671        0.7499999974        0.5558981199
H                0.3392326629        0.2500000026        0.4441018801
H                0.8392345638        0.2499999984        0.0558988721
H                0.1607654062        0.7500000016        0.9441011279
H                0.5000000000        0.9107688617        0.1941038499
H                0.5000000000        0.0892311683        0.8058961501
H                0.0000000000        0.0892361650        0.6940998493
H                0.0000000000        0.9107638650        0.3059001507



     Writing config-only to output data dir ./iceVIII/iceVIII.save/ :
     XML data file
     NEW-OLD atomic charge density approx. for the potential

     total cpu time spent up to now is       65.0 secs

     per-process dynamical memory:    23.0 Mb

     Self-consistent Calculation

     iteration #  1     ecut=    90.00 Ry     beta= 0.70
     Davidson diagonalization with overlap
     ethr =  1.00E-06,  avg # of iterations =  4.0

     total cpu time spent up to now is       68.7 secs

     total energy              =    -278.68838279 Ry
     estimated scf accuracy    <       0.00118552 Ry

     iteration #  2     ecut=    90.00 Ry     beta= 0.70
     Davidson diagonalization with overlap
     ethr =  1.85E-06,  avg # of iterations =  3.0

     total cpu time spent up to now is       71.4 secs

     total energy              =    -278.68872913 Ry
     estimated scf accuracy    <       0.00062409 Ry

     iteration #  3     ecut=    90.00 Ry     beta= 0.70
     Davidson diagonalization with overlap
     ethr =  9.75E-07,  avg # of iterations =  2.0

     total cpu time spent up to now is       73.5 secs

     total energy              =    -278.68882615 Ry
     estimated scf accuracy    <       0.00001667 Ry

     iteration #  4     ecut=    90.00 Ry     beta= 0.70
     Davidson diagonalization with overlap
     ethr =  2.60E-08,  avg # of iterations =  4.3

     total cpu time spent up to now is       76.8 secs

     total energy              =    -278.68883964 Ry
     estimated scf accuracy    <       0.00002149 Ry

     iteration #  5     ecut=    90.00 Ry     beta= 0.70
     Davidson diagonalization with overlap
     ethr =  2.60E-08,  avg # of iterations =  2.2

     total cpu time spent up to now is       79.2 secs

     total energy              =    -278.68884353 Ry
     estimated scf accuracy    <       0.00000016 Ry

     iteration #  6     ecut=    90.00 Ry     beta= 0.70
     Davidson diagonalization with overlap
     ethr =  2.53E-10,  avg # of iterations =  5.1

     total cpu time spent up to now is       83.2 secs

     total energy              =    -278.68884370 Ry
     estimated scf accuracy    <       0.00000101 Ry

     iteration #  7     ecut=    90.00 Ry     beta= 0.70
     Davidson diagonalization with overlap
     ethr =  2.53E-10,  avg # of iterations =  3.0

     total cpu time spent up to now is       86.0 secs

     total energy              =    -278.68884377 Ry
     estimated scf accuracy    <       0.00000007 Ry

     iteration #  8     ecut=    90.00 Ry     beta= 0.70
     Davidson diagonalization with overlap
     ethr =  1.11E-10,  avg # of iterations =  2.6

     total cpu time spent up to now is       88.4 secs

     End of self-consistent calculation

     Number of k-points >= 100: set verbosity='high' to print the bands.

     highest occupied level (ev):    -1.6174

!    total energy              =    -278.68884380 Ry
     estimated scf accuracy    <          5.4E-09 Ry

     The total energy is the sum of the following terms:
     one-electron contribution =    -145.52457186 Ry
     hartree contribution      =      98.03563251 Ry
     xc contribution           =     -70.51505650 Ry
     ewald contribution        =    -160.68484796 Ry

     convergence has been achieved in   8 iterations

     Forces acting on atoms (cartesian axes, Ry/au):

     atom    1 type  2   force =     0.00000000    0.00000014   -0.00290277
     atom    2 type  2   force =     0.00000000   -0.00000014    0.00290277
     atom    3 type  2   force =     0.00000000   -0.00000003   -0.00282228
     atom    4 type  2   force =     0.00000000    0.00000003    0.00282228
     atom    5 type  2   force =     0.00000000    0.00000001   -0.00286029
     atom    6 type  2   force =     0.00000000   -0.00000001    0.00286029
     atom    7 type  2   force =     0.00000000    0.00000000   -0.00286593
     atom    8 type  2   force =     0.00000000   -0.00000000    0.00286593
     atom    9 type  1   force =     0.00000000   -0.00461960    0.00042139
     atom   10 type  1   force =     0.00000000    0.00461960   -0.00042139
     atom   11 type  1   force =     0.00000000    0.00460665    0.00045846
     atom   12 type  1   force =     0.00000000   -0.00460665   -0.00045846
     atom   13 type  1   force =     0.00461165   -0.00000001    0.00044044
     atom   14 type  1   force =    -0.00461165    0.00000001   -0.00044044
     atom   15 type  1   force =    -0.00462348   -0.00000000    0.00042201
     atom   16 type  1   force =     0.00462348    0.00000000   -0.00042201
     atom   17 type  1   force =    -0.00462348    0.00000000   -0.00042201
     atom   18 type  1   force =     0.00462348   -0.00000000    0.00042201
     atom   19 type  1   force =     0.00461165    0.00000001   -0.00044044
     atom   20 type  1   force =    -0.00461165   -0.00000001    0.00044044
     atom   21 type  1   force =     0.00000000   -0.00460662    0.00045849
     atom   22 type  1   force =     0.00000000    0.00460662   -0.00045849
     atom   23 type  1   force =     0.00000000    0.00461946    0.00042149
     atom   24 type  1   force =     0.00000000   -0.00461946   -0.00042149

     Total force =     0.020234     Total SCF correction =     0.000093


     Computing stress (Cartesian axis) and pressure

          total   stress  (Ry/bohr**3)                   (kbar)     P=      -13.82
  -0.00011251   0.00000000   0.00000000          -16.55        0.00        0.00
   0.00000000  -0.00011240  -0.00000000            0.00      -16.53       -0.00
   0.00000000  -0.00000000  -0.00005701            0.00       -0.00       -8.39

     Energy error            =      2.1E-03 Ry
     Gradient error          =      4.6E-03 Ry/Bohr

     number of scf cycles    =   3
     number of bfgs steps    =   2

     energy             old  =    -278.6867396383 Ry
     energy             new  =    -278.6888437989 Ry

     CASE: energy            _new < energy            _old

     new trust radius        =       0.0051941183 bohr
     new conv_thr            =       0.0000000046 Ry


ATOMIC_POSITIONS (crystal)
O               -0.0000000000        0.2500000161        0.6107051119
O               -0.0000000000        0.7499999839        0.3892949171
O                0.5000000000        0.7499999937        0.1107256786
O                0.5000000000        0.2500000063        0.8892742924
O               -0.0000000000        0.7499999852        0.8607146876
O               -0.0000000000        0.2500000148        0.1392853414
O                0.5000000000        0.2500000002        0.3607125647
O                0.5000000000        0.7499999998        0.6392874063
H                0.0000000000        0.4102223603        0.6941893819
H                0.0000000000        0.5897776097        0.3058106181
H                0.5000000000        0.5897705083        0.1941968835
H                0.5000000000        0.4102294617        0.8058031165
H                0.8397750500        0.7500000009        0.9441923319
H                0.1602249200        0.2499999991        0.0558076681
H                0.6602258689        0.2500000025        0.4441917331
H                0.3397741611        0.7499999975        0.5558082669
H                0.6602258689        0.7499999975        0.5558082669
H                0.3397741611        0.2500000025        0.4441917331
H                0.8397750500        0.2499999991        0.0558076681
H                0.1602249200        0.7500000009        0.9441923319
H                0.5000000000        0.9102294847        0.1941968818
H                0.5000000000        0.0897705453        0.8058031182
H                0.0000000000        0.0897776496        0.6941893787
H                0.0000000000        0.9102223804        0.3058106213



     Writing config-only to output data dir ./iceVIII/iceVIII.save/ :
     XML data file
     NEW-OLD atomic charge density approx. for the potential

     total cpu time spent up to now is       90.9 secs

     per-process dynamical memory:    23.0 Mb

     Self-consistent Calculation

     iteration #  1     ecut=    90.00 Ry     beta= 0.70
     Davidson diagonalization with overlap
     ethr =  1.00E-06,  avg # of iterations =  3.0

     Threshold (ethr) on eigenvalues was too large:
     Diagonalizing with lowered threshold

     Davidson diagonalization with overlap
     ethr =  4.07E-08,  avg # of iterations =  2.2

     total cpu time spent up to now is       95.7 secs

     total energy              =    -278.68922793 Ry
     estimated scf accuracy    <       0.00002863 Ry

     iteration #  2     ecut=    90.00 Ry     beta= 0.70
     Davidson diagonalization with overlap
     ethr =  4.47E-08,  avg # of iterations =  2.0

     total cpu time spent up to now is       97.9 secs

     total energy              =    -278.68923290 Ry
     estimated scf accuracy    <       0.00000248 Ry

     iteration #  3     ecut=    90.00 Ry     beta= 0.70
     Davidson diagonalization with overlap
     ethr =  3.87E-09,  avg # of iterations =  2.0

     total cpu time spent up to now is      100.2 secs

     total energy              =    -278.68923352 Ry
     estimated scf accuracy    <       0.00000041 Ry

     iteration #  4     ecut=    90.00 Ry     beta= 0.70
     Davidson diagonalization with overlap
     ethr =  6.44E-10,  avg # of iterations =  2.0

     total cpu time spent up to now is      102.3 secs

     total energy              =    -278.68923359 Ry
     estimated scf accuracy    <       0.00000002 Ry

     iteration #  5     ecut=    90.00 Ry     beta= 0.70
     Davidson diagonalization with overlap
     ethr =  2.69E-11,  avg # of iterations =  3.0

     total cpu time spent up to now is      104.9 secs

     total energy              =    -278.68923359 Ry
     estimated scf accuracy    <          8.5E-09 Ry

     iteration #  6     ecut=    90.00 Ry     beta= 0.70
     Davidson diagonalization with overlap
     ethr =  1.33E-11,  avg # of iterations =  2.0

     total cpu time spent up to now is      107.1 secs

     End of self-consistent calculation

     Number of k-points >= 100: set verbosity='high' to print the bands.

     highest occupied level (ev):    -1.6219

!    total energy              =    -278.68923359 Ry
     estimated scf accuracy    <          1.5E-10 Ry

     The total energy is the sum of the following terms:
     one-electron contribution =    -145.57215305 Ry
     hartree contribution      =      98.05414184 Ry
     xc contribution           =     -70.51800552 Ry
     ewald contribution        =    -160.65321686 Ry

     convergence has been achieved in   6 iterations

     Forces acting on atoms (cartesian axes, Ry/au):

     atom    1 type  2   force =     0.00000000   -0.00000011   -0.00111722
     atom    2 type  2   force =     0.00000000    0.00000011    0.00111722
     atom    3 type  2   force =     0.00000000    0.00000003   -0.00105525
     atom    4 type  2   force =     0.00000000   -0.00000003    0.00105525
     atom    5 type  2   force =     0.00000000    0.00000001   -0.00108977
     atom    6 type  2   force =     0.00000000   -0.00000001    0.00108977
     atom    7 type  2   force =     0.00000000   -0.00000000   -0.00109391
     atom    8 type  2   force =     0.00000000    0.00000000    0.00109391
     atom    9 type  1   force =     0.00000000   -0.00313169   -0.00041334
     atom   10 type  1   force =     0.00000000    0.00313169    0.00041334
     atom   11 type  1   force =     0.00000000    0.00311687   -0.00036719
     atom   12 type  1   force =     0.00000000   -0.00311687    0.00036719
     atom   13 type  1   force =     0.00312059   -0.00000000   -0.00038768
     atom   14 type  1   force =    -0.00312059    0.00000000    0.00038768
     atom   15 type  1   force =    -0.00312429    0.00000000   -0.00040029
     atom   16 type  1   force =     0.00312429   -0.00000000    0.00040029
     atom   17 type  1   force =    -0.00312429   -0.00000000    0.00040029
     atom   18 type  1   force =     0.00312429    0.00000000   -0.00040029
     atom   19 type  1   force =     0.00312059    0.00000000    0.00038768
     atom   20 type  1   force =    -0.00312059   -0.00000000   -0.00038768
     atom   21 type  1   force =     0.00000000   -0.00311689   -0.00036720
     atom   22 type  1   force =     0.00000000    0.00311689    0.00036720
     atom   23 type  1   force =     0.00000000    0.00313179   -0.00041341
     atom   24 type  1   force =     0.00000000   -0.00313179    0.00041341

     Total force =     0.012963     Total SCF correction =     0.000046


     Computing stress (Cartesian axis) and pressure

          total   stress  (Ry/bohr**3)                   (kbar)     P=      -12.70
  -0.00009758   0.00000000   0.00000000          -14.35        0.00        0.00
   0.00000000  -0.00009756   0.00000000            0.00      -14.35        0.00
   0.00000000   0.00000000  -0.00006388            0.00        0.00       -9.40

     Energy error            =      3.9E-04 Ry
     Gradient error          =      3.1E-03 Ry/Bohr

     number of scf cycles    =   4
     number of bfgs steps    =   3

     energy             old  =    -278.6888437989 Ry
     energy             new  =    -278.6892335933 Ry

     CASE: energy            _new < energy            _old

     new trust radius        =       0.0057135301 bohr
     new conv_thr            =       0.0000000031 Ry


ATOMIC_POSITIONS (crystal)
O               -0.0000000000        0.2499999930        0.6103644733
O               -0.0000000000        0.7500000070        0.3896355557
O                0.5000000000        0.7499999993        0.1103937622
O                0.5000000000        0.2500000007        0.8896062088
O               -0.0000000000        0.7499999881        0.8603782067
O               -0.0000000000        0.2500000119        0.1396218223
O                0.5000000000        0.2499999999        0.3603746823
O                0.5000000000        0.7500000001        0.6396252887
H                0.0000000000        0.4096111354        0.6942161890
H                0.0000000000        0.5903888346        0.3057838110
H                0.5000000000        0.5903781180        0.1942304686
H                0.5000000000        0.4096218520        0.8057695314
H                0.8403840530        0.7499999999        0.9442227170
H                0.1596159170        0.2500000001        0.0557772830
H                0.6596165310        0.2500000028        0.4442205589
H                0.3403834990        0.7499999972        0.5557794411
H                0.6596165310        0.7499999972        0.5557794411
H                0.3403834990        0.2500000028        0.4442205589
H                0.8403840530        0.2500000001        0.0557772830
H                0.1596159170        0.7499999999        0.9442227170
H                0.5000000000        0.9096218703        0.1942304649
H                0.5000000000        0.0903781597        0.8057695351
H                0.0000000000        0.0903888957        0.6942161750
H                0.0000000000        0.9096111343        0.3057838250



     Writing config-only to output data dir ./iceVIII/iceVIII.save/ :
     XML data file
     NEW-OLD atomic charge density approx. for the potential

     total cpu time spent up to now is      109.3 secs

     per-process dynamical memory:    23.0 Mb

     Self-consistent Calculation

     iteration #  1     ecut=    90.00 Ry     beta= 0.70
     Davidson diagonalization with overlap
     ethr =  1.00E-06,  avg # of iterations =  3.0

     Threshold (ethr) on eigenvalues was too large:
     Diagonalizing with lowered threshold

     Davidson diagonalization with overlap
     ethr =  3.60E-08,  avg # of iterations =  3.6

     total cpu time spent up to now is      114.2 secs

     total energy              =    -278.68943800 Ry
     estimated scf accuracy    <       0.00002671 Ry

     iteration #  2     ecut=    90.00 Ry     beta= 0.70
     Davidson diagonalization with overlap
     ethr =  4.17E-08,  avg # of iterations =  2.0

     total cpu time spent up to now is      116.3 secs

     total energy              =    -278.68944213 Ry
     estimated scf accuracy    <       0.00000126 Ry

     iteration #  3     ecut=    90.00 Ry     beta= 0.70
     Davidson diagonalization with overlap
     ethr =  1.97E-09,  avg # of iterations =  2.0

     total cpu time spent up to now is      118.6 secs

     total energy              =    -278.68944234 Ry
     estimated scf accuracy    <       0.00000013 Ry

     iteration #  4     ecut=    90.00 Ry     beta= 0.70
     Davidson diagonalization with overlap
     ethr =  2.08E-10,  avg # of iterations =  2.6

     total cpu time spent up to now is      121.0 secs

     total energy              =    -278.68944237 Ry
     estimated scf accuracy    <       0.00000001 Ry

     iteration #  5     ecut=    90.00 Ry     beta= 0.70
     Davidson diagonalization with overlap
     ethr =  1.72E-11,  avg # of iterations =  2.1

     total cpu time spent up to now is      123.2 secs

     End of self-consistent calculation

     Number of k-points >= 100: set verbosity='high' to print the bands.

     highest occupied level (ev):    -1.6276

!    total energy              =    -278.68944237 Ry
     estimated scf accuracy    <          3.2E-10 Ry

     The total energy is the sum of the following terms:
     one-electron contribution =    -145.69834972 Ry
     hartree contribution      =      98.10699392 Ry
     xc contribution           =     -70.52857303 Ry
     ewald contribution        =    -160.56951353 Ry

     convergence has been achieved in   5 iterations

     Forces acting on atoms (cartesian axes, Ry/au):

     atom    1 type  2   force =     0.00000000    0.00000031   -0.00058280
     atom    2 type  2   force =     0.00000000   -0.00000031    0.00058280
     atom    3 type  2   force =    -0.00000000   -0.00000007   -0.00051815
     atom    4 type  2   force =    -0.00000000    0.00000007    0.00051815
     atom    5 type  2   force =     0.00000000    0.00000000   -0.00055206
     atom    6 type  2   force =     0.00000000   -0.00000000    0.00055206
     atom    7 type  2   force =     0.00000000    0.00000000   -0.00054722
     atom    8 type  2   force =     0.00000000   -0.00000000    0.00054722
     atom    9 type  1   force =     0.00000000   -0.00088229   -0.00061877
     atom   10 type  1   force =     0.00000000    0.00088229    0.00061877
     atom   11 type  1   force =     0.00000000    0.00087965   -0.00057526
     atom   12 type  1   force =     0.00000000   -0.00087965    0.00057526
     atom   13 type  1   force =     0.00088195   -0.00000000   -0.00059801
     atom   14 type  1   force =    -0.00088195    0.00000000    0.00059801
     atom   15 type  1   force =    -0.00088208   -0.00000000   -0.00060752
     atom   16 type  1   force =     0.00088208    0.00000000    0.00060752
     atom   17 type  1   force =    -0.00088208    0.00000000    0.00060752
     atom   18 type  1   force =     0.00088208   -0.00000000   -0.00060752
     atom   19 type  1   force =     0.00088195    0.00000000    0.00059801
     atom   20 type  1   force =    -0.00088195   -0.00000000   -0.00059801
     atom   21 type  1   force =     0.00000000   -0.00087958   -0.00057520
     atom   22 type  1   force =     0.00000000    0.00087958    0.00057520
     atom   23 type  1   force =     0.00000000    0.00088199   -0.00061854
     atom   24 type  1   force =     0.00000000   -0.00088199    0.00061854

     Total force =     0.004541     Total SCF correction =     0.000033


     Computing stress (Cartesian axis) and pressure

          total   stress  (Ry/bohr**3)                   (kbar)     P=      -10.48
  -0.00007580   0.00000000   0.00000000          -11.15        0.00        0.00
   0.00000000  -0.00007575  -0.00000000            0.00      -11.14       -0.00
   0.00000000  -0.00000000  -0.00006211            0.00       -0.00       -9.14

     Energy error            =      2.1E-04 Ry
     Gradient error          =      8.8E-04 Ry/Bohr

     number of scf cycles    =   5
     number of bfgs steps    =   4

     energy             old  =    -278.6892335933 Ry
     energy             new  =    -278.6894423677 Ry

     CASE: energy            _new < energy            _old

     new trust radius        =       0.0024988421 bohr
     new conv_thr            =       0.0000000010 Ry


ATOMIC_POSITIONS (crystal)
O                0.0000000000        0.2500000361        0.6101822847
O                0.0000000000        0.7499999639        0.3898177443
O                0.5000000000        0.7499999897        0.1102203364
O                0.5000000000        0.2500000103        0.8897796346
O               -0.0000000000        0.7499999892        0.8602002644
O               -0.0000000000        0.2500000108        0.1397997646
O                0.5000000000        0.2500000004        0.3601967529
O                0.5000000000        0.7499999996        0.6398032181
H                0.0000000000        0.4093489935        0.6941779990
H                0.0000000000        0.5906509765        0.3058220010
H                0.5000000000        0.5906389327        0.1941984213
H                0.5000000000        0.4093610373        0.8058015787
H                0.8406456749        0.7499999992        0.9441874901
H                0.1593542951        0.2500000008        0.0558125099
H                0.6593549051        0.2500000025        0.4441840308
H                0.3406451249        0.7499999975        0.5558159692
H                0.6593549051        0.7499999975        0.5558159692
H                0.3406451249        0.2500000025        0.4441840308
H                0.8406456749        0.2500000008        0.0558125099
H                0.1593542951        0.7499999992        0.9441874901
H                0.5000000000        0.9093610656        0.1941984230
H                0.5000000000        0.0906389644        0.8058015770
H                0.0000000000        0.0906509955        0.6941780066
H                0.0000000000        0.9093490345        0.3058219934



     Writing config-only to output data dir ./iceVIII/iceVIII.save/ :
     XML data file
     NEW-OLD atomic charge density approx. for the potential

     total cpu time spent up to now is      125.4 secs

     per-process dynamical memory:    23.0 Mb

     Self-consistent Calculation

     iteration #  1     ecut=    90.00 Ry     beta= 0.70
     Davidson diagonalization with overlap
     ethr =  1.00E-06,  avg # of iterations =  2.0

     Threshold (ethr) on eigenvalues was too large:
     Diagonalizing with lowered threshold

     Davidson diagonalization with overlap
     ethr =  6.88E-09,  avg # of iterations =  4.9

     total cpu time spent up to now is      130.6 secs

     total energy              =    -278.68947022 Ry
     estimated scf accuracy    <       0.00000685 Ry

     iteration #  2     ecut=    90.00 Ry     beta= 0.70
     Davidson diagonalization with overlap
     ethr =  1.07E-08,  avg # of iterations =  2.0

     total cpu time spent up to now is      132.7 secs

     total energy              =    -278.68947128 Ry
     estimated scf accuracy    <       0.00000044 Ry

     iteration #  3     ecut=    90.00 Ry     beta= 0.70
     Davidson diagonalization with overlap
     ethr =  6.88E-10,  avg # of iterations =  2.0

     total cpu time spent up to now is      135.0 secs

     total energy              =    -278.68947137 Ry
     estimated scf accuracy    <       0.00000007 Ry

     iteration #  4     ecut=    90.00 Ry     beta= 0.70
     Davidson diagonalization with overlap
     ethr =  1.05E-10,  avg # of iterations =  2.0

     total cpu time spent up to now is      137.2 secs

     total energy              =    -278.68947139 Ry
     estimated scf accuracy    <          1.9E-09 Ry

     iteration #  5     ecut=    90.00 Ry     beta= 0.70
     Davidson diagonalization with overlap
     ethr =  3.03E-12,  avg # of iterations =  3.9

     total cpu time spent up to now is      139.8 secs

     End of self-consistent calculation

     Number of k-points >= 100: set verbosity='high' to print the bands.

     highest occupied level (ev):    -1.6302

!    total energy              =    -278.68947139 Ry
     estimated scf accuracy    <          7.1E-10 Ry

     The total energy is the sum of the following terms:
     one-electron contribution =    -145.76332382 Ry
     hartree contribution      =      98.13479958 Ry
     xc contribution           =     -70.53387805 Ry
     ewald contribution        =    -160.52706909 Ry

     convergence has been achieved in   5 iterations

     Forces acting on atoms (cartesian axes, Ry/au):

     atom    1 type  2   force =     0.00000000   -0.00000050   -0.00048609
     atom    2 type  2   force =     0.00000000    0.00000050    0.00048609
     atom    3 type  2   force =     0.00000000    0.00000011   -0.00044208
     atom    4 type  2   force =     0.00000000   -0.00000011    0.00044208
     atom    5 type  2   force =     0.00000000    0.00000002   -0.00047004
     atom    6 type  2   force =     0.00000000   -0.00000002    0.00047004
     atom    7 type  2   force =     0.00000000   -0.00000000   -0.00047177
     atom    8 type  2   force =     0.00000000    0.00000000    0.00047177
     atom    9 type  1   force =     0.00000000    0.00013431   -0.00063596
     atom   10 type  1   force =     0.00000000   -0.00013431    0.00063596
     atom   11 type  1   force =     0.00000000   -0.00014099   -0.00058437
     atom   12 type  1   force =     0.00000000    0.00014099    0.00058437
     atom   13 type  1   force =    -0.00013708   -0.00000000   -0.00061115
     atom   14 type  1   force =     0.00013708    0.00000000    0.00061115
     atom   15 type  1   force =     0.00014313    0.00000000   -0.00061331
     atom   16 type  1   force =    -0.00014313   -0.00000000    0.00061331
     atom   17 type  1   force =     0.00014313   -0.00000000    0.00061331
     atom   18 type  1   force =    -0.00014313    0.00000000   -0.00061331
     atom   19 type  1   force =    -0.00013708    0.00000000    0.00061115
     atom   20 type  1   force =     0.00013708   -0.00000000   -0.00061115
     atom   21 type  1   force =     0.00000000    0.00014088   -0.00058444
     atom   22 type  1   force =     0.00000000   -0.00014088    0.00058444
     atom   23 type  1   force =     0.00000000   -0.00013384   -0.00063631
     atom   24 type  1   force =     0.00000000    0.00013384    0.00063631

     Total force =     0.002836     Total SCF correction =     0.000010


     Computing stress (Cartesian axis) and pressure

          total   stress  (Ry/bohr**3)                   (kbar)     P=       -9.40
  -0.00006574   0.00000000   0.00000000           -9.67        0.00        0.00
   0.00000000  -0.00006573   0.00000000            0.00       -9.67        0.00
   0.00000000   0.00000000  -0.00006016            0.00        0.00       -8.85

     Energy error            =      2.9E-05 Ry
     Gradient error          =      6.4E-04 Ry/Bohr

     bfgs converged in   6 scf cycles and   5 bfgs steps
     (criteria: energy <  1.0E-04 Ry, force <  1.0E-03 Ry/Bohr)

     End of BFGS Geometry Optimization

     Final energy             =    -278.6894713853 Ry

     File ./iceVIII/iceVIII.bfgs deleted, as requested
Begin final coordinates

ATOMIC_POSITIONS (crystal)
O                0.0000000000        0.2500000361        0.6101822847
O                0.0000000000        0.7499999639        0.3898177443
O                0.5000000000        0.7499999897        0.1102203364
O                0.5000000000        0.2500000103        0.8897796346
O               -0.0000000000        0.7499999892        0.8602002644
O               -0.0000000000        0.2500000108        0.1397997646
O                0.5000000000        0.2500000004        0.3601967529
O                0.5000000000        0.7499999996        0.6398032181
H                0.0000000000        0.4093489935        0.6941779990
H                0.0000000000        0.5906509765        0.3058220010
H                0.5000000000        0.5906389327        0.1941984213
H                0.5000000000        0.4093610373        0.8058015787
H                0.8406456749        0.7499999992        0.9441874901
H                0.1593542951        0.2500000008        0.0558125099
H                0.6593549051        0.2500000025        0.4441840308
H                0.3406451249        0.7499999975        0.5558159692
H                0.6593549051        0.7499999975        0.5558159692
H                0.3406451249        0.2500000025        0.4441840308
H                0.8406456749        0.2500000008        0.0558125099
H                0.1593542951        0.7499999992        0.9441874901
H                0.5000000000        0.9093610656        0.1941984230
H                0.5000000000        0.0906389644        0.8058015770
H                0.0000000000        0.0906509955        0.6941780066
H                0.0000000000        0.9093490345        0.3058219934
End final coordinates



     Writing all to output data dir ./iceVIII/iceVIII.save/ :
     XML data file, charge density, pseudopotentials, collected wavefunctions

     init_run     :      2.91s CPU      2.99s WALL (       1 calls)
     electrons    :    122.54s CPU    125.22s WALL (       6 calls)
     update_pot   :      0.23s CPU      0.27s WALL (       5 calls)
     forces       :      0.89s CPU      0.90s WALL (       6 calls)
     stress       :     11.68s CPU     11.74s WALL (       6 calls)

     Called by init_run:
     wfcinit      :      0.95s CPU      0.97s WALL (       1 calls)
     potinit      :      1.56s CPU      1.59s WALL (       1 calls)
     hinit0       :      0.33s CPU      0.35s WALL (       1 calls)

     Called by electrons:
     c_bands      :    107.12s CPU    109.12s WALL (      51 calls)
     sum_band     :     13.01s CPU     13.19s WALL (      51 calls)
     v_of_rho     :      3.90s CPU      4.24s WALL (      54 calls)
     newd         :      0.09s CPU      0.11s WALL (      54 calls)
     mix_rho      :      0.07s CPU      0.07s WALL (      51 calls)
     vdW_kernel   :      1.51s CPU      1.52s WALL (       1 calls)

     Called by c_bands:
     init_us_2    :      1.48s CPU      1.53s WALL (    4140 calls)
     cegterg      :    103.73s CPU    104.91s WALL (    1836 calls)

     Called by *egterg:
     cdiaghg      :     11.06s CPU     11.13s WALL (    6449 calls)
     h_psi        :     77.71s CPU     78.75s WALL (    6773 calls)
     s_psi        :      2.98s CPU      3.02s WALL (    6773 calls)
     g_psi        :      0.27s CPU      0.27s WALL (    4901 calls)

     Called by h_psi:
     h_psi:calbec :      4.38s CPU      4.43s WALL (    6773 calls)
     vloc_psi     :     69.67s CPU     70.62s WALL (    6773 calls)
     add_vuspsi   :      3.22s CPU      3.26s WALL (    6773 calls)

     General routines
     calbec       :      6.36s CPU      6.42s WALL (    9689 calls)
     fft          :      1.65s CPU      1.69s WALL (    3614 calls)
     ffts         :      0.02s CPU      0.02s WALL (      51 calls)
     fftw         :     73.45s CPU     74.43s WALL (  424176 calls)

     Parallel routines

     PWSCF        :   2m19.48s CPU   2m24.76s WALL


   This run was terminated on:  15:44:44   1Apr2026            

=------------------------------------------------------------------------------=
   JOB DONE.
=------------------------------------------------------------------------------=
