
     Program PWSCF v.7.3.1 starts on 26Mar2026 at 16:18:30 

     This program is part of the open-source Quantum ESPRESSO suite
     for quantum simulation of materials; please cite
         "P. Giannozzi et al., J. Phys.:Condens. Matter 21 395502 (2009);
         "P. Giannozzi et al., J. Phys.:Condens. Matter 29 465901 (2017);
         "P. Giannozzi et al., J. Chem. Phys. 152 154105 (2020);
          URL http://www.quantum-espresso.org", 
     in publications or presentations arising from this work. More details at
     http://www.quantum-espresso.org/quote

     Parallel version (MPI), running on   128 processors

     MPI processes distributed on     1 nodes
     241793 MiB available memory on the printing compute node when the environment starts

     Waiting for input...
     Reading input from standard input

     Current dimensions of program PWSCF are:
     Max number of different atomic species (ntypx) = 10
     Max number of k-points (npk) =  40000
     Max angular momentum in pseudopotentials (lmaxx) =  4

     IMPORTANT: XC functional enforced from input :
     Exchange-correlation= VDW-DF2
                           (   1   4  13   0   2   0   0)
     Any further DFT definition will be discarded
     Please, verify this is what you really want

     Found identity + ( -0.5000 -0.5000 -0.5000) symmetry
     This is a supercell, fractional translations are disabled

     K-points division:     npool     =       4
     R & G space division:  proc/nbgrp/npool/nimage =      32
     Subspace diagonalization in iterative solution of the eigenvalue problem:
     a serial algorithm will be used


     Parallelization info
     --------------------
     sticks:   dense  smooth     PW     G-vecs:    dense   smooth      PW
     Min          78      78     21                 4228     4228     611
     Max          79      79     22                 4232     4232     616
     Sum        2501    2501    681               135357   135357   19571

     Using Slab Decomposition



     bravais-lattice index     =            6
     lattice parameter (alat)  =       9.3376  a.u.
     unit-cell volume          =    1174.1675 (a.u.)^3
     number of atoms/cell      =           24
     number of atomic types    =            2
     number of electrons       =        64.00
     number of Kohn-Sham states=           32
     kinetic-energy cutoff     =      90.0000  Ry
     charge density cutoff     =     360.0000  Ry
     scf convergence threshold =      1.0E-07
     mixing beta               =       0.7000
     number of iterations used =            8  plain     mixing
     Exchange-correlation= VDW-DF2
                           (   1   4  13   0   2   0   0)

     celldm(1)=   9.337597  celldm(2)=   0.000000  celldm(3)=   1.442197
     celldm(4)=   0.000000  celldm(5)=   0.000000  celldm(6)=   0.000000

     crystal axes: (cart. coord. in units of alat)
               a(1) = (   1.000000   0.000000   0.000000 )  
               a(2) = (   0.000000   1.000000   0.000000 )  
               a(3) = (   0.000000   0.000000   1.442197 )  

     reciprocal axes: (cart. coord. in units 2 pi/alat)
               b(1) = (  1.000000  0.000000  0.000000 )  
               b(2) = (  0.000000  1.000000  0.000000 )  
               b(3) = (  0.000000  0.000000  0.693386 )  


     PseudoPot. # 1 for H  read from file:
     ./H.pbe-van_ak.UPF
     MD5 check sum: 077eb6d537518a38cb46c6de387227b7
     Pseudo is Ultrasoft, Zval =  1.0
     Generated by new atomic code, or converted to UPF format
     Using radial grid of  615 points,  1 beta functions with: 
                l(1) =   0
     Q(r) pseudized with  8 coefficients,  rinner =    0.800

     PseudoPot. # 2 for O  read from file:
     ./O.pbe-van_ak.UPF
     MD5 check sum: 78c19812648e8988a0fe644b0f25305e
     Pseudo is Ultrasoft, Zval =  6.0
     Generated by new atomic code, or converted to UPF format
     Using radial grid of  737 points,  4 beta functions with: 
                l(1) =   0
                l(2) =   0
                l(3) =   1
                l(4) =   1
     Q(r) pseudized with  8 coefficients,  rinner =    0.800   0.800   0.800


     atomic species   valence    mass     pseudopotential
     H                 1.00     1.00800     H ( 1.00)
     O                 6.00    16.00000     O ( 1.00)

      4 Sym. Ops., with inversion, found



   Cartesian axes

     site n.     atom                  positions (alat units)
         1        O      tau(   1) = (   0.0000000   0.2500000   0.8763462  )
         2        O      tau(   2) = (   0.0000000   0.7500000   0.5658510  )
         3        O      tau(   3) = (   0.5000000   0.7500000   0.1552476  )
         4        O      tau(   4) = (   0.5000000   0.2500000   1.2869495  )
         5        O      tau(   5) = (   0.0000000   0.7500000   1.2368921  )
         6        O      tau(   6) = (   0.0000000   0.2500000   0.2053051  )
         7        O      tau(   7) = (   0.5000000   0.2500000   0.5157934  )
         8        O      tau(   8) = (   0.5000000   0.7500000   0.9264037  )
         9        H      tau(   9) = (   0.0000000   0.4175939   1.0039395  )
        10        H      tau(  10) = (   0.0000000   0.5824060   0.4382577  )
        11        H      tau(  11) = (   0.5000000   0.5824060   0.2828409  )
        12        H      tau(  12) = (   0.5000000   0.4175939   1.1593562  )
        13        H      tau(  13) = (   0.8324057   0.7500000   1.3644894  )
        14        H      tau(  14) = (   0.1675943   0.2500000   0.0777077  )
        15        H      tau(  15) = (   0.6675943   0.2500000   0.6433908  )
        16        H      tau(  16) = (   0.3324057   0.7500000   0.7988063  )
        17        H      tau(  17) = (   0.6675943   0.7500000   0.7988063  )
        18        H      tau(  18) = (   0.3324057   0.2500000   0.6433908  )
        19        H      tau(  19) = (   0.8324057   0.2500000   0.0777077  )
        20        H      tau(  20) = (   0.1675943   0.7500000   1.3644894  )
        21        H      tau(  21) = (   0.5000000   0.9175940   0.2828409  )
        22        H      tau(  22) = (   0.5000000   0.0824061   1.1593562  )
        23        H      tau(  23) = (   0.0000000   0.0824061   1.0039395  )
        24        H      tau(  24) = (   0.0000000   0.9175940   0.4382577  )

     number of k points=   144

     Number of k-points >= 100: set verbosity='high' to print them.

     Dense  grid:   135357 G-vectors     FFT dimensions: (  60,  60,  81)

     Estimated max dynamical RAM per process >      15.48 MB

     Estimated total dynamical RAM >       1.84 GB

     Initial potential from superposition of free atoms

     starting charge      63.9998, renormalised to      64.0000


     %%%%%%%%%%%%%%%%%%%%%%%%%%%%%%%%%%%%%%%%%%%%%%%%%%%%%%%%%%%%%%%%%%%%%%%%
     %                                                                      %
     % You are using vdW-DF, which was implemented by the Thonhauser group. %
     % Please cite the following two papers that made this development      %
     % possible and the two reviews that describe the various versions:     %
     %                                                                      %
     %   T. Thonhauser et al., PRL 115, 136402 (2015).                      %
     %   T. Thonhauser et al., PRB 76, 125112 (2007).                       %
     %   K. Berland et al., Rep. Prog. Phys. 78, 066501 (2015).             %
     %   D.C. Langreth et al., J. Phys.: Condens. Matter 21, 084203 (2009). %
     %                                                                      %
     % If you are calculating stress with vdW-DF, please also cite:         %
     %                                                                      %
     %   R. Sabatini et al., J. Phys.: Condens. Matter 24, 424209 (2012).   %
     %                                                                      %
     %%%%%%%%%%%%%%%%%%%%%%%%%%%%%%%%%%%%%%%%%%%%%%%%%%%%%%%%%%%%%%%%%%%%%%%%

     %%%%%%%%%%%%%%%%%%%%%%%%%%%%%%%%%%%%%%%%%%%%%%%%%%%%%%%%%%%%%%%%%%%%%%%%
     %                                                                      %
     %  vdW-DF NEWS:                                                        %
     %                                                                      %
     %  * vdW-DF3 is now available. DOI: 10.1021/acs.jctc.0c00471           %
     %    use with input_dft = 'vdW-DF3-opt1' or 'vdW-DF3-opt2'             %
     %                                                                      %
     %  * Unscreened and range-separated hybrid vdW-DF-cx functionals       %
     %    DOI: 10.1063/1.4986522 and 10.1088/1361-648X/ac2ad2               %
     %    use with input_dft = 'vdW-DF-cx0'    and 'vdW-DF-ahcx'            %
     %  * Unscreened and range-separated hybrid vdW-DF2-b86r functionals    %
     %    DOI: 10.1063/1.4986522 and DOI: 10.1103/PhysRevX.12.041003        %
     %    use with input_dft = 'vdW-DF2-br0' and 'vdW-DF2-ahbr'             %
     %                                                                      %
     %%%%%%%%%%%%%%%%%%%%%%%%%%%%%%%%%%%%%%%%%%%%%%%%%%%%%%%%%%%%%%%%%%%%%%%%


     Starting wfcs are   48 randomized atomic wfcs

     total cpu time spent up to now is        3.2 secs

     per-process dynamical memory:    21.8 Mb

     Self-consistent Calculation

     iteration #  1     ecut=    90.00 Ry     beta= 0.70
     Davidson diagonalization with overlap
     ethr =  1.00E-02,  avg # of iterations =  2.0

     total cpu time spent up to now is        5.5 secs

     total energy              =    -277.25517496 Ry
     estimated scf accuracy    <       2.97041343 Ry

     iteration #  2     ecut=    90.00 Ry     beta= 0.70
     Davidson diagonalization with overlap
     ethr =  4.64E-03,  avg # of iterations =  3.0

     total cpu time spent up to now is        8.3 secs

     total energy              =    -278.23333759 Ry
     estimated scf accuracy    <       2.49699681 Ry

     iteration #  3     ecut=    90.00 Ry     beta= 0.70
     Davidson diagonalization with overlap
     ethr =  3.90E-03,  avg # of iterations =  2.0

     total cpu time spent up to now is       10.4 secs

     total energy              =    -278.52774789 Ry
     estimated scf accuracy    <       0.12885527 Ry

     iteration #  4     ecut=    90.00 Ry     beta= 0.70
     Davidson diagonalization with overlap
     ethr =  2.01E-04,  avg # of iterations =  4.0

     total cpu time spent up to now is       13.6 secs

     total energy              =    -278.62846523 Ry
     estimated scf accuracy    <       0.14176633 Ry

     iteration #  5     ecut=    90.00 Ry     beta= 0.70
     Davidson diagonalization with overlap
     ethr =  2.01E-04,  avg # of iterations =  1.1

     total cpu time spent up to now is       15.2 secs

     total energy              =    -278.62692041 Ry
     estimated scf accuracy    <       0.02761562 Ry

     iteration #  6     ecut=    90.00 Ry     beta= 0.70
     Davidson diagonalization with overlap
     ethr =  4.31E-05,  avg # of iterations =  2.0

     total cpu time spent up to now is       17.4 secs

     total energy              =    -278.63198615 Ry
     estimated scf accuracy    <       0.00120333 Ry

     iteration #  7     ecut=    90.00 Ry     beta= 0.70
     Davidson diagonalization with overlap
     ethr =  1.88E-06,  avg # of iterations =  2.0

     total cpu time spent up to now is       19.3 secs

     total energy              =    -278.63209415 Ry
     estimated scf accuracy    <       0.00029418 Ry

     iteration #  8     ecut=    90.00 Ry     beta= 0.70
     Davidson diagonalization with overlap
     ethr =  4.60E-07,  avg # of iterations =  2.0

     total cpu time spent up to now is       21.2 secs

     total energy              =    -278.63210728 Ry
     estimated scf accuracy    <       0.00007110 Ry

     iteration #  9     ecut=    90.00 Ry     beta= 0.70
     Davidson diagonalization with overlap
     ethr =  1.11E-07,  avg # of iterations =  2.0

     total cpu time spent up to now is       23.4 secs

     total energy              =    -278.63211831 Ry
     estimated scf accuracy    <       0.00000796 Ry

     iteration # 10     ecut=    90.00 Ry     beta= 0.70
     Davidson diagonalization with overlap
     ethr =  1.24E-08,  avg # of iterations =  2.2

     total cpu time spent up to now is       25.4 secs

     total energy              =    -278.63211921 Ry
     estimated scf accuracy    <       0.00000517 Ry

     iteration # 11     ecut=    90.00 Ry     beta= 0.70
     Davidson diagonalization with overlap
     ethr =  8.08E-09,  avg # of iterations =  2.0

     total cpu time spent up to now is       27.3 secs

     total energy              =    -278.63211863 Ry
     estimated scf accuracy    <       0.00000510 Ry

     iteration # 12     ecut=    90.00 Ry     beta= 0.70
     Davidson diagonalization with overlap
     ethr =  7.97E-09,  avg # of iterations =  1.0

     total cpu time spent up to now is       28.9 secs

     total energy              =    -278.63211802 Ry
     estimated scf accuracy    <       0.00000237 Ry

     iteration # 13     ecut=    90.00 Ry     beta= 0.70
     Davidson diagonalization with overlap
     ethr =  3.70E-09,  avg # of iterations =  2.0

     total cpu time spent up to now is       30.7 secs

     total energy              =    -278.63211801 Ry
     estimated scf accuracy    <       0.00000042 Ry

     iteration # 14     ecut=    90.00 Ry     beta= 0.70
     Davidson diagonalization with overlap
     ethr =  6.55E-10,  avg # of iterations =  2.7

     total cpu time spent up to now is       33.0 secs

     End of self-consistent calculation

     Number of k-points >= 100: set verbosity='high' to print the bands.

     highest occupied level (ev):    -1.5395

!    total energy              =    -278.63211811 Ry
     estimated scf accuracy    <       0.00000002 Ry

     The total energy is the sum of the following terms:
     one-electron contribution =    -139.98794644 Ry
     hartree contribution      =      95.57031653 Ry
     xc contribution           =     -69.90059746 Ry
     ewald contribution        =    -164.31389074 Ry

     convergence has been achieved in  14 iterations

     Forces acting on atoms (cartesian axes, Ry/au):

     atom    1 type  2   force =     0.00000000    0.00000004    0.07473183
     atom    2 type  2   force =     0.00000000   -0.00000004   -0.07473183
     atom    3 type  2   force =    -0.00000000    0.00000004    0.07482184
     atom    4 type  2   force =    -0.00000000   -0.00000004   -0.07482184
     atom    5 type  2   force =     0.00000000   -0.00000003    0.07468176
     atom    6 type  2   force =     0.00000000    0.00000003   -0.07468176
     atom    7 type  2   force =    -0.00000000   -0.00000001    0.07479992
     atom    8 type  2   force =    -0.00000000    0.00000001   -0.07479992
     atom    9 type  1   force =     0.00000000   -0.05539214   -0.03762048
     atom   10 type  1   force =     0.00000000    0.05539214    0.03762048
     atom   11 type  1   force =     0.00000000    0.05538505   -0.03762353
     atom   12 type  1   force =     0.00000000   -0.05538505    0.03762353
     atom   13 type  1   force =     0.05539633   -0.00000001   -0.03764115
     atom   14 type  1   force =    -0.05539633    0.00000001    0.03764115
     atom   15 type  1   force =    -0.05540186    0.00000001   -0.03764229
     atom   16 type  1   force =     0.05540186   -0.00000001    0.03764229
     atom   17 type  1   force =    -0.05540186   -0.00000001    0.03764229
     atom   18 type  1   force =     0.05540186    0.00000001   -0.03764229
     atom   19 type  1   force =     0.05539633    0.00000001    0.03764115
     atom   20 type  1   force =    -0.05539633   -0.00000001   -0.03764115
     atom   21 type  1   force =     0.00000000   -0.05538508   -0.03762355
     atom   22 type  1   force =     0.00000000    0.05538508    0.03762355
     atom   23 type  1   force =     0.00000000    0.05539210   -0.03762044
     atom   24 type  1   force =     0.00000000   -0.05539210    0.03762044

     Total force =     0.341270     Total SCF correction =     0.000144


     Computing stress (Cartesian axis) and pressure

          total   stress  (Ry/bohr**3)                   (kbar)     P=     -103.83
  -0.00069434   0.00000000   0.00000000         -102.14        0.00        0.00
   0.00000000  -0.00069403  -0.00000000            0.00     -102.10       -0.00
   0.00000000  -0.00000000  -0.00072913            0.00       -0.00     -107.26


     Writing all to output data dir ./iceVIII/iceVIII.save/ :
     XML data file, charge density, pseudopotentials, collected wavefunctions

     init_run     :      2.93s CPU      3.02s WALL (       1 calls)
     electrons    :     29.16s CPU     29.84s WALL (       1 calls)
     forces       :      0.14s CPU      0.16s WALL (       1 calls)
     stress       :      1.96s CPU      1.97s WALL (       1 calls)

     Called by init_run:
     wfcinit      :      0.96s CPU      0.99s WALL (       1 calls)
     potinit      :      1.56s CPU      1.59s WALL (       1 calls)
     hinit0       :      0.34s CPU      0.35s WALL (       1 calls)

     Called by electrons:
     c_bands      :     24.89s CPU     25.39s WALL (      14 calls)
     sum_band     :      3.58s CPU      3.63s WALL (      14 calls)
     v_of_rho     :      2.18s CPU      2.28s WALL (      15 calls)
     newd         :      0.02s CPU      0.03s WALL (      15 calls)
     mix_rho      :      0.03s CPU      0.03s WALL (      14 calls)
     vdW_kernel   :      1.50s CPU      1.51s WALL (       1 calls)

     Called by c_bands:
     init_us_2    :      0.39s CPU      0.41s WALL (    1116 calls)
     cegterg      :     23.98s CPU     24.30s WALL (     504 calls)

     Called by *egterg:
     cdiaghg      :      2.54s CPU      2.56s WALL (    1593 calls)
     h_psi        :     18.70s CPU     18.99s WALL (    1629 calls)
     s_psi        :      0.72s CPU      0.73s WALL (    1629 calls)
     g_psi        :      0.06s CPU      0.06s WALL (    1089 calls)

     Called by h_psi:
     h_psi:calbec :      1.05s CPU      1.06s WALL (    1629 calls)
     vloc_psi     :     16.76s CPU     17.02s WALL (    1629 calls)
     add_vuspsi   :      0.78s CPU      0.79s WALL (    1629 calls)

     General routines
     calbec       :      1.49s CPU      1.51s WALL (    2313 calls)
     fft          :      0.69s CPU      0.70s WALL (     967 calls)
     ffts         :      0.01s CPU      0.01s WALL (      14 calls)
     fftw         :     17.99s CPU     18.26s WALL (  104718 calls)

     Parallel routines

     PWSCF        :     34.99s CPU     37.24s WALL


   This run was terminated on:  16:19: 7  26Mar2026            

=------------------------------------------------------------------------------=
   JOB DONE.
=------------------------------------------------------------------------------=
