
     Program PWSCF v.7.3.1 starts on 26Mar2026 at 16:19: 9 

     This program is part of the open-source Quantum ESPRESSO suite
     for quantum simulation of materials; please cite
         "P. Giannozzi et al., J. Phys.:Condens. Matter 21 395502 (2009);
         "P. Giannozzi et al., J. Phys.:Condens. Matter 29 465901 (2017);
         "P. Giannozzi et al., J. Chem. Phys. 152 154105 (2020);
          URL http://www.quantum-espresso.org", 
     in publications or presentations arising from this work. More details at
     http://www.quantum-espresso.org/quote

     Parallel version (MPI), running on   128 processors

     MPI processes distributed on     1 nodes
     241826 MiB available memory on the printing compute node when the environment starts

     Waiting for input...
     Reading input from standard input

     Current dimensions of program PWSCF are:
     Max number of different atomic species (ntypx) = 10
     Max number of k-points (npk) =  40000
     Max angular momentum in pseudopotentials (lmaxx) =  4

     IMPORTANT: XC functional enforced from input :
     Exchange-correlation= VDW-DF2
                           (   1   4  13   0   2   0   0)
     Any further DFT definition will be discarded
     Please, verify this is what you really want

     Found identity + ( -0.5000 -0.5000 -0.5000) symmetry
     This is a supercell, fractional translations are disabled

     K-points division:     npool     =       4
     R & G space division:  proc/nbgrp/npool/nimage =      32
     Subspace diagonalization in iterative solution of the eigenvalue problem:
     a serial algorithm will be used


     Parallelization info
     --------------------
     sticks:   dense  smooth     PW     G-vecs:    dense   smooth      PW
     Min          78      78     21                 4254     4254     613
     Max          79      79     22                 4259     4259     620
     Sum        2509    2509    681               136197   136197   19643

     Using Slab Decomposition



     bravais-lattice index     =            6
     lattice parameter (alat)  =       9.3553  a.u.
     unit-cell volume          =    1180.8770 (a.u.)^3
     number of atoms/cell      =           24
     number of atomic types    =            2
     number of electrons       =        64.00
     number of Kohn-Sham states=           32
     kinetic-energy cutoff     =      90.0000  Ry
     charge density cutoff     =     360.0000  Ry
     scf convergence threshold =      1.0E-07
     mixing beta               =       0.7000
     number of iterations used =            8  plain     mixing
     Exchange-correlation= VDW-DF2
                           (   1   4  13   0   2   0   0)

     celldm(1)=   9.355349  celldm(2)=   0.000000  celldm(3)=   1.442197
     celldm(4)=   0.000000  celldm(5)=   0.000000  celldm(6)=   0.000000

     crystal axes: (cart. coord. in units of alat)
               a(1) = (   1.000000   0.000000   0.000000 )  
               a(2) = (   0.000000   1.000000   0.000000 )  
               a(3) = (   0.000000   0.000000   1.442197 )  

     reciprocal axes: (cart. coord. in units 2 pi/alat)
               b(1) = (  1.000000  0.000000  0.000000 )  
               b(2) = (  0.000000  1.000000  0.000000 )  
               b(3) = (  0.000000  0.000000  0.693386 )  


     PseudoPot. # 1 for H  read from file:
     ./H.pbe-van_ak.UPF
     MD5 check sum: 077eb6d537518a38cb46c6de387227b7
     Pseudo is Ultrasoft, Zval =  1.0
     Generated by new atomic code, or converted to UPF format
     Using radial grid of  615 points,  1 beta functions with: 
                l(1) =   0
     Q(r) pseudized with  8 coefficients,  rinner =    0.800

     PseudoPot. # 2 for O  read from file:
     ./O.pbe-van_ak.UPF
     MD5 check sum: 78c19812648e8988a0fe644b0f25305e
     Pseudo is Ultrasoft, Zval =  6.0
     Generated by new atomic code, or converted to UPF format
     Using radial grid of  737 points,  4 beta functions with: 
                l(1) =   0
                l(2) =   0
                l(3) =   1
                l(4) =   1
     Q(r) pseudized with  8 coefficients,  rinner =    0.800   0.800   0.800


     atomic species   valence    mass     pseudopotential
     H                 1.00     1.00800     H ( 1.00)
     O                 6.00    16.00000     O ( 1.00)

      4 Sym. Ops., with inversion, found



   Cartesian axes

     site n.     atom                  positions (alat units)
         1        O      tau(   1) = (   0.0000000   0.2500000   0.8763462  )
         2        O      tau(   2) = (   0.0000000   0.7500000   0.5658510  )
         3        O      tau(   3) = (   0.5000000   0.7500000   0.1552476  )
         4        O      tau(   4) = (   0.5000000   0.2500000   1.2869495  )
         5        O      tau(   5) = (   0.0000000   0.7500000   1.2368921  )
         6        O      tau(   6) = (   0.0000000   0.2500000   0.2053051  )
         7        O      tau(   7) = (   0.5000000   0.2500000   0.5157934  )
         8        O      tau(   8) = (   0.5000000   0.7500000   0.9264037  )
         9        H      tau(   9) = (   0.0000000   0.4175939   1.0039395  )
        10        H      tau(  10) = (   0.0000000   0.5824060   0.4382577  )
        11        H      tau(  11) = (   0.5000000   0.5824060   0.2828409  )
        12        H      tau(  12) = (   0.5000000   0.4175939   1.1593562  )
        13        H      tau(  13) = (   0.8324057   0.7500000   1.3644894  )
        14        H      tau(  14) = (   0.1675943   0.2500000   0.0777077  )
        15        H      tau(  15) = (   0.6675943   0.2500000   0.6433908  )
        16        H      tau(  16) = (   0.3324057   0.7500000   0.7988063  )
        17        H      tau(  17) = (   0.6675943   0.7500000   0.7988063  )
        18        H      tau(  18) = (   0.3324057   0.2500000   0.6433908  )
        19        H      tau(  19) = (   0.8324057   0.2500000   0.0777077  )
        20        H      tau(  20) = (   0.1675943   0.7500000   1.3644894  )
        21        H      tau(  21) = (   0.5000000   0.9175940   0.2828409  )
        22        H      tau(  22) = (   0.5000000   0.0824061   1.1593562  )
        23        H      tau(  23) = (   0.0000000   0.0824061   1.0039395  )
        24        H      tau(  24) = (   0.0000000   0.9175940   0.4382577  )

     number of k points=   144

     Number of k-points >= 100: set verbosity='high' to print them.

     Dense  grid:   136197 G-vectors     FFT dimensions: (  60,  60,  81)

     Estimated max dynamical RAM per process >      15.56 MB

     Estimated total dynamical RAM >       1.85 GB

     Initial potential from superposition of free atoms

     starting charge      63.9998, renormalised to      64.0000


     %%%%%%%%%%%%%%%%%%%%%%%%%%%%%%%%%%%%%%%%%%%%%%%%%%%%%%%%%%%%%%%%%%%%%%%%
     %                                                                      %
     % You are using vdW-DF, which was implemented by the Thonhauser group. %
     % Please cite the following two papers that made this development      %
     % possible and the two reviews that describe the various versions:     %
     %                                                                      %
     %   T. Thonhauser et al., PRL 115, 136402 (2015).                      %
     %   T. Thonhauser et al., PRB 76, 125112 (2007).                       %
     %   K. Berland et al., Rep. Prog. Phys. 78, 066501 (2015).             %
     %   D.C. Langreth et al., J. Phys.: Condens. Matter 21, 084203 (2009). %
     %                                                                      %
     % If you are calculating stress with vdW-DF, please also cite:         %
     %                                                                      %
     %   R. Sabatini et al., J. Phys.: Condens. Matter 24, 424209 (2012).   %
     %                                                                      %
     %%%%%%%%%%%%%%%%%%%%%%%%%%%%%%%%%%%%%%%%%%%%%%%%%%%%%%%%%%%%%%%%%%%%%%%%

     %%%%%%%%%%%%%%%%%%%%%%%%%%%%%%%%%%%%%%%%%%%%%%%%%%%%%%%%%%%%%%%%%%%%%%%%
     %                                                                      %
     %  vdW-DF NEWS:                                                        %
     %                                                                      %
     %  * vdW-DF3 is now available. DOI: 10.1021/acs.jctc.0c00471           %
     %    use with input_dft = 'vdW-DF3-opt1' or 'vdW-DF3-opt2'             %
     %                                                                      %
     %  * Unscreened and range-separated hybrid vdW-DF-cx functionals       %
     %    DOI: 10.1063/1.4986522 and 10.1088/1361-648X/ac2ad2               %
     %    use with input_dft = 'vdW-DF-cx0'    and 'vdW-DF-ahcx'            %
     %  * Unscreened and range-separated hybrid vdW-DF2-b86r functionals    %
     %    DOI: 10.1063/1.4986522 and DOI: 10.1103/PhysRevX.12.041003        %
     %    use with input_dft = 'vdW-DF2-br0' and 'vdW-DF2-ahbr'             %
     %                                                                      %
     %%%%%%%%%%%%%%%%%%%%%%%%%%%%%%%%%%%%%%%%%%%%%%%%%%%%%%%%%%%%%%%%%%%%%%%%


     Starting wfcs are   48 randomized atomic wfcs

     total cpu time spent up to now is        3.2 secs

     per-process dynamical memory:    21.8 Mb

     Self-consistent Calculation

     iteration #  1     ecut=    90.00 Ry     beta= 0.70
     Davidson diagonalization with overlap
     ethr =  1.00E-02,  avg # of iterations =  2.0

     total cpu time spent up to now is        5.4 secs

     total energy              =    -277.24998685 Ry
     estimated scf accuracy    <       2.96685059 Ry

     iteration #  2     ecut=    90.00 Ry     beta= 0.70
     Davidson diagonalization with overlap
     ethr =  4.64E-03,  avg # of iterations =  3.0

     total cpu time spent up to now is        8.2 secs

     total energy              =    -278.22557016 Ry
     estimated scf accuracy    <       2.51620684 Ry

     iteration #  3     ecut=    90.00 Ry     beta= 0.70
     Davidson diagonalization with overlap
     ethr =  3.93E-03,  avg # of iterations =  2.0

     total cpu time spent up to now is       10.3 secs

     total energy              =    -278.52191582 Ry
     estimated scf accuracy    <       0.13045405 Ry

     iteration #  4     ecut=    90.00 Ry     beta= 0.70
     Davidson diagonalization with overlap
     ethr =  2.04E-04,  avg # of iterations =  4.0

     total cpu time spent up to now is       13.5 secs

     total energy              =    -278.62383434 Ry
     estimated scf accuracy    <       0.14270481 Ry

     iteration #  5     ecut=    90.00 Ry     beta= 0.70
     Davidson diagonalization with overlap
     ethr =  2.04E-04,  avg # of iterations =  1.1

     total cpu time spent up to now is       15.1 secs

     total energy              =    -278.62221188 Ry
     estimated scf accuracy    <       0.02791384 Ry

     iteration #  6     ecut=    90.00 Ry     beta= 0.70
     Davidson diagonalization with overlap
     ethr =  4.36E-05,  avg # of iterations =  2.0

     total cpu time spent up to now is       17.4 secs

     total energy              =    -278.62734795 Ry
     estimated scf accuracy    <       0.00117628 Ry

     iteration #  7     ecut=    90.00 Ry     beta= 0.70
     Davidson diagonalization with overlap
     ethr =  1.84E-06,  avg # of iterations =  2.0

     total cpu time spent up to now is       19.3 secs

     total energy              =    -278.62746084 Ry
     estimated scf accuracy    <       0.00028223 Ry

     iteration #  8     ecut=    90.00 Ry     beta= 0.70
     Davidson diagonalization with overlap
     ethr =  4.41E-07,  avg # of iterations =  2.0

     total cpu time spent up to now is       21.3 secs

     total energy              =    -278.62747122 Ry
     estimated scf accuracy    <       0.00007081 Ry

     iteration #  9     ecut=    90.00 Ry     beta= 0.70
     Davidson diagonalization with overlap
     ethr =  1.11E-07,  avg # of iterations =  2.0

     total cpu time spent up to now is       23.5 secs

     total energy              =    -278.62748373 Ry
     estimated scf accuracy    <       0.00000658 Ry

     iteration # 10     ecut=    90.00 Ry     beta= 0.70
     Davidson diagonalization with overlap
     ethr =  1.03E-08,  avg # of iterations =  2.5

     total cpu time spent up to now is       25.5 secs

     total energy              =    -278.62748415 Ry
     estimated scf accuracy    <       0.00000468 Ry

     iteration # 11     ecut=    90.00 Ry     beta= 0.70
     Davidson diagonalization with overlap
     ethr =  7.31E-09,  avg # of iterations =  2.0

     total cpu time spent up to now is       27.5 secs

     total energy              =    -278.62748377 Ry
     estimated scf accuracy    <       0.00000414 Ry

     iteration # 12     ecut=    90.00 Ry     beta= 0.70
     Davidson diagonalization with overlap
     ethr =  6.47E-09,  avg # of iterations =  1.0

     total cpu time spent up to now is       29.2 secs

     total energy              =    -278.62748332 Ry
     estimated scf accuracy    <       0.00000179 Ry

     iteration # 13     ecut=    90.00 Ry     beta= 0.70
     Davidson diagonalization with overlap
     ethr =  2.79E-09,  avg # of iterations =  2.0

     total cpu time spent up to now is       30.9 secs

     total energy              =    -278.62748331 Ry
     estimated scf accuracy    <       0.00000033 Ry

     iteration # 14     ecut=    90.00 Ry     beta= 0.70
     Davidson diagonalization with overlap
     ethr =  5.11E-10,  avg # of iterations =  2.7

     total cpu time spent up to now is       33.2 secs

     End of self-consistent calculation

     Number of k-points >= 100: set verbosity='high' to print the bands.

     highest occupied level (ev):    -1.5734

!    total energy              =    -278.62748339 Ry
     estimated scf accuracy    <       0.00000002 Ry

     The total energy is the sum of the following terms:
     one-electron contribution =    -140.52193044 Ry
     hartree contribution      =      95.76444287 Ry
     xc contribution           =     -69.86789613 Ry
     ewald contribution        =    -164.00209968 Ry

     convergence has been achieved in  14 iterations

     Forces acting on atoms (cartesian axes, Ry/au):

     atom    1 type  2   force =    -0.00000000   -0.00000014    0.07710904
     atom    2 type  2   force =    -0.00000000    0.00000014   -0.07710904
     atom    3 type  2   force =     0.00000000   -0.00000011    0.07706414
     atom    4 type  2   force =     0.00000000    0.00000011   -0.07706414
     atom    5 type  2   force =     0.00000000   -0.00000004    0.07704692
     atom    6 type  2   force =     0.00000000    0.00000004   -0.07704692
     atom    7 type  2   force =     0.00000000   -0.00000017    0.07713368
     atom    8 type  2   force =     0.00000000    0.00000017   -0.07713368
     atom    9 type  1   force =     0.00000000   -0.05723906   -0.03881736
     atom   10 type  1   force =     0.00000000    0.05723906    0.03881736
     atom   11 type  1   force =     0.00000000    0.05723059   -0.03882064
     atom   12 type  1   force =     0.00000000   -0.05723059    0.03882064
     atom   13 type  1   force =     0.05723550    0.00000000   -0.03882636
     atom   14 type  1   force =    -0.05723550   -0.00000000    0.03882636
     atom   15 type  1   force =    -0.05723886   -0.00000002   -0.03883427
     atom   16 type  1   force =     0.05723886    0.00000002    0.03883427
     atom   17 type  1   force =    -0.05723886    0.00000002    0.03883427
     atom   18 type  1   force =     0.05723886   -0.00000002   -0.03883427
     atom   19 type  1   force =     0.05723550   -0.00000000    0.03882636
     atom   20 type  1   force =    -0.05723550    0.00000000   -0.03882636
     atom   21 type  1   force =     0.00000000   -0.05723059   -0.03882064
     atom   22 type  1   force =     0.00000000    0.05723059    0.03882064
     atom   23 type  1   force =     0.00000000    0.05723903   -0.03881736
     atom   24 type  1   force =     0.00000000   -0.05723903    0.03881736

     Total force =     0.352241     Total SCF correction =     0.000139


     Computing stress (Cartesian axis) and pressure

          total   stress  (Ry/bohr**3)                   (kbar)     P=     -107.37
  -0.00071791   0.00000000   0.00000000         -105.61        0.00        0.00
   0.00000000  -0.00071799  -0.00000000            0.00     -105.62       -0.00
   0.00000000  -0.00000000  -0.00075383            0.00       -0.00     -110.89


     Writing all to output data dir ./iceVIII/iceVIII.save/ :
     XML data file, charge density, pseudopotentials, collected wavefunctions

     init_run     :      2.91s CPU      3.00s WALL (       1 calls)
     electrons    :     29.36s CPU     30.04s WALL (       1 calls)
     forces       :      0.14s CPU      0.16s WALL (       1 calls)
     stress       :      2.00s CPU      2.03s WALL (       1 calls)

     Called by init_run:
     wfcinit      :      0.94s CPU      0.97s WALL (       1 calls)
     potinit      :      1.57s CPU      1.60s WALL (       1 calls)
     hinit0       :      0.34s CPU      0.34s WALL (       1 calls)

     Called by electrons:
     c_bands      :     25.04s CPU     25.54s WALL (      14 calls)
     sum_band     :      3.61s CPU      3.68s WALL (      14 calls)
     v_of_rho     :      2.19s CPU      2.28s WALL (      15 calls)
     newd         :      0.02s CPU      0.03s WALL (      15 calls)
     mix_rho      :      0.03s CPU      0.03s WALL (      14 calls)
     vdW_kernel   :      1.51s CPU      1.52s WALL (       1 calls)

     Called by c_bands:
     init_us_2    :      0.40s CPU      0.41s WALL (    1116 calls)
     cegterg      :     24.09s CPU     24.42s WALL (     504 calls)

     Called by *egterg:
     cdiaghg      :      2.54s CPU      2.56s WALL (    1600 calls)
     h_psi        :     18.75s CPU     19.04s WALL (    1636 calls)
     s_psi        :      0.76s CPU      0.77s WALL (    1636 calls)
     g_psi        :      0.06s CPU      0.06s WALL (    1096 calls)

     Called by h_psi:
     h_psi:calbec :      1.06s CPU      1.08s WALL (    1636 calls)
     vloc_psi     :     16.78s CPU     17.04s WALL (    1636 calls)
     add_vuspsi   :      0.79s CPU      0.80s WALL (    1636 calls)

     General routines
     calbec       :      1.50s CPU      1.52s WALL (    2320 calls)
     fft          :      0.66s CPU      0.68s WALL (     967 calls)
     ffts         :      0.01s CPU      0.01s WALL (      14 calls)
     fftw         :     18.05s CPU     18.33s WALL (  105070 calls)

     Parallel routines

     PWSCF        :     35.26s CPU     36.95s WALL


   This run was terminated on:  16:19:46  26Mar2026            

=------------------------------------------------------------------------------=
   JOB DONE.
=------------------------------------------------------------------------------=
