
     Program PWSCF v.7.3.1 starts on 26Mar2026 at 16:20:25 

     This program is part of the open-source Quantum ESPRESSO suite
     for quantum simulation of materials; please cite
         "P. Giannozzi et al., J. Phys.:Condens. Matter 21 395502 (2009);
         "P. Giannozzi et al., J. Phys.:Condens. Matter 29 465901 (2017);
         "P. Giannozzi et al., J. Chem. Phys. 152 154105 (2020);
          URL http://www.quantum-espresso.org", 
     in publications or presentations arising from this work. More details at
     http://www.quantum-espresso.org/quote

     Parallel version (MPI), running on   128 processors

     MPI processes distributed on     1 nodes
     241745 MiB available memory on the printing compute node when the environment starts

     Waiting for input...
     Reading input from standard input

     Current dimensions of program PWSCF are:
     Max number of different atomic species (ntypx) = 10
     Max number of k-points (npk) =  40000
     Max angular momentum in pseudopotentials (lmaxx) =  4

     IMPORTANT: XC functional enforced from input :
     Exchange-correlation= VDW-DF2
                           (   1   4  13   0   2   0   0)
     Any further DFT definition will be discarded
     Please, verify this is what you really want

     Found identity + ( -0.5000 -0.5000 -0.5000) symmetry
     This is a supercell, fractional translations are disabled

     K-points division:     npool     =       4
     R & G space division:  proc/nbgrp/npool/nimage =      32
     Subspace diagonalization in iterative solution of the eigenvalue problem:
     a serial algorithm will be used


     Parallelization info
     --------------------
     sticks:   dense  smooth     PW     G-vecs:    dense   smooth      PW
     Min          79      79     21                 4305     4305     619
     Max          80      80     22                 4310     4310     628
     Sum        2537    2537    697               137817   137817   19883

     Using Slab Decomposition



     bravais-lattice index     =            6
     lattice parameter (alat)  =       9.3909  a.u.
     unit-cell volume          =    1194.3726 (a.u.)^3
     number of atoms/cell      =           24
     number of atomic types    =            2
     number of electrons       =        64.00
     number of Kohn-Sham states=           32
     kinetic-energy cutoff     =      90.0000  Ry
     charge density cutoff     =     360.0000  Ry
     scf convergence threshold =      1.0E-07
     mixing beta               =       0.7000
     number of iterations used =            8  plain     mixing
     Exchange-correlation= VDW-DF2
                           (   1   4  13   0   2   0   0)

     celldm(1)=   9.390853  celldm(2)=   0.000000  celldm(3)=   1.442197
     celldm(4)=   0.000000  celldm(5)=   0.000000  celldm(6)=   0.000000

     crystal axes: (cart. coord. in units of alat)
               a(1) = (   1.000000   0.000000   0.000000 )  
               a(2) = (   0.000000   1.000000   0.000000 )  
               a(3) = (   0.000000   0.000000   1.442197 )  

     reciprocal axes: (cart. coord. in units 2 pi/alat)
               b(1) = (  1.000000  0.000000  0.000000 )  
               b(2) = (  0.000000  1.000000  0.000000 )  
               b(3) = (  0.000000  0.000000  0.693386 )  


     PseudoPot. # 1 for H  read from file:
     ./H.pbe-van_ak.UPF
     MD5 check sum: 077eb6d537518a38cb46c6de387227b7
     Pseudo is Ultrasoft, Zval =  1.0
     Generated by new atomic code, or converted to UPF format
     Using radial grid of  615 points,  1 beta functions with: 
                l(1) =   0
     Q(r) pseudized with  8 coefficients,  rinner =    0.800

     PseudoPot. # 2 for O  read from file:
     ./O.pbe-van_ak.UPF
     MD5 check sum: 78c19812648e8988a0fe644b0f25305e
     Pseudo is Ultrasoft, Zval =  6.0
     Generated by new atomic code, or converted to UPF format
     Using radial grid of  737 points,  4 beta functions with: 
                l(1) =   0
                l(2) =   0
                l(3) =   1
                l(4) =   1
     Q(r) pseudized with  8 coefficients,  rinner =    0.800   0.800   0.800


     atomic species   valence    mass     pseudopotential
     H                 1.00     1.00800     H ( 1.00)
     O                 6.00    16.00000     O ( 1.00)

      4 Sym. Ops., with inversion, found



   Cartesian axes

     site n.     atom                  positions (alat units)
         1        O      tau(   1) = (   0.0000000   0.2500000   0.8763462  )
         2        O      tau(   2) = (   0.0000000   0.7500000   0.5658510  )
         3        O      tau(   3) = (   0.5000000   0.7500000   0.1552476  )
         4        O      tau(   4) = (   0.5000000   0.2500000   1.2869495  )
         5        O      tau(   5) = (   0.0000000   0.7500000   1.2368921  )
         6        O      tau(   6) = (   0.0000000   0.2500000   0.2053051  )
         7        O      tau(   7) = (   0.5000000   0.2500000   0.5157934  )
         8        O      tau(   8) = (   0.5000000   0.7500000   0.9264037  )
         9        H      tau(   9) = (   0.0000000   0.4175939   1.0039395  )
        10        H      tau(  10) = (   0.0000000   0.5824060   0.4382577  )
        11        H      tau(  11) = (   0.5000000   0.5824060   0.2828409  )
        12        H      tau(  12) = (   0.5000000   0.4175939   1.1593562  )
        13        H      tau(  13) = (   0.8324057   0.7500000   1.3644894  )
        14        H      tau(  14) = (   0.1675943   0.2500000   0.0777077  )
        15        H      tau(  15) = (   0.6675943   0.2500000   0.6433908  )
        16        H      tau(  16) = (   0.3324057   0.7500000   0.7988063  )
        17        H      tau(  17) = (   0.6675943   0.7500000   0.7988063  )
        18        H      tau(  18) = (   0.3324057   0.2500000   0.6433908  )
        19        H      tau(  19) = (   0.8324057   0.2500000   0.0777077  )
        20        H      tau(  20) = (   0.1675943   0.7500000   1.3644894  )
        21        H      tau(  21) = (   0.5000000   0.9175940   0.2828409  )
        22        H      tau(  22) = (   0.5000000   0.0824061   1.1593562  )
        23        H      tau(  23) = (   0.0000000   0.0824061   1.0039395  )
        24        H      tau(  24) = (   0.0000000   0.9175940   0.4382577  )

     number of k points=   144

     Number of k-points >= 100: set verbosity='high' to print them.

     Dense  grid:   137817 G-vectors     FFT dimensions: (  60,  60,  81)

     Estimated max dynamical RAM per process >      15.71 MB

     Estimated total dynamical RAM >       1.87 GB

     Initial potential from superposition of free atoms

     starting charge      63.9998, renormalised to      64.0000


     %%%%%%%%%%%%%%%%%%%%%%%%%%%%%%%%%%%%%%%%%%%%%%%%%%%%%%%%%%%%%%%%%%%%%%%%
     %                                                                      %
     % You are using vdW-DF, which was implemented by the Thonhauser group. %
     % Please cite the following two papers that made this development      %
     % possible and the two reviews that describe the various versions:     %
     %                                                                      %
     %   T. Thonhauser et al., PRL 115, 136402 (2015).                      %
     %   T. Thonhauser et al., PRB 76, 125112 (2007).                       %
     %   K. Berland et al., Rep. Prog. Phys. 78, 066501 (2015).             %
     %   D.C. Langreth et al., J. Phys.: Condens. Matter 21, 084203 (2009). %
     %                                                                      %
     % If you are calculating stress with vdW-DF, please also cite:         %
     %                                                                      %
     %   R. Sabatini et al., J. Phys.: Condens. Matter 24, 424209 (2012).   %
     %                                                                      %
     %%%%%%%%%%%%%%%%%%%%%%%%%%%%%%%%%%%%%%%%%%%%%%%%%%%%%%%%%%%%%%%%%%%%%%%%

     %%%%%%%%%%%%%%%%%%%%%%%%%%%%%%%%%%%%%%%%%%%%%%%%%%%%%%%%%%%%%%%%%%%%%%%%
     %                                                                      %
     %  vdW-DF NEWS:                                                        %
     %                                                                      %
     %  * vdW-DF3 is now available. DOI: 10.1021/acs.jctc.0c00471           %
     %    use with input_dft = 'vdW-DF3-opt1' or 'vdW-DF3-opt2'             %
     %                                                                      %
     %  * Unscreened and range-separated hybrid vdW-DF-cx functionals       %
     %    DOI: 10.1063/1.4986522 and 10.1088/1361-648X/ac2ad2               %
     %    use with input_dft = 'vdW-DF-cx0'    and 'vdW-DF-ahcx'            %
     %  * Unscreened and range-separated hybrid vdW-DF2-b86r functionals    %
     %    DOI: 10.1063/1.4986522 and DOI: 10.1103/PhysRevX.12.041003        %
     %    use with input_dft = 'vdW-DF2-br0' and 'vdW-DF2-ahbr'             %
     %                                                                      %
     %%%%%%%%%%%%%%%%%%%%%%%%%%%%%%%%%%%%%%%%%%%%%%%%%%%%%%%%%%%%%%%%%%%%%%%%


     Starting wfcs are   48 randomized atomic wfcs

     total cpu time spent up to now is        3.3 secs

     per-process dynamical memory:    22.4 Mb

     Self-consistent Calculation

     iteration #  1     ecut=    90.00 Ry     beta= 0.70
     Davidson diagonalization with overlap
     ethr =  1.00E-02,  avg # of iterations =  2.0

     total cpu time spent up to now is        5.4 secs

     total energy              =    -277.24008918 Ry
     estimated scf accuracy    <       2.95902653 Ry

     iteration #  2     ecut=    90.00 Ry     beta= 0.70
     Davidson diagonalization with overlap
     ethr =  4.62E-03,  avg # of iterations =  3.0

     total cpu time spent up to now is        8.3 secs

     total energy              =    -278.21063754 Ry
     estimated scf accuracy    <       2.55039848 Ry

     iteration #  3     ecut=    90.00 Ry     beta= 0.70
     Davidson diagonalization with overlap
     ethr =  3.98E-03,  avg # of iterations =  2.0

     total cpu time spent up to now is       10.4 secs

     total energy              =    -278.51004668 Ry
     estimated scf accuracy    <       0.13350645 Ry

     iteration #  4     ecut=    90.00 Ry     beta= 0.70
     Davidson diagonalization with overlap
     ethr =  2.09E-04,  avg # of iterations =  4.0

     total cpu time spent up to now is       13.7 secs

     total energy              =    -278.61422489 Ry
     estimated scf accuracy    <       0.14436981 Ry

     iteration #  5     ecut=    90.00 Ry     beta= 0.70
     Davidson diagonalization with overlap
     ethr =  2.09E-04,  avg # of iterations =  1.1

     total cpu time spent up to now is       15.3 secs

     total energy              =    -278.61244594 Ry
     estimated scf accuracy    <       0.02848086 Ry

     iteration #  6     ecut=    90.00 Ry     beta= 0.70
     Davidson diagonalization with overlap
     ethr =  4.45E-05,  avg # of iterations =  2.0

     total cpu time spent up to now is       17.5 secs

     total energy              =    -278.61768202 Ry
     estimated scf accuracy    <       0.00115209 Ry

     iteration #  7     ecut=    90.00 Ry     beta= 0.70
     Davidson diagonalization with overlap
     ethr =  1.80E-06,  avg # of iterations =  2.0

     total cpu time spent up to now is       19.5 secs

     total energy              =    -278.61780525 Ry
     estimated scf accuracy    <       0.00027006 Ry

     iteration #  8     ecut=    90.00 Ry     beta= 0.70
     Davidson diagonalization with overlap
     ethr =  4.22E-07,  avg # of iterations =  2.0

     total cpu time spent up to now is       21.4 secs

     total energy              =    -278.61780515 Ry
     estimated scf accuracy    <       0.00007948 Ry

     iteration #  9     ecut=    90.00 Ry     beta= 0.70
     Davidson diagonalization with overlap
     ethr =  1.24E-07,  avg # of iterations =  2.1

     total cpu time spent up to now is       23.7 secs

     total energy              =    -278.61782257 Ry
     estimated scf accuracy    <       0.00000754 Ry

     iteration # 10     ecut=    90.00 Ry     beta= 0.70
     Davidson diagonalization with overlap
     ethr =  1.18E-08,  avg # of iterations =  2.0

     total cpu time spent up to now is       25.7 secs

     total energy              =    -278.61782290 Ry
     estimated scf accuracy    <       0.00000393 Ry

     iteration # 11     ecut=    90.00 Ry     beta= 0.70
     Davidson diagonalization with overlap
     ethr =  6.14E-09,  avg # of iterations =  2.0

     total cpu time spent up to now is       27.5 secs

     total energy              =    -278.61782237 Ry
     estimated scf accuracy    <       0.00000284 Ry

     iteration # 12     ecut=    90.00 Ry     beta= 0.70
     Davidson diagonalization with overlap
     ethr =  4.43E-09,  avg # of iterations =  1.1

     total cpu time spent up to now is       29.2 secs

     total energy              =    -278.61782219 Ry
     estimated scf accuracy    <       0.00000066 Ry

     iteration # 13     ecut=    90.00 Ry     beta= 0.70
     Davidson diagonalization with overlap
     ethr =  1.03E-09,  avg # of iterations =  2.2

     total cpu time spent up to now is       31.6 secs

     End of self-consistent calculation

     Number of k-points >= 100: set verbosity='high' to print the bands.

     highest occupied level (ev):    -1.6405

!    total energy              =    -278.61782236 Ry
     estimated scf accuracy    <       0.00000002 Ry

     The total energy is the sum of the following terms:
     one-electron contribution =    -141.58366614 Ry
     hartree contribution      =      96.15097409 Ry
     xc contribution           =     -69.80307638 Ry
     ewald contribution        =    -163.38205394 Ry

     convergence has been achieved in  13 iterations

     Forces acting on atoms (cartesian axes, Ry/au):

     atom    1 type  2   force =     0.00000000    0.00000007    0.08145193
     atom    2 type  2   force =     0.00000000   -0.00000007   -0.08145193
     atom    3 type  2   force =     0.00000000   -0.00000002    0.08146800
     atom    4 type  2   force =     0.00000000    0.00000002   -0.08146800
     atom    5 type  2   force =     0.00000000    0.00000008    0.08145761
     atom    6 type  2   force =     0.00000000   -0.00000008   -0.08145761
     atom    7 type  2   force =     0.00000000    0.00000014    0.08143401
     atom    8 type  2   force =     0.00000000   -0.00000014   -0.08143401
     atom    9 type  1   force =     0.00000000   -0.06087001   -0.04114113
     atom   10 type  1   force =     0.00000000    0.06087001    0.04114113
     atom   11 type  1   force =     0.00000000    0.06086397   -0.04113526
     atom   12 type  1   force =     0.00000000   -0.06086397    0.04113526
     atom   13 type  1   force =     0.06087491    0.00000000   -0.04114572
     atom   14 type  1   force =    -0.06087491   -0.00000000    0.04114572
     atom   15 type  1   force =    -0.06087634    0.00000002   -0.04116298
     atom   16 type  1   force =     0.06087634   -0.00000002    0.04116298
     atom   17 type  1   force =    -0.06087634   -0.00000002    0.04116298
     atom   18 type  1   force =     0.06087634    0.00000002   -0.04116298
     atom   19 type  1   force =     0.06087491   -0.00000000    0.04114572
     atom   20 type  1   force =    -0.06087491    0.00000000   -0.04114572
     atom   21 type  1   force =     0.00000000   -0.06086398   -0.04113526
     atom   22 type  1   force =     0.00000000    0.06086398    0.04113526
     atom   23 type  1   force =     0.00000000    0.06086999   -0.04114111
     atom   24 type  1   force =     0.00000000   -0.06086999    0.04114111

     Total force =     0.373430     Total SCF correction =     0.000093


     Computing stress (Cartesian axis) and pressure

          total   stress  (Ry/bohr**3)                   (kbar)     P=     -114.51
  -0.00076631   0.00000000   0.00000000         -112.73        0.00        0.00
   0.00000000  -0.00076622  -0.00000000            0.00     -112.72       -0.00
   0.00000000  -0.00000000  -0.00080279            0.00       -0.00     -118.09


     Writing all to output data dir ./iceVIII/iceVIII.save/ :
     XML data file, charge density, pseudopotentials, collected wavefunctions

     init_run     :      2.93s CPU      3.03s WALL (       1 calls)
     electrons    :     27.81s CPU     28.40s WALL (       1 calls)
     forces       :      0.15s CPU      0.17s WALL (       1 calls)
     stress       :      2.01s CPU      2.02s WALL (       1 calls)

     Called by init_run:
     wfcinit      :      0.95s CPU      0.98s WALL (       1 calls)
     potinit      :      1.58s CPU      1.62s WALL (       1 calls)
     hinit0       :      0.34s CPU      0.35s WALL (       1 calls)

     Called by electrons:
     c_bands      :     23.79s CPU     24.23s WALL (      13 calls)
     sum_band     :      3.34s CPU      3.39s WALL (      13 calls)
     v_of_rho     :      2.18s CPU      2.26s WALL (      14 calls)
     newd         :      0.02s CPU      0.03s WALL (      14 calls)
     mix_rho      :      0.03s CPU      0.03s WALL (      13 calls)
     vdW_kernel   :      1.52s CPU      1.54s WALL (       1 calls)

     Called by c_bands:
     init_us_2    :      0.38s CPU      0.40s WALL (    1044 calls)
     cegterg      :     22.89s CPU     23.18s WALL (     468 calls)

     Called by *egterg:
     cdiaghg      :      2.37s CPU      2.38s WALL (    1478 calls)
     h_psi        :     17.83s CPU     18.11s WALL (    1514 calls)
     s_psi        :      0.71s CPU      0.72s WALL (    1514 calls)
     g_psi        :      0.06s CPU      0.06s WALL (    1010 calls)

     Called by h_psi:
     h_psi:calbec :      1.01s CPU      1.02s WALL (    1514 calls)
     vloc_psi     :     15.95s CPU     16.21s WALL (    1514 calls)
     add_vuspsi   :      0.75s CPU      0.76s WALL (    1514 calls)

     General routines
     calbec       :      1.44s CPU      1.46s WALL (    2162 calls)
     fft          :      0.66s CPU      0.67s WALL (     906 calls)
     ffts         :      0.01s CPU      0.01s WALL (      13 calls)
     fftw         :     17.08s CPU     17.35s WALL (   99362 calls)

     Parallel routines

     PWSCF        :     33.68s CPU     35.13s WALL


   This run was terminated on:  16:21: 0  26Mar2026            

=------------------------------------------------------------------------------=
   JOB DONE.
=------------------------------------------------------------------------------=
