
     Program PWSCF v.7.3.1 starts on 26Mar2026 at 16:21: 2 

     This program is part of the open-source Quantum ESPRESSO suite
     for quantum simulation of materials; please cite
         "P. Giannozzi et al., J. Phys.:Condens. Matter 21 395502 (2009);
         "P. Giannozzi et al., J. Phys.:Condens. Matter 29 465901 (2017);
         "P. Giannozzi et al., J. Chem. Phys. 152 154105 (2020);
          URL http://www.quantum-espresso.org", 
     in publications or presentations arising from this work. More details at
     http://www.quantum-espresso.org/quote

     Parallel version (MPI), running on   128 processors

     MPI processes distributed on     1 nodes
     241736 MiB available memory on the printing compute node when the environment starts

     Waiting for input...
     Reading input from standard input

     Current dimensions of program PWSCF are:
     Max number of different atomic species (ntypx) = 10
     Max number of k-points (npk) =  40000
     Max angular momentum in pseudopotentials (lmaxx) =  4

     IMPORTANT: XC functional enforced from input :
     Exchange-correlation= VDW-DF2
                           (   1   4  13   0   2   0   0)
     Any further DFT definition will be discarded
     Please, verify this is what you really want

     Found identity + ( -0.5000 -0.5000 -0.5000) symmetry
     This is a supercell, fractional translations are disabled

     K-points division:     npool     =       4
     R & G space division:  proc/nbgrp/npool/nimage =      32
     Subspace diagonalization in iterative solution of the eigenvalue problem:
     a serial algorithm will be used


     Parallelization info
     --------------------
     sticks:   dense  smooth     PW     G-vecs:    dense   smooth      PW
     Min          79      79     21                 4329     4329     621
     Max          80      80     22                 4336     4336     628
     Sum        2537    2537    697               138601   138601   19931

     Using Slab Decomposition



     bravais-lattice index     =            6
     lattice parameter (alat)  =       9.4086  a.u.
     unit-cell volume          =    1201.1588 (a.u.)^3
     number of atoms/cell      =           24
     number of atomic types    =            2
     number of electrons       =        64.00
     number of Kohn-Sham states=           32
     kinetic-energy cutoff     =      90.0000  Ry
     charge density cutoff     =     360.0000  Ry
     scf convergence threshold =      1.0E-07
     mixing beta               =       0.7000
     number of iterations used =            8  plain     mixing
     Exchange-correlation= VDW-DF2
                           (   1   4  13   0   2   0   0)

     celldm(1)=   9.408606  celldm(2)=   0.000000  celldm(3)=   1.442197
     celldm(4)=   0.000000  celldm(5)=   0.000000  celldm(6)=   0.000000

     crystal axes: (cart. coord. in units of alat)
               a(1) = (   1.000000   0.000000   0.000000 )  
               a(2) = (   0.000000   1.000000   0.000000 )  
               a(3) = (   0.000000   0.000000   1.442197 )  

     reciprocal axes: (cart. coord. in units 2 pi/alat)
               b(1) = (  1.000000  0.000000  0.000000 )  
               b(2) = (  0.000000  1.000000  0.000000 )  
               b(3) = (  0.000000  0.000000  0.693386 )  


     PseudoPot. # 1 for H  read from file:
     ./H.pbe-van_ak.UPF
     MD5 check sum: 077eb6d537518a38cb46c6de387227b7
     Pseudo is Ultrasoft, Zval =  1.0
     Generated by new atomic code, or converted to UPF format
     Using radial grid of  615 points,  1 beta functions with: 
                l(1) =   0
     Q(r) pseudized with  8 coefficients,  rinner =    0.800

     PseudoPot. # 2 for O  read from file:
     ./O.pbe-van_ak.UPF
     MD5 check sum: 78c19812648e8988a0fe644b0f25305e
     Pseudo is Ultrasoft, Zval =  6.0
     Generated by new atomic code, or converted to UPF format
     Using radial grid of  737 points,  4 beta functions with: 
                l(1) =   0
                l(2) =   0
                l(3) =   1
                l(4) =   1
     Q(r) pseudized with  8 coefficients,  rinner =    0.800   0.800   0.800


     atomic species   valence    mass     pseudopotential
     H                 1.00     1.00800     H ( 1.00)
     O                 6.00    16.00000     O ( 1.00)

      4 Sym. Ops., with inversion, found



   Cartesian axes

     site n.     atom                  positions (alat units)
         1        O      tau(   1) = (   0.0000000   0.2500000   0.8763462  )
         2        O      tau(   2) = (   0.0000000   0.7500000   0.5658510  )
         3        O      tau(   3) = (   0.5000000   0.7500000   0.1552476  )
         4        O      tau(   4) = (   0.5000000   0.2500000   1.2869495  )
         5        O      tau(   5) = (   0.0000000   0.7500000   1.2368921  )
         6        O      tau(   6) = (   0.0000000   0.2500000   0.2053051  )
         7        O      tau(   7) = (   0.5000000   0.2500000   0.5157934  )
         8        O      tau(   8) = (   0.5000000   0.7500000   0.9264037  )
         9        H      tau(   9) = (   0.0000000   0.4175939   1.0039395  )
        10        H      tau(  10) = (   0.0000000   0.5824060   0.4382577  )
        11        H      tau(  11) = (   0.5000000   0.5824060   0.2828409  )
        12        H      tau(  12) = (   0.5000000   0.4175939   1.1593562  )
        13        H      tau(  13) = (   0.8324057   0.7500000   1.3644894  )
        14        H      tau(  14) = (   0.1675943   0.2500000   0.0777077  )
        15        H      tau(  15) = (   0.6675943   0.2500000   0.6433908  )
        16        H      tau(  16) = (   0.3324057   0.7500000   0.7988063  )
        17        H      tau(  17) = (   0.6675943   0.7500000   0.7988063  )
        18        H      tau(  18) = (   0.3324057   0.2500000   0.6433908  )
        19        H      tau(  19) = (   0.8324057   0.2500000   0.0777077  )
        20        H      tau(  20) = (   0.1675943   0.7500000   1.3644894  )
        21        H      tau(  21) = (   0.5000000   0.9175940   0.2828409  )
        22        H      tau(  22) = (   0.5000000   0.0824061   1.1593562  )
        23        H      tau(  23) = (   0.0000000   0.0824061   1.0039395  )
        24        H      tau(  24) = (   0.0000000   0.9175940   0.4382577  )

     number of k points=   144

     Number of k-points >= 100: set verbosity='high' to print them.

     Dense  grid:   138601 G-vectors     FFT dimensions: (  60,  60,  81)

     Estimated max dynamical RAM per process >      15.79 MB

     Estimated total dynamical RAM >       1.87 GB

     Initial potential from superposition of free atoms

     starting charge      63.9998, renormalised to      64.0000


     %%%%%%%%%%%%%%%%%%%%%%%%%%%%%%%%%%%%%%%%%%%%%%%%%%%%%%%%%%%%%%%%%%%%%%%%
     %                                                                      %
     % You are using vdW-DF, which was implemented by the Thonhauser group. %
     % Please cite the following two papers that made this development      %
     % possible and the two reviews that describe the various versions:     %
     %                                                                      %
     %   T. Thonhauser et al., PRL 115, 136402 (2015).                      %
     %   T. Thonhauser et al., PRB 76, 125112 (2007).                       %
     %   K. Berland et al., Rep. Prog. Phys. 78, 066501 (2015).             %
     %   D.C. Langreth et al., J. Phys.: Condens. Matter 21, 084203 (2009). %
     %                                                                      %
     % If you are calculating stress with vdW-DF, please also cite:         %
     %                                                                      %
     %   R. Sabatini et al., J. Phys.: Condens. Matter 24, 424209 (2012).   %
     %                                                                      %
     %%%%%%%%%%%%%%%%%%%%%%%%%%%%%%%%%%%%%%%%%%%%%%%%%%%%%%%%%%%%%%%%%%%%%%%%

     %%%%%%%%%%%%%%%%%%%%%%%%%%%%%%%%%%%%%%%%%%%%%%%%%%%%%%%%%%%%%%%%%%%%%%%%
     %                                                                      %
     %  vdW-DF NEWS:                                                        %
     %                                                                      %
     %  * vdW-DF3 is now available. DOI: 10.1021/acs.jctc.0c00471           %
     %    use with input_dft = 'vdW-DF3-opt1' or 'vdW-DF3-opt2'             %
     %                                                                      %
     %  * Unscreened and range-separated hybrid vdW-DF-cx functionals       %
     %    DOI: 10.1063/1.4986522 and 10.1088/1361-648X/ac2ad2               %
     %    use with input_dft = 'vdW-DF-cx0'    and 'vdW-DF-ahcx'            %
     %  * Unscreened and range-separated hybrid vdW-DF2-b86r functionals    %
     %    DOI: 10.1063/1.4986522 and DOI: 10.1103/PhysRevX.12.041003        %
     %    use with input_dft = 'vdW-DF2-br0' and 'vdW-DF2-ahbr'             %
     %                                                                      %
     %%%%%%%%%%%%%%%%%%%%%%%%%%%%%%%%%%%%%%%%%%%%%%%%%%%%%%%%%%%%%%%%%%%%%%%%


     Starting wfcs are   48 randomized atomic wfcs

     total cpu time spent up to now is        3.2 secs

     per-process dynamical memory:    22.4 Mb

     Self-consistent Calculation

     iteration #  1     ecut=    90.00 Ry     beta= 0.70
     Davidson diagonalization with overlap
     ethr =  1.00E-02,  avg # of iterations =  2.0

     total cpu time spent up to now is        5.4 secs

     total energy              =    -277.23434770 Ry
     estimated scf accuracy    <       2.95578691 Ry

     iteration #  2     ecut=    90.00 Ry     beta= 0.70
     Davidson diagonalization with overlap
     ethr =  4.62E-03,  avg # of iterations =  3.0

     total cpu time spent up to now is        8.3 secs

     total energy              =    -278.20258957 Ry
     estimated scf accuracy    <       2.56917438 Ry

     iteration #  3     ecut=    90.00 Ry     beta= 0.70
     Davidson diagonalization with overlap
     ethr =  4.01E-03,  avg # of iterations =  2.0

     total cpu time spent up to now is       10.4 secs

     total energy              =    -278.50365781 Ry
     estimated scf accuracy    <       0.13519805 Ry

     iteration #  4     ecut=    90.00 Ry     beta= 0.70
     Davidson diagonalization with overlap
     ethr =  2.11E-04,  avg # of iterations =  4.0

     total cpu time spent up to now is       13.7 secs

     total energy              =    -278.60912582 Ry
     estimated scf accuracy    <       0.14520798 Ry

     iteration #  5     ecut=    90.00 Ry     beta= 0.70
     Davidson diagonalization with overlap
     ethr =  2.11E-04,  avg # of iterations =  1.1

     total cpu time spent up to now is       15.4 secs

     total energy              =    -278.60728003 Ry
     estimated scf accuracy    <       0.02878109 Ry

     iteration #  6     ecut=    90.00 Ry     beta= 0.70
     Davidson diagonalization with overlap
     ethr =  4.50E-05,  avg # of iterations =  2.0

     total cpu time spent up to now is       17.6 secs

     total energy              =    -278.61254223 Ry
     estimated scf accuracy    <       0.00115779 Ry

     iteration #  7     ecut=    90.00 Ry     beta= 0.70
     Davidson diagonalization with overlap
     ethr =  1.81E-06,  avg # of iterations =  2.1

     total cpu time spent up to now is       19.6 secs

     total energy              =    -278.61267795 Ry
     estimated scf accuracy    <       0.00025150 Ry

     iteration #  8     ecut=    90.00 Ry     beta= 0.70
     Davidson diagonalization with overlap
     ethr =  3.93E-07,  avg # of iterations =  2.0

     total cpu time spent up to now is       21.5 secs

     total energy              =    -278.61267982 Ry
     estimated scf accuracy    <       0.00007940 Ry

     iteration #  9     ecut=    90.00 Ry     beta= 0.70
     Davidson diagonalization with overlap
     ethr =  1.24E-07,  avg # of iterations =  2.1

     total cpu time spent up to now is       23.7 secs

     total energy              =    -278.61269455 Ry
     estimated scf accuracy    <       0.00000851 Ry

     iteration # 10     ecut=    90.00 Ry     beta= 0.70
     Davidson diagonalization with overlap
     ethr =  1.33E-08,  avg # of iterations =  2.8

     total cpu time spent up to now is       26.0 secs

     total energy              =    -278.61269378 Ry
     estimated scf accuracy    <       0.00000566 Ry

     iteration # 11     ecut=    90.00 Ry     beta= 0.70
     Davidson diagonalization with overlap
     ethr =  8.84E-09,  avg # of iterations =  2.0

     total cpu time spent up to now is       28.2 secs

     total energy              =    -278.61269434 Ry
     estimated scf accuracy    <       0.00000201 Ry

     iteration # 12     ecut=    90.00 Ry     beta= 0.70
     Davidson diagonalization with overlap
     ethr =  3.14E-09,  avg # of iterations =  1.0

     total cpu time spent up to now is       29.9 secs

     total energy              =    -278.61269406 Ry
     estimated scf accuracy    <       0.00000074 Ry

     iteration # 13     ecut=    90.00 Ry     beta= 0.70
     Davidson diagonalization with overlap
     ethr =  1.16E-09,  avg # of iterations =  2.0

     total cpu time spent up to now is       32.1 secs

     End of self-consistent calculation

     Number of k-points >= 100: set verbosity='high' to print the bands.

     highest occupied level (ev):    -1.6736

!    total energy              =    -278.61269417 Ry
     estimated scf accuracy    <       0.00000003 Ry

     The total energy is the sum of the following terms:
     one-electron contribution =    -142.11302950 Ry
     hartree contribution      =      96.34542519 Ry
     xc contribution           =     -69.77130395 Ry
     ewald contribution        =    -163.07378591 Ry

     convergence has been achieved in  13 iterations

     Forces acting on atoms (cartesian axes, Ry/au):

     atom    1 type  2   force =     0.00000000    0.00000008    0.08375962
     atom    2 type  2   force =     0.00000000   -0.00000008   -0.08375962
     atom    3 type  2   force =     0.00000000    0.00000000    0.08370269
     atom    4 type  2   force =     0.00000000   -0.00000000   -0.08370269
     atom    5 type  2   force =     0.00000000   -0.00000016    0.08375847
     atom    6 type  2   force =     0.00000000    0.00000016   -0.08375847
     atom    7 type  2   force =     0.00000000    0.00000003    0.08376642
     atom    8 type  2   force =     0.00000000   -0.00000003   -0.08376642
     atom    9 type  1   force =     0.00000000   -0.06263671   -0.04230036
     atom   10 type  1   force =     0.00000000    0.06263671    0.04230036
     atom   11 type  1   force =     0.00000000    0.06263434   -0.04229911
     atom   12 type  1   force =     0.00000000   -0.06263434    0.04229911
     atom   13 type  1   force =     0.06263645    0.00000002   -0.04230127
     atom   14 type  1   force =    -0.06263645   -0.00000002    0.04230127
     atom   15 type  1   force =    -0.06263468    0.00000003   -0.04230527
     atom   16 type  1   force =     0.06263468   -0.00000003    0.04230527
     atom   17 type  1   force =    -0.06263468   -0.00000003    0.04230527
     atom   18 type  1   force =     0.06263468    0.00000003   -0.04230527
     atom   19 type  1   force =     0.06263645   -0.00000002    0.04230127
     atom   20 type  1   force =    -0.06263645    0.00000002   -0.04230127
     atom   21 type  1   force =     0.00000000   -0.06263434   -0.04229915
     atom   22 type  1   force =     0.00000000    0.06263434    0.04229915
     atom   23 type  1   force =     0.00000000    0.06263671   -0.04230032
     atom   24 type  1   force =     0.00000000   -0.06263671    0.04230032

     Total force =     0.384071     Total SCF correction =     0.000117


     Computing stress (Cartesian axis) and pressure

          total   stress  (Ry/bohr**3)                   (kbar)     P=     -117.70
  -0.00078798   0.00000000   0.00000000         -115.92        0.00        0.00
   0.00000000  -0.00078800  -0.00000000            0.00     -115.92       -0.00
   0.00000000  -0.00000000  -0.00082435            0.00       -0.00     -121.27


     Writing all to output data dir ./iceVIII/iceVIII.save/ :
     XML data file, charge density, pseudopotentials, collected wavefunctions

     init_run     :      2.93s CPU      3.03s WALL (       1 calls)
     electrons    :     28.22s CPU     28.88s WALL (       1 calls)
     forces       :      0.15s CPU      0.16s WALL (       1 calls)
     stress       :      2.02s CPU      2.04s WALL (       1 calls)

     Called by init_run:
     wfcinit      :      0.98s CPU      1.01s WALL (       1 calls)
     potinit      :      1.56s CPU      1.60s WALL (       1 calls)
     hinit0       :      0.33s CPU      0.34s WALL (       1 calls)

     Called by electrons:
     c_bands      :     24.25s CPU     24.74s WALL (      13 calls)
     sum_band     :      3.31s CPU      3.38s WALL (      13 calls)
     v_of_rho     :      2.14s CPU      2.24s WALL (      14 calls)
     newd         :      0.02s CPU      0.03s WALL (      14 calls)
     mix_rho      :      0.02s CPU      0.03s WALL (      13 calls)
     vdW_kernel   :      1.50s CPU      1.52s WALL (       1 calls)

     Called by c_bands:
     init_us_2    :      0.39s CPU      0.40s WALL (    1044 calls)
     cegterg      :     23.34s CPU     23.65s WALL (     468 calls)

     Called by *egterg:
     cdiaghg      :      2.45s CPU      2.47s WALL (    1497 calls)
     h_psi        :     18.19s CPU     18.46s WALL (    1533 calls)
     s_psi        :      0.72s CPU      0.73s WALL (    1533 calls)
     g_psi        :      0.06s CPU      0.06s WALL (    1029 calls)

     Called by h_psi:
     h_psi:calbec :      1.05s CPU      1.07s WALL (    1533 calls)
     vloc_psi     :     16.24s CPU     16.48s WALL (    1533 calls)
     add_vuspsi   :      0.77s CPU      0.79s WALL (    1533 calls)

     General routines
     calbec       :      1.47s CPU      1.49s WALL (    2181 calls)
     fft          :      0.65s CPU      0.66s WALL (     906 calls)
     ffts         :      0.00s CPU      0.00s WALL (      13 calls)
     fftw         :     17.31s CPU     17.57s WALL (  100348 calls)

     Parallel routines

     PWSCF        :     34.20s CPU     35.92s WALL


   This run was terminated on:  16:21:38  26Mar2026            

=------------------------------------------------------------------------------=
   JOB DONE.
=------------------------------------------------------------------------------=
