
     Program PWSCF v.7.3.1 starts on  1Apr2026 at 15:55: 4 

     This program is part of the open-source Quantum ESPRESSO suite
     for quantum simulation of materials; please cite
         "P. Giannozzi et al., J. Phys.:Condens. Matter 21 395502 (2009);
         "P. Giannozzi et al., J. Phys.:Condens. Matter 29 465901 (2017);
         "P. Giannozzi et al., J. Chem. Phys. 152 154105 (2020);
          URL http://www.quantum-espresso.org", 
     in publications or presentations arising from this work. More details at
     http://www.quantum-espresso.org/quote

     Parallel version (MPI), running on   128 processors

     MPI processes distributed on     1 nodes
     241461 MiB available memory on the printing compute node when the environment starts

     Waiting for input...
     Reading input from standard input

     Current dimensions of program PWSCF are:
     Max number of different atomic species (ntypx) = 10
     Max number of k-points (npk) =  40000
     Max angular momentum in pseudopotentials (lmaxx) =  4

     IMPORTANT: XC functional enforced from input :
     Exchange-correlation= VDW-DF2
                           (   1   4  13   0   2   0   0)
     Any further DFT definition will be discarded
     Please, verify this is what you really want

     Found identity + ( -0.5000 -0.5000  0.5000) symmetry
     This is a supercell, fractional translations are disabled

     K-points division:     npool     =       4
     R & G space division:  proc/nbgrp/npool/nimage =      32
     Subspace diagonalization in iterative solution of the eigenvalue problem:
     a serial algorithm will be used


     Parallelization info
     --------------------
     sticks:   dense  smooth     PW     G-vecs:    dense   smooth      PW
     Min          80      80     21                 4400     4400     631
     Max          81      81     22                 4407     4407     640
     Sum        2561    2561    697               140883   140883   20315

     Using Slab Decomposition



     bravais-lattice index     =            6
     lattice parameter (alat)  =       9.4619  a.u.
     unit-cell volume          =    1221.6715 (a.u.)^3
     number of atoms/cell      =           24
     number of atomic types    =            2
     number of electrons       =        64.00
     number of Kohn-Sham states=           32
     kinetic-energy cutoff     =      90.0000  Ry
     charge density cutoff     =     360.0000  Ry
     scf convergence threshold =      1.0E-07
     mixing beta               =       0.7000
     number of iterations used =            8  plain     mixing
     energy convergence thresh.=      1.0E-04
     force convergence thresh. =      1.0E-03
     Exchange-correlation= VDW-DF2
                           (   1   4  13   0   2   0   0)
     nstep                     =           50


     celldm(1)=   9.461862  celldm(2)=   0.000000  celldm(3)=   1.442197
     celldm(4)=   0.000000  celldm(5)=   0.000000  celldm(6)=   0.000000

     crystal axes: (cart. coord. in units of alat)
               a(1) = (   1.000000   0.000000   0.000000 )  
               a(2) = (   0.000000   1.000000   0.000000 )  
               a(3) = (   0.000000   0.000000   1.442197 )  

     reciprocal axes: (cart. coord. in units 2 pi/alat)
               b(1) = (  1.000000  0.000000  0.000000 )  
               b(2) = (  0.000000  1.000000  0.000000 )  
               b(3) = (  0.000000  0.000000  0.693386 )  


     PseudoPot. # 1 for H  read from file:
     ./H.pbe-van_ak.UPF
     MD5 check sum: 077eb6d537518a38cb46c6de387227b7
     Pseudo is Ultrasoft, Zval =  1.0
     Generated by new atomic code, or converted to UPF format
     Using radial grid of  615 points,  1 beta functions with: 
                l(1) =   0
     Q(r) pseudized with  8 coefficients,  rinner =    0.800

     PseudoPot. # 2 for O  read from file:
     ./O.pbe-van_ak.UPF
     MD5 check sum: 78c19812648e8988a0fe644b0f25305e
     Pseudo is Ultrasoft, Zval =  6.0
     Generated by new atomic code, or converted to UPF format
     Using radial grid of  737 points,  4 beta functions with: 
                l(1) =   0
                l(2) =   0
                l(3) =   1
                l(4) =   1
     Q(r) pseudized with  8 coefficients,  rinner =    0.800   0.800   0.800


     atomic species   valence    mass     pseudopotential
     H                 1.00     1.00800     H ( 1.00)
     O                 6.00    16.00000     O ( 1.00)

      4 Sym. Ops., with inversion, found



   Cartesian axes

     site n.     atom                  positions (alat units)
         1        O      tau(   1) = (   0.0000000   0.2500000   0.8781106  )
         2        O      tau(   2) = (   0.0000000   0.7500000   0.5640866  )
         3        O      tau(   3) = (   0.5000000   0.7500000   0.1570120  )
         4        O      tau(   4) = (   0.5000000   0.2500000   1.2851851  )
         5        O      tau(   5) = (   0.0000000   0.7500000   1.2386599  )
         6        O      tau(   6) = (   0.0000000   0.2500000   0.2035373  )
         7        O      tau(   7) = (   0.5000000   0.2500000   0.5175613  )
         8        O      tau(   8) = (   0.5000000   0.7500000   0.9246358  )
         9        H      tau(   9) = (   0.0000000   0.4142500   1.0027885  )
        10        H      tau(  10) = (   0.0000000   0.5857500   0.4394086  )
        11        H      tau(  11) = (   0.5000000   0.5857500   0.2816900  )
        12        H      tau(  12) = (   0.5000000   0.4142500   1.1605072  )
        13        H      tau(  13) = (   0.8357500   0.7500000   1.3633378  )
        14        H      tau(  14) = (   0.1642500   0.2500000   0.0788593  )
        15        H      tau(  15) = (   0.6642500   0.2500000   0.6422392  )
        16        H      tau(  16) = (   0.3357500   0.7500000   0.7999579  )
        17        H      tau(  17) = (   0.6642500   0.7500000   0.7999579  )
        18        H      tau(  18) = (   0.3357500   0.2500000   0.6422392  )
        19        H      tau(  19) = (   0.8357500   0.2500000   0.0788593  )
        20        H      tau(  20) = (   0.1642500   0.7500000   1.3633378  )
        21        H      tau(  21) = (   0.5000000   0.9142500   0.2816900  )
        22        H      tau(  22) = (   0.5000000   0.0857500   1.1605072  )
        23        H      tau(  23) = (   0.0000000   0.0857500   1.0027885  )
        24        H      tau(  24) = (   0.0000000   0.9142500   0.4394086  )

     number of k points=   144

     Number of k-points >= 100: set verbosity='high' to print them.

     Dense  grid:   140883 G-vectors     FFT dimensions: (  60,  60,  90)

     Estimated max dynamical RAM per process >      16.02 MB

     Estimated total dynamical RAM >       1.90 GB

     Initial potential from superposition of free atoms

     starting charge      63.9998, renormalised to      64.0000


     %%%%%%%%%%%%%%%%%%%%%%%%%%%%%%%%%%%%%%%%%%%%%%%%%%%%%%%%%%%%%%%%%%%%%%%%
     %                                                                      %
     % You are using vdW-DF, which was implemented by the Thonhauser group. %
     % Please cite the following two papers that made this development      %
     % possible and the two reviews that describe the various versions:     %
     %                                                                      %
     %   T. Thonhauser et al., PRL 115, 136402 (2015).                      %
     %   T. Thonhauser et al., PRB 76, 125112 (2007).                       %
     %   K. Berland et al., Rep. Prog. Phys. 78, 066501 (2015).             %
     %   D.C. Langreth et al., J. Phys.: Condens. Matter 21, 084203 (2009). %
     %                                                                      %
     % If you are calculating stress with vdW-DF, please also cite:         %
     %                                                                      %
     %   R. Sabatini et al., J. Phys.: Condens. Matter 24, 424209 (2012).   %
     %                                                                      %
     %%%%%%%%%%%%%%%%%%%%%%%%%%%%%%%%%%%%%%%%%%%%%%%%%%%%%%%%%%%%%%%%%%%%%%%%

     %%%%%%%%%%%%%%%%%%%%%%%%%%%%%%%%%%%%%%%%%%%%%%%%%%%%%%%%%%%%%%%%%%%%%%%%
     %                                                                      %
     %  vdW-DF NEWS:                                                        %
     %                                                                      %
     %  * vdW-DF3 is now available. DOI: 10.1021/acs.jctc.0c00471           %
     %    use with input_dft = 'vdW-DF3-opt1' or 'vdW-DF3-opt2'             %
     %                                                                      %
     %  * Unscreened and range-separated hybrid vdW-DF-cx functionals       %
     %    DOI: 10.1063/1.4986522 and 10.1088/1361-648X/ac2ad2               %
     %    use with input_dft = 'vdW-DF-cx0'    and 'vdW-DF-ahcx'            %
     %  * Unscreened and range-separated hybrid vdW-DF2-b86r functionals    %
     %    DOI: 10.1063/1.4986522 and DOI: 10.1103/PhysRevX.12.041003        %
     %    use with input_dft = 'vdW-DF2-br0' and 'vdW-DF2-ahbr'             %
     %                                                                      %
     %%%%%%%%%%%%%%%%%%%%%%%%%%%%%%%%%%%%%%%%%%%%%%%%%%%%%%%%%%%%%%%%%%%%%%%%


     Starting wfcs are   48 randomized atomic wfcs

     total cpu time spent up to now is        3.3 secs

     per-process dynamical memory:    22.3 Mb

     Self-consistent Calculation

     iteration #  1     ecut=    90.00 Ry     beta= 0.70
     Davidson diagonalization with overlap
     ethr =  1.00E-02,  avg # of iterations =  2.0

     total cpu time spent up to now is        5.5 secs

     total energy              =    -277.22466443 Ry
     estimated scf accuracy    <       3.05518609 Ry

     iteration #  2     ecut=    90.00 Ry     beta= 0.70
     Davidson diagonalization with overlap
     ethr =  4.77E-03,  avg # of iterations =  3.0

     total cpu time spent up to now is        8.4 secs

     total energy              =    -278.22246212 Ry
     estimated scf accuracy    <       2.61607673 Ry

     iteration #  3     ecut=    90.00 Ry     beta= 0.70
     Davidson diagonalization with overlap
     ethr =  4.09E-03,  avg # of iterations =  2.0

     total cpu time spent up to now is       10.5 secs

     total energy              =    -278.53421088 Ry
     estimated scf accuracy    <       0.13368985 Ry

     iteration #  4     ecut=    90.00 Ry     beta= 0.70
     Davidson diagonalization with overlap
     ethr =  2.09E-04,  avg # of iterations =  4.0

     total cpu time spent up to now is       13.8 secs

     total energy              =    -278.63977863 Ry
     estimated scf accuracy    <       0.15114438 Ry

     iteration #  5     ecut=    90.00 Ry     beta= 0.70
     Davidson diagonalization with overlap
     ethr =  2.09E-04,  avg # of iterations =  1.1

     total cpu time spent up to now is       15.4 secs

     total energy              =    -278.63802847 Ry
     estimated scf accuracy    <       0.02960891 Ry

     iteration #  6     ecut=    90.00 Ry     beta= 0.70
     Davidson diagonalization with overlap
     ethr =  4.63E-05,  avg # of iterations =  2.0

     total cpu time spent up to now is       17.7 secs

     total energy              =    -278.64332341 Ry
     estimated scf accuracy    <       0.00141683 Ry

     iteration #  7     ecut=    90.00 Ry     beta= 0.70
     Davidson diagonalization with overlap
     ethr =  2.21E-06,  avg # of iterations =  2.0

     total cpu time spent up to now is       19.7 secs

     total energy              =    -278.64344505 Ry
     estimated scf accuracy    <       0.00035092 Ry

     iteration #  8     ecut=    90.00 Ry     beta= 0.70
     Davidson diagonalization with overlap
     ethr =  5.48E-07,  avg # of iterations =  2.0

     total cpu time spent up to now is       21.5 secs

     total energy              =    -278.64345345 Ry
     estimated scf accuracy    <       0.00009555 Ry

     iteration #  9     ecut=    90.00 Ry     beta= 0.70
     Davidson diagonalization with overlap
     ethr =  1.49E-07,  avg # of iterations =  2.0

     total cpu time spent up to now is       23.6 secs

     total energy              =    -278.64346538 Ry
     estimated scf accuracy    <       0.00001289 Ry

     iteration # 10     ecut=    90.00 Ry     beta= 0.70
     Davidson diagonalization with overlap
     ethr =  2.01E-08,  avg # of iterations =  2.1

     total cpu time spent up to now is       25.6 secs

     total energy              =    -278.64346687 Ry
     estimated scf accuracy    <       0.00000880 Ry

     iteration # 11     ecut=    90.00 Ry     beta= 0.70
     Davidson diagonalization with overlap
     ethr =  1.38E-08,  avg # of iterations =  1.0

     total cpu time spent up to now is       27.2 secs

     total energy              =    -278.64346595 Ry
     estimated scf accuracy    <       0.00000874 Ry

     iteration # 12     ecut=    90.00 Ry     beta= 0.70
     Davidson diagonalization with overlap
     ethr =  1.37E-08,  avg # of iterations =  1.0

     total cpu time spent up to now is       28.8 secs

     total energy              =    -278.64346454 Ry
     estimated scf accuracy    <       0.00000525 Ry

     iteration # 13     ecut=    90.00 Ry     beta= 0.70
     Davidson diagonalization with overlap
     ethr =  8.20E-09,  avg # of iterations =  1.8

     total cpu time spent up to now is       30.6 secs

     total energy              =    -278.64346458 Ry
     estimated scf accuracy    <       0.00000103 Ry

     iteration # 14     ecut=    90.00 Ry     beta= 0.70
     Davidson diagonalization with overlap
     ethr =  1.61E-09,  avg # of iterations =  2.3

     total cpu time spent up to now is       32.7 secs

     total energy              =    -278.64346461 Ry
     estimated scf accuracy    <       0.00000019 Ry

     iteration # 15     ecut=    90.00 Ry     beta= 0.70
     Davidson diagonalization with overlap
     ethr =  3.00E-10,  avg # of iterations =  4.3

     total cpu time spent up to now is       36.0 secs

     total energy              =    -278.64346464 Ry
     estimated scf accuracy    <       0.00000050 Ry

     iteration # 16     ecut=    90.00 Ry     beta= 0.70
     Davidson diagonalization with overlap
     ethr =  3.00E-10,  avg # of iterations =  3.0

     total cpu time spent up to now is       38.8 secs

     End of self-consistent calculation

     Number of k-points >= 100: set verbosity='high' to print the bands.

     highest occupied level (ev):    -1.8109

!    total energy              =    -278.64346472 Ry
     estimated scf accuracy    <          3.3E-09 Ry

     The total energy is the sum of the following terms:
     one-electron contribution =    -146.11506979 Ry
     hartree contribution      =      97.99492835 Ry
     xc contribution           =     -69.92417787 Ry
     ewald contribution        =    -160.59914541 Ry

     convergence has been achieved in  16 iterations

     Forces acting on atoms (cartesian axes, Ry/au):

     atom    1 type  2   force =     0.00000000    0.00000019    0.06503180
     atom    2 type  2   force =     0.00000000   -0.00000019   -0.06503180
     atom    3 type  2   force =     0.00000000    0.00000006    0.06503214
     atom    4 type  2   force =     0.00000000   -0.00000006   -0.06503214
     atom    5 type  2   force =     0.00000000    0.00000002    0.06568907
     atom    6 type  2   force =     0.00000000   -0.00000002   -0.06568907
     atom    7 type  2   force =     0.00000000    0.00000001    0.06568671
     atom    8 type  2   force =     0.00000000   -0.00000001   -0.06568671
     atom    9 type  1   force =     0.00000000   -0.04999284   -0.03333185
     atom   10 type  1   force =     0.00000000    0.04999284    0.03333185
     atom   11 type  1   force =     0.00000000    0.04999281   -0.03333180
     atom   12 type  1   force =     0.00000000   -0.04999281    0.03333180
     atom   13 type  1   force =     0.04999300   -0.00000000   -0.03330666
     atom   14 type  1   force =    -0.04999300    0.00000000    0.03330666
     atom   15 type  1   force =    -0.04999285    0.00000000   -0.03330671
     atom   16 type  1   force =     0.04999285   -0.00000000    0.03330671
     atom   17 type  1   force =    -0.04999285   -0.00000000    0.03330671
     atom   18 type  1   force =     0.04999285    0.00000000   -0.03330671
     atom   19 type  1   force =     0.04999300    0.00000000    0.03330666
     atom   20 type  1   force =    -0.04999300   -0.00000000   -0.03330666
     atom   21 type  1   force =     0.00000000   -0.04999281   -0.03333181
     atom   22 type  1   force =     0.00000000    0.04999281    0.03333181
     atom   23 type  1   force =     0.00000000    0.04999286   -0.03333184
     atom   24 type  1   force =     0.00000000   -0.04999286    0.03333184

     Total force =     0.303196     Total SCF correction =     0.000029


     Computing stress (Cartesian axis) and pressure

          total   stress  (Ry/bohr**3)                   (kbar)     P=      -95.43
  -0.00064425   0.00000000   0.00000000          -94.77        0.00        0.00
   0.00000000  -0.00064455   0.00000000            0.00      -94.82        0.00
   0.00000000   0.00000000  -0.00065731            0.00        0.00      -96.69


     BFGS Geometry Optimization
     Energy error            =      0.0E+00 Ry
     Gradient error          =      6.6E-02 Ry/Bohr

     number of scf cycles    =   1
     number of bfgs steps    =   0

     energy             new  =    -278.6434647201 Ry

     new trust radius        =       0.0656890684 bohr
     new conv_thr            =       0.0000001000 Ry


ATOMIC_POSITIONS (crystal)
O                0.0000000000        0.2500000200        0.6136357053
O                0.0000000000        0.7499999800        0.3863643237
O                0.5000000000        0.7500000064        0.1136357011
O                0.5000000000        0.2499999936        0.8863642699
O                0.0000000000        0.7500000019        0.8636838714
O                0.0000000000        0.2499999981        0.1363161576
O                0.5000000000        0.2500000009        0.3636836693
O                0.5000000000        0.7499999991        0.6363163017
H                0.0000000000        0.4089663704        0.6928773774
H                0.0000000000        0.5910335996        0.3071226226
H                0.5000000000        0.5910335967        0.1928773807
H                0.5000000000        0.4089663733        0.8071226193
H                0.8410336161        0.7499999996        0.9428792229
H                0.1589663539        0.2500000004        0.0571207771
H                0.6589663992        0.2500000004        0.4428792192
H                0.3410336308        0.7499999996        0.5571207808
H                0.6589663992        0.7499999996        0.5571207808
H                0.3410336308        0.2500000004        0.4428792192
H                0.8410336161        0.2500000004        0.0571207771
H                0.1589663539        0.7499999996        0.9428792229
H                0.5000000000        0.9089664036        0.1928773801
H                0.5000000000        0.0910336264        0.8071226199
H                0.0000000000        0.0910336318        0.6928773777
H                0.0000000000        0.9089663982        0.3071226223



     Writing config-only to output data dir ./iceVIII/iceVIII.save/ :
     XML data file
     NEW-OLD atomic charge density approx. for the potential

     total cpu time spent up to now is       41.2 secs

     per-process dynamical memory:    22.8 Mb

     Self-consistent Calculation

     iteration #  1     ecut=    90.00 Ry     beta= 0.70
     Davidson diagonalization with overlap
     ethr =  1.00E-06,  avg # of iterations =  8.2

     total cpu time spent up to now is       46.7 secs

     total energy              =    -278.66686314 Ry
     estimated scf accuracy    <       0.03690169 Ry

     iteration #  2     ecut=    90.00 Ry     beta= 0.70
     Davidson diagonalization with overlap
     ethr =  5.77E-05,  avg # of iterations =  3.0

     total cpu time spent up to now is       49.6 secs

     total energy              =    -278.67763399 Ry
     estimated scf accuracy    <       0.02270437 Ry

     iteration #  3     ecut=    90.00 Ry     beta= 0.70
     Davidson diagonalization with overlap
     ethr =  3.55E-05,  avg # of iterations =  2.0

     total cpu time spent up to now is       51.8 secs

     total energy              =    -278.68121555 Ry
     estimated scf accuracy    <       0.00061805 Ry

     iteration #  4     ecut=    90.00 Ry     beta= 0.70
     Davidson diagonalization with overlap
     ethr =  9.66E-07,  avg # of iterations =  4.0

     total cpu time spent up to now is       55.2 secs

     total energy              =    -278.68172616 Ry
     estimated scf accuracy    <       0.00079564 Ry

     iteration #  5     ecut=    90.00 Ry     beta= 0.70
     Davidson diagonalization with overlap
     ethr =  9.66E-07,  avg # of iterations =  2.0

     total cpu time spent up to now is       57.6 secs

     total energy              =    -278.68182966 Ry
     estimated scf accuracy    <       0.00002241 Ry

     iteration #  6     ecut=    90.00 Ry     beta= 0.70
     Davidson diagonalization with overlap
     ethr =  3.50E-08,  avg # of iterations =  4.0

     total cpu time spent up to now is       60.9 secs

     total energy              =    -278.68184624 Ry
     estimated scf accuracy    <       0.00002962 Ry

     iteration #  7     ecut=    90.00 Ry     beta= 0.70
     Davidson diagonalization with overlap
     ethr =  3.50E-08,  avg # of iterations =  2.0

     total cpu time spent up to now is       63.0 secs

     total energy              =    -278.68184811 Ry
     estimated scf accuracy    <       0.00000263 Ry

     iteration #  8     ecut=    90.00 Ry     beta= 0.70
     Davidson diagonalization with overlap
     ethr =  4.11E-09,  avg # of iterations =  3.0

     total cpu time spent up to now is       65.7 secs

     total energy              =    -278.68184933 Ry
     estimated scf accuracy    <       0.00000011 Ry

     iteration #  9     ecut=    90.00 Ry     beta= 0.70
     Davidson diagonalization with overlap
     ethr =  1.73E-10,  avg # of iterations =  2.9

     total cpu time spent up to now is       68.1 secs

     total energy              =    -278.68184929 Ry
     estimated scf accuracy    <       0.00000012 Ry

     iteration # 10     ecut=    90.00 Ry     beta= 0.70
     Davidson diagonalization with overlap
     ethr =  1.73E-10,  avg # of iterations =  2.0

     total cpu time spent up to now is       70.4 secs

     End of self-consistent calculation

     Number of k-points >= 100: set verbosity='high' to print the bands.

     highest occupied level (ev):    -1.8986

!    total energy              =    -278.68184931 Ry
     estimated scf accuracy    <          3.7E-09 Ry

     The total energy is the sum of the following terms:
     one-electron contribution =    -152.39438890 Ry
     hartree contribution      =     100.79794365 Ry
     xc contribution           =     -70.56514659 Ry
     ewald contribution        =    -156.52025746 Ry

     convergence has been achieved in  10 iterations

     Forces acting on atoms (cartesian axes, Ry/au):

     atom    1 type  2   force =    -0.00000000   -0.00000023   -0.02756170
     atom    2 type  2   force =    -0.00000000    0.00000023    0.02756170
     atom    3 type  2   force =     0.00000000   -0.00000008   -0.02756188
     atom    4 type  2   force =     0.00000000    0.00000008    0.02756188
     atom    5 type  2   force =     0.00000000    0.00000000   -0.02727118
     atom    6 type  2   force =     0.00000000   -0.00000000    0.02727118
     atom    7 type  2   force =     0.00000000   -0.00000000   -0.02726925
     atom    8 type  2   force =     0.00000000    0.00000000    0.02726925
     atom    9 type  1   force =     0.00000000    0.00219704    0.01190186
     atom   10 type  1   force =     0.00000000   -0.00219704   -0.01190186
     atom   11 type  1   force =     0.00000000   -0.00219697    0.01190184
     atom   12 type  1   force =     0.00000000    0.00219697   -0.01190184
     atom   13 type  1   force =    -0.00240935    0.00000000    0.01216950
     atom   14 type  1   force =     0.00240935   -0.00000000   -0.01216950
     atom   15 type  1   force =     0.00240847    0.00000000    0.01216858
     atom   16 type  1   force =    -0.00240847   -0.00000000   -0.01216858
     atom   17 type  1   force =     0.00240847   -0.00000000   -0.01216858
     atom   18 type  1   force =    -0.00240847    0.00000000    0.01216858
     atom   19 type  1   force =    -0.00240935   -0.00000000   -0.01216950
     atom   20 type  1   force =     0.00240935    0.00000000    0.01216950
     atom   21 type  1   force =     0.00000000    0.00219705    0.01190189
     atom   22 type  1   force =     0.00000000   -0.00219705   -0.01190189
     atom   23 type  1   force =     0.00000000   -0.00219682    0.01190170
     atom   24 type  1   force =     0.00000000    0.00219682   -0.01190170

     Total force =     0.091740     Total SCF correction =     0.000050


     Computing stress (Cartesian axis) and pressure

          total   stress  (Ry/bohr**3)                   (kbar)     P=       -4.38
  -0.00007342   0.00000000   0.00000000          -10.80        0.00        0.00
   0.00000000  -0.00007600   0.00000000            0.00      -11.18        0.00
   0.00000000   0.00000000   0.00006017            0.00        0.00        8.85

     Energy error            =      3.8E-02 Ry
     Gradient error          =      2.8E-02 Ry/Bohr

     number of scf cycles    =   2
     number of bfgs steps    =   1

     energy             old  =    -278.6434647201 Ry
     energy             new  =    -278.6818493096 Ry

     CASE: energy            _new < energy            _old

     new trust radius        =       0.0208190854 bohr
     new conv_thr            =       0.0000000276 Ry


ATOMIC_POSITIONS (crystal)
O               -0.0000000000        0.2500000006        0.6121100459
O               -0.0000000000        0.7499999994        0.3878899831
O                0.5000000000        0.7499999997        0.1121100318
O                0.5000000000        0.2500000003        0.8878899392
O                0.0000000000        0.7500000020        0.8621762685
O                0.0000000000        0.2499999980        0.1378237605
O                0.5000000000        0.2500000007        0.3621761763
O                0.5000000000        0.7499999993        0.6378237947
H                0.0000000000        0.4090467123        0.6935284754
H                0.0000000000        0.5909532577        0.3064715246
H                0.5000000000        0.5909532603        0.1935284776
H                0.5000000000        0.4090467097        0.8064715224
H                0.8409352624        0.7499999997        0.9435461021
H                0.1590647076        0.2500000003        0.0564538979
H                0.6590646786        0.2500000006        0.4435460444
H                0.3409353514        0.7499999994        0.5564539556
H                0.6590646786        0.7499999994        0.5564539556
H                0.3409353514        0.2500000006        0.4435460444
H                0.8409352624        0.2500000003        0.0564538979
H                0.1590647076        0.7499999997        0.9435461021
H                0.5000000000        0.9090467464        0.1935284802
H                0.5000000000        0.0909532836        0.8064715198
H                0.0000000000        0.0909533086        0.6935284667
H                0.0000000000        0.9090467214        0.3064715333



     Writing config-only to output data dir ./iceVIII/iceVIII.save/ :
     XML data file
     NEW-OLD atomic charge density approx. for the potential

     total cpu time spent up to now is       72.7 secs

     per-process dynamical memory:    22.5 Mb

     Self-consistent Calculation

     iteration #  1     ecut=    90.00 Ry     beta= 0.70
     Davidson diagonalization with overlap
     ethr =  1.00E-06,  avg # of iterations =  4.9

     total cpu time spent up to now is       76.5 secs

     total energy              =    -278.68461305 Ry
     estimated scf accuracy    <       0.00183231 Ry

     iteration #  2     ecut=    90.00 Ry     beta= 0.70
     Davidson diagonalization with overlap
     ethr =  2.86E-06,  avg # of iterations =  3.0

     total cpu time spent up to now is       79.3 secs

     total energy              =    -278.68514271 Ry
     estimated scf accuracy    <       0.00098811 Ry

     iteration #  3     ecut=    90.00 Ry     beta= 0.70
     Davidson diagonalization with overlap
     ethr =  1.54E-06,  avg # of iterations =  2.0

     total cpu time spent up to now is       81.5 secs

     total energy              =    -278.68530060 Ry
     estimated scf accuracy    <       0.00002518 Ry

     iteration #  4     ecut=    90.00 Ry     beta= 0.70
     Davidson diagonalization with overlap
     ethr =  3.93E-08,  avg # of iterations =  4.3

     total cpu time spent up to now is       84.8 secs

     total energy              =    -278.68532152 Ry
     estimated scf accuracy    <       0.00003397 Ry

     iteration #  5     ecut=    90.00 Ry     beta= 0.70
     Davidson diagonalization with overlap
     ethr =  3.93E-08,  avg # of iterations =  2.2

     total cpu time spent up to now is       87.2 secs

     total energy              =    -278.68532758 Ry
     estimated scf accuracy    <       0.00000028 Ry

     iteration #  6     ecut=    90.00 Ry     beta= 0.70
     Davidson diagonalization with overlap
     ethr =  4.43E-10,  avg # of iterations =  5.1

     total cpu time spent up to now is       91.2 secs

     total energy              =    -278.68532785 Ry
     estimated scf accuracy    <       0.00000162 Ry

     iteration #  7     ecut=    90.00 Ry     beta= 0.70
     Davidson diagonalization with overlap
     ethr =  4.43E-10,  avg # of iterations =  3.0

     total cpu time spent up to now is       94.0 secs

     total energy              =    -278.68532797 Ry
     estimated scf accuracy    <       0.00000010 Ry

     iteration #  8     ecut=    90.00 Ry     beta= 0.70
     Davidson diagonalization with overlap
     ethr =  1.60E-10,  avg # of iterations =  3.0

     total cpu time spent up to now is       96.5 secs

     End of self-consistent calculation

     Number of k-points >= 100: set verbosity='high' to print the bands.

     highest occupied level (ev):    -1.8879

!    total energy              =    -278.68532801 Ry
     estimated scf accuracy    <       0.00000002 Ry

     The total energy is the sum of the following terms:
     one-electron contribution =    -151.20094236 Ry
     hartree contribution      =     100.25647306 Ry
     xc contribution           =     -70.44170782 Ry
     ewald contribution        =    -157.29915089 Ry

     convergence has been achieved in   8 iterations

     Forces acting on atoms (cartesian axes, Ry/au):

     atom    1 type  2   force =    -0.00000000    0.00000015   -0.00427876
     atom    2 type  2   force =    -0.00000000   -0.00000015    0.00427876
     atom    3 type  2   force =     0.00000000    0.00000005   -0.00427877
     atom    4 type  2   force =     0.00000000   -0.00000005    0.00427877
     atom    5 type  2   force =     0.00000000   -0.00000000   -0.00399910
     atom    6 type  2   force =     0.00000000    0.00000000    0.00399910
     atom    7 type  2   force =     0.00000000   -0.00000000   -0.00399933
     atom    8 type  2   force =     0.00000000    0.00000000    0.00399933
     atom    9 type  1   force =     0.00000000   -0.00728366    0.00057279
     atom   10 type  1   force =     0.00000000    0.00728366   -0.00057279
     atom   11 type  1   force =     0.00000000    0.00728359    0.00057286
     atom   12 type  1   force =     0.00000000   -0.00728359   -0.00057286
     atom   13 type  1   force =     0.00719430    0.00000000    0.00078424
     atom   14 type  1   force =    -0.00719430   -0.00000000   -0.00078424
     atom   15 type  1   force =    -0.00719394   -0.00000000    0.00078439
     atom   16 type  1   force =     0.00719394    0.00000000   -0.00078439
     atom   17 type  1   force =    -0.00719394    0.00000000   -0.00078439
     atom   18 type  1   force =     0.00719394   -0.00000000    0.00078439
     atom   19 type  1   force =     0.00719430   -0.00000000   -0.00078424
     atom   20 type  1   force =    -0.00719430    0.00000000    0.00078424
     atom   21 type  1   force =     0.00000000   -0.00728364    0.00057282
     atom   22 type  1   force =     0.00000000    0.00728364   -0.00057282
     atom   23 type  1   force =     0.00000000    0.00728351    0.00057290
     atom   24 type  1   force =     0.00000000   -0.00728351   -0.00057290

     Total force =     0.031356     Total SCF correction =     0.000151


     Computing stress (Cartesian axis) and pressure

          total   stress  (Ry/bohr**3)                   (kbar)     P=      -22.45
  -0.00017849   0.00000000   0.00000000          -26.26        0.00        0.00
   0.00000000  -0.00017988  -0.00000000            0.00      -26.46       -0.00
   0.00000000  -0.00000000  -0.00009949            0.00       -0.00      -14.64

     Energy error            =      3.5E-03 Ry
     Gradient error          =      7.3E-03 Ry/Bohr

     number of scf cycles    =   3
     number of bfgs steps    =   2

     energy             old  =    -278.6818493096 Ry
     energy             new  =    -278.6853280133 Ry

     CASE: energy            _new < energy            _old

     new trust radius        =       0.0090411655 bohr
     new conv_thr            =       0.0000000073 Ry


ATOMIC_POSITIONS (crystal)
O               -0.0000000000        0.2500000144        0.6114729331
O               -0.0000000000        0.7499999856        0.3885270959
O                0.5000000000        0.7500000044        0.1114729162
O                0.5000000000        0.2499999956        0.8885270548
O                0.0000000000        0.7500000016        0.8615671402
O                0.0000000000        0.2499999984        0.1384328888
O                0.5000000000        0.2500000006        0.3615670521
O                0.5000000000        0.7499999994        0.6384329189
H                0.0000000000        0.4081203760        0.6936910198
H                0.0000000000        0.5918795940        0.3063089802
H                0.5000000000        0.5918795900        0.1936910276
H                0.5000000000        0.4081203800        0.8063089724
H                0.8418467658        0.7499999998        0.9437297732
H                0.1581532042        0.2500000002        0.0562702268
H                0.6581532002        0.2500000007        0.4437297150
H                0.3418468298        0.7499999993        0.5562702850
H                0.6581532002        0.7499999993        0.5562702850
H                0.3418468298        0.2500000007        0.4437297150
H                0.8418467658        0.2500000002        0.0562702268
H                0.1581532042        0.7499999998        0.9437297732
H                0.5000000000        0.9081204122        0.1936910277
H                0.5000000000        0.0918796178        0.8063089723
H                0.0000000000        0.0918796316        0.6936910181
H                0.0000000000        0.9081203984        0.3063089819



     Writing config-only to output data dir ./iceVIII/iceVIII.save/ :
     XML data file
     NEW-OLD atomic charge density approx. for the potential

     total cpu time spent up to now is       98.9 secs

     per-process dynamical memory:    22.7 Mb

     Self-consistent Calculation

     iteration #  1     ecut=    90.00 Ry     beta= 0.70
     Davidson diagonalization with overlap
     ethr =  1.00E-06,  avg # of iterations =  4.0

     total cpu time spent up to now is      102.2 secs

     total energy              =    -278.68631103 Ry
     estimated scf accuracy    <       0.00007936 Ry

     iteration #  2     ecut=    90.00 Ry     beta= 0.70
     Davidson diagonalization with overlap
     ethr =  1.24E-07,  avg # of iterations =  2.0

     total cpu time spent up to now is      104.4 secs

     total energy              =    -278.68632664 Ry
     estimated scf accuracy    <       0.00001047 Ry

     iteration #  3     ecut=    90.00 Ry     beta= 0.70
     Davidson diagonalization with overlap
     ethr =  1.64E-08,  avg # of iterations =  2.5

     total cpu time spent up to now is      107.0 secs

     total energy              =    -278.68632958 Ry
     estimated scf accuracy    <       0.00000193 Ry

     iteration #  4     ecut=    90.00 Ry     beta= 0.70
     Davidson diagonalization with overlap
     ethr =  3.02E-09,  avg # of iterations =  2.0

     total cpu time spent up to now is      108.8 secs

     total energy              =    -278.68632974 Ry
     estimated scf accuracy    <       0.00000011 Ry

     iteration #  5     ecut=    90.00 Ry     beta= 0.70
     Davidson diagonalization with overlap
     ethr =  1.69E-10,  avg # of iterations =  3.3

     total cpu time spent up to now is      111.7 secs

     total energy              =    -278.68632979 Ry
     estimated scf accuracy    <       0.00000008 Ry

     iteration #  6     ecut=    90.00 Ry     beta= 0.70
     Davidson diagonalization with overlap
     ethr =  1.23E-10,  avg # of iterations =  2.0

     total cpu time spent up to now is      113.8 secs

     End of self-consistent calculation

     Number of k-points >= 100: set verbosity='high' to print the bands.

     highest occupied level (ev):    -1.8952

!    total energy              =    -278.68632980 Ry
     estimated scf accuracy    <          5.8E-09 Ry

     The total energy is the sum of the following terms:
     one-electron contribution =    -151.27029141 Ry
     hartree contribution      =     100.28273431 Ry
     xc contribution           =     -70.44598397 Ry
     ewald contribution        =    -157.25278873 Ry

     convergence has been achieved in   6 iterations

     Forces acting on atoms (cartesian axes, Ry/au):

     atom    1 type  2   force =     0.00000000   -0.00000011   -0.00099378
     atom    2 type  2   force =     0.00000000    0.00000011    0.00099378
     atom    3 type  2   force =     0.00000000   -0.00000004   -0.00099377
     atom    4 type  2   force =     0.00000000    0.00000004    0.00099377
     atom    5 type  2   force =     0.00000000   -0.00000000   -0.00074097
     atom    6 type  2   force =     0.00000000    0.00000000    0.00074097
     atom    7 type  2   force =     0.00000000   -0.00000000   -0.00074112
     atom    8 type  2   force =     0.00000000    0.00000000    0.00074112
     atom    9 type  1   force =     0.00000000   -0.00477564   -0.00096221
     atom   10 type  1   force =     0.00000000    0.00477564    0.00096221
     atom   11 type  1   force =     0.00000000    0.00477574   -0.00096228
     atom   12 type  1   force =     0.00000000   -0.00477574    0.00096228
     atom   13 type  1   force =     0.00474866    0.00000000   -0.00076479
     atom   14 type  1   force =    -0.00474866   -0.00000000    0.00076479
     atom   15 type  1   force =    -0.00474845    0.00000000   -0.00076470
     atom   16 type  1   force =     0.00474845   -0.00000000    0.00076470
     atom   17 type  1   force =    -0.00474845   -0.00000000    0.00076470
     atom   18 type  1   force =     0.00474845    0.00000000   -0.00076470
     atom   19 type  1   force =     0.00474866   -0.00000000    0.00076479
     atom   20 type  1   force =    -0.00474866    0.00000000   -0.00076479
     atom   21 type  1   force =     0.00000000   -0.00477571   -0.00096225
     atom   22 type  1   force =     0.00000000    0.00477571    0.00096225
     atom   23 type  1   force =     0.00000000    0.00477574   -0.00096228
     atom   24 type  1   force =     0.00000000   -0.00477574    0.00096228

     Total force =     0.019521     Total SCF correction =     0.000084


     Computing stress (Cartesian axis) and pressure

          total   stress  (Ry/bohr**3)                   (kbar)     P=      -20.64
  -0.00015408   0.00000000   0.00000000          -22.67        0.00        0.00
   0.00000000  -0.00015493   0.00000000            0.00      -22.79        0.00
   0.00000000   0.00000000  -0.00011201            0.00        0.00      -16.48

     Energy error            =      1.0E-03 Ry
     Gradient error          =      4.8E-03 Ry/Bohr

     number of scf cycles    =   4
     number of bfgs steps    =   3

     energy             old  =    -278.6853280133 Ry
     energy             new  =    -278.6863297986 Ry

     CASE: energy            _new < energy            _old

     new trust radius        =       0.0099452820 bohr
     new conv_thr            =       0.0000000048 Ry


ATOMIC_POSITIONS (crystal)
O               -0.0000000000        0.2499999888        0.6109157663
O               -0.0000000000        0.7500000112        0.3890842627
O                0.5000000000        0.7499999958        0.1109157492
O                0.5000000000        0.2500000042        0.8890842218
O                0.0000000000        0.7500000016        0.8610520399
O                0.0000000000        0.2499999984        0.1389479891
O                0.5000000000        0.2500000002        0.3610519606
O                0.5000000000        0.7499999998        0.6389480104
H                0.0000000000        0.4070706570        0.6937279350
H                0.0000000000        0.5929293130        0.3062720650
H                0.5000000000        0.5929293300        0.1937279344
H                0.5000000000        0.4070706400        0.8062720656
H                0.8428849109        0.7500000001        0.9437994957
H                0.1571150591        0.2499999999        0.0562005043
H                0.6571150774        0.2500000011        0.4437994353
H                0.3428849526        0.7499999989        0.5562005647
H                0.6571150774        0.7499999989        0.5562005647
H                0.3428849526        0.2500000011        0.4437994353
H                0.8428849109        0.2499999999        0.0562005043
H                0.1571150591        0.7500000001        0.9437994957
H                0.5000000000        0.9070706802        0.1937279384
H                0.5000000000        0.0929293498        0.8062720616
H                0.0000000000        0.0929293748        0.6937279216
H                0.0000000000        0.9070706552        0.3062720784



     Writing config-only to output data dir ./iceVIII/iceVIII.save/ :
     XML data file
     NEW-OLD atomic charge density approx. for the potential

     total cpu time spent up to now is      116.1 secs

     per-process dynamical memory:    22.6 Mb

     Self-consistent Calculation

     iteration #  1     ecut=    90.00 Ry     beta= 0.70
     Davidson diagonalization with overlap
     ethr =  1.00E-06,  avg # of iterations =  4.0

     total cpu time spent up to now is      119.2 secs

     total energy              =    -278.68677281 Ry
     estimated scf accuracy    <       0.00006694 Ry

     iteration #  2     ecut=    90.00 Ry     beta= 0.70
     Davidson diagonalization with overlap
     ethr =  1.05E-07,  avg # of iterations =  2.0

     total cpu time spent up to now is      121.3 secs

     total energy              =    -278.68678485 Ry
     estimated scf accuracy    <       0.00000368 Ry

     iteration #  3     ecut=    90.00 Ry     beta= 0.70
     Davidson diagonalization with overlap
     ethr =  5.76E-09,  avg # of iterations =  3.6

     total cpu time spent up to now is      123.9 secs

     total energy              =    -278.68678588 Ry
     estimated scf accuracy    <       0.00000040 Ry

     iteration #  4     ecut=    90.00 Ry     beta= 0.70
     Davidson diagonalization with overlap
     ethr =  6.17E-10,  avg # of iterations =  3.1

     total cpu time spent up to now is      126.4 secs

     total energy              =    -278.68678599 Ry
     estimated scf accuracy    <       0.00000008 Ry

     iteration #  5     ecut=    90.00 Ry     beta= 0.70
     Davidson diagonalization with overlap
     ethr =  1.27E-10,  avg # of iterations =  2.5

     total cpu time spent up to now is      128.7 secs

     End of self-consistent calculation

     Number of k-points >= 100: set verbosity='high' to print the bands.

     highest occupied level (ev):    -1.9046

!    total energy              =    -278.68678600 Ry
     estimated scf accuracy    <          4.0E-09 Ry

     The total energy is the sum of the following terms:
     one-electron contribution =    -151.50953466 Ry
     hartree contribution      =     100.38285793 Ry
     xc contribution           =     -70.46652475 Ry
     ewald contribution        =    -157.09358452 Ry

     convergence has been achieved in   5 iterations

     Forces acting on atoms (cartesian axes, Ry/au):

     atom    1 type  2   force =     0.00000000    0.00000037   -0.00042431
     atom    2 type  2   force =     0.00000000   -0.00000037    0.00042431
     atom    3 type  2   force =    -0.00000000    0.00000012   -0.00042433
     atom    4 type  2   force =    -0.00000000   -0.00000012    0.00042433
     atom    5 type  2   force =     0.00000000   -0.00000001   -0.00024836
     atom    6 type  2   force =     0.00000000    0.00000001    0.00024836
     atom    7 type  2   force =    -0.00000000   -0.00000000   -0.00024851
     atom    8 type  2   force =    -0.00000000    0.00000000    0.00024851
     atom    9 type  1   force =     0.00000000   -0.00068897   -0.00110565
     atom   10 type  1   force =     0.00000000    0.00068897    0.00110565
     atom   11 type  1   force =     0.00000000    0.00068873   -0.00110547
     atom   12 type  1   force =     0.00000000   -0.00068873    0.00110547
     atom   13 type  1   force =     0.00069036   -0.00000000   -0.00090118
     atom   14 type  1   force =    -0.00069036    0.00000000    0.00090118
     atom   15 type  1   force =    -0.00069024   -0.00000000   -0.00090109
     atom   16 type  1   force =     0.00069024    0.00000000    0.00090109
     atom   17 type  1   force =    -0.00069024    0.00000000    0.00090109
     atom   18 type  1   force =     0.00069024   -0.00000000   -0.00090109
     atom   19 type  1   force =     0.00069036    0.00000000    0.00090118
     atom   20 type  1   force =    -0.00069036   -0.00000000   -0.00090118
     atom   21 type  1   force =     0.00000000   -0.00068885   -0.00110556
     atom   22 type  1   force =     0.00000000    0.00068885    0.00110556
     atom   23 type  1   force =     0.00000000    0.00068861   -0.00110539
     atom   24 type  1   force =     0.00000000   -0.00068861    0.00110539

     Total force =     0.004985     Total SCF correction =     0.000228


     Computing stress (Cartesian axis) and pressure

          total   stress  (Ry/bohr**3)                   (kbar)     P=      -16.73
  -0.00011671   0.00000000   0.00000000          -17.17        0.00        0.00
   0.00000000  -0.00011728  -0.00000000            0.00      -17.25       -0.00
   0.00000000  -0.00000000  -0.00010716            0.00       -0.00      -15.76

     Energy error            =      4.6E-04 Ry
     Gradient error          =      1.1E-03 Ry/Bohr

     number of scf cycles    =   5
     number of bfgs steps    =   4

     energy             old  =    -278.6863297986 Ry
     energy             new  =    -278.6867860006 Ry

     CASE: energy            _new < energy            _old

     new trust radius        =       0.0019790871 bohr
     new conv_thr            =       0.0000000011 Ry


ATOMIC_POSITIONS (crystal)
O               -0.0000000000        0.2500000326        0.6107808198
O               -0.0000000000        0.7499999674        0.3892192092
O                0.5000000000        0.7500000105        0.1107808011
O                0.5000000000        0.2499999895        0.8892191699
O                0.0000000000        0.7500000008        0.8609365524
O                0.0000000000        0.2499999992        0.1390634766
O                0.5000000000        0.2500000002        0.3609364650
O                0.5000000000        0.7499999998        0.6390635060
H                0.0000000000        0.4068880628        0.6936571918
H                0.0000000000        0.5931119072        0.3063428082
H                0.5000000000        0.5931118966        0.1936572062
H                0.5000000000        0.4068880734        0.8063427938
H                0.8430659748        0.7500000001        0.9437497299
H                0.1569339952        0.2499999999        0.0562502701
H                0.6569340274        0.2500000009        0.4437496754
H                0.3430660026        0.7499999991        0.5562503246
H                0.6569340274        0.7499999991        0.5562503246
H                0.3430660026        0.2500000009        0.4437496754
H                0.8430659748        0.2499999999        0.0562502701
H                0.1569339952        0.7500000001        0.9437497299
H                0.5000000000        0.9068880997        0.1936572029
H                0.5000000000        0.0931119303        0.8063427971
H                0.0000000000        0.0931119270        0.6936572003
H                0.0000000000        0.9068881030        0.3063427997



     Writing config-only to output data dir ./iceVIII/iceVIII.save/ :
     XML data file
     NEW-OLD atomic charge density approx. for the potential

     total cpu time spent up to now is      131.0 secs

     per-process dynamical memory:    22.6 Mb

     Self-consistent Calculation

     iteration #  1     ecut=    90.00 Ry     beta= 0.70
     Davidson diagonalization with overlap
     ethr =  1.00E-06,  avg # of iterations =  2.0

     Threshold (ethr) on eigenvalues was too large:
     Diagonalizing with lowered threshold

     Davidson diagonalization with overlap
     ethr =  4.17E-09,  avg # of iterations =  4.9

     total cpu time spent up to now is      136.2 secs

     total energy              =    -278.68681189 Ry
     estimated scf accuracy    <       0.00000412 Ry

     iteration #  2     ecut=    90.00 Ry     beta= 0.70
     Davidson diagonalization with overlap
     ethr =  6.44E-09,  avg # of iterations =  2.0

     total cpu time spent up to now is      138.4 secs

     total energy              =    -278.68681253 Ry
     estimated scf accuracy    <       0.00000051 Ry

     iteration #  3     ecut=    90.00 Ry     beta= 0.70
     Davidson diagonalization with overlap
     ethr =  7.96E-10,  avg # of iterations =  2.0

     total cpu time spent up to now is      140.8 secs

     total energy              =    -278.68681266 Ry
     estimated scf accuracy    <       0.00000005 Ry

     iteration #  4     ecut=    90.00 Ry     beta= 0.70
     Davidson diagonalization with overlap
     ethr =  8.00E-11,  avg # of iterations =  1.3

     total cpu time spent up to now is      142.5 secs

     total energy              =    -278.68681266 Ry
     estimated scf accuracy    <          3.0E-09 Ry

     iteration #  5     ecut=    90.00 Ry     beta= 0.70
     Davidson diagonalization with overlap
     ethr =  4.65E-12,  avg # of iterations =  3.4

     total cpu time spent up to now is      145.2 secs

     End of self-consistent calculation

     Number of k-points >= 100: set verbosity='high' to print the bands.

     highest occupied level (ev):    -1.9064

!    total energy              =    -278.68681266 Ry
     estimated scf accuracy    <          6.8E-10 Ry

     The total energy is the sum of the following terms:
     one-electron contribution =    -151.57540419 Ry
     hartree contribution      =     100.41169846 Ry
     xc contribution           =     -70.47222315 Ry
     ewald contribution        =    -157.05088378 Ry

     convergence has been achieved in   5 iterations

     Forces acting on atoms (cartesian axes, Ry/au):

     atom    1 type  2   force =    -0.00000000   -0.00000047   -0.00075975
     atom    2 type  2   force =    -0.00000000    0.00000047    0.00075975
     atom    3 type  2   force =     0.00000000   -0.00000016   -0.00075974
     atom    4 type  2   force =     0.00000000    0.00000016    0.00075974
     atom    5 type  2   force =    -0.00000000    0.00000000   -0.00056813
     atom    6 type  2   force =    -0.00000000   -0.00000000    0.00056813
     atom    7 type  2   force =     0.00000000   -0.00000000   -0.00056805
     atom    8 type  2   force =     0.00000000    0.00000000    0.00056805
     atom    9 type  1   force =     0.00000000    0.00018088   -0.00092560
     atom   10 type  1   force =     0.00000000   -0.00018088    0.00092560
     atom   11 type  1   force =     0.00000000   -0.00018057   -0.00092583
     atom   12 type  1   force =     0.00000000    0.00018057    0.00092583
     atom   13 type  1   force =    -0.00016218    0.00000000   -0.00073788
     atom   14 type  1   force =     0.00016218   -0.00000000    0.00073788
     atom   15 type  1   force =     0.00016215    0.00000000   -0.00073790
     atom   16 type  1   force =    -0.00016215   -0.00000000    0.00073790
     atom   17 type  1   force =     0.00016215   -0.00000000    0.00073790
     atom   18 type  1   force =    -0.00016215    0.00000000   -0.00073790
     atom   19 type  1   force =    -0.00016218   -0.00000000    0.00073788
     atom   20 type  1   force =     0.00016218    0.00000000   -0.00073788
     atom   21 type  1   force =     0.00000000    0.00018072   -0.00092572
     atom   22 type  1   force =     0.00000000   -0.00018072    0.00092572
     atom   23 type  1   force =     0.00000000   -0.00018043   -0.00092593
     atom   24 type  1   force =     0.00000000    0.00018043    0.00092593

     Total force =     0.003909     Total SCF correction =     0.000012


     Computing stress (Cartesian axis) and pressure

          total   stress  (Ry/bohr**3)                   (kbar)     P=      -15.71
  -0.00010828   0.00000000   0.00000000          -15.93        0.00        0.00
   0.00000000  -0.00010884   0.00000000            0.00      -16.01        0.00
   0.00000000   0.00000000  -0.00010319            0.00        0.00      -15.18

     Energy error            =      2.7E-05 Ry
     Gradient error          =      9.3E-04 Ry/Bohr

     bfgs converged in   6 scf cycles and   5 bfgs steps
     (criteria: energy <  1.0E-04 Ry, force <  1.0E-03 Ry/Bohr)

     End of BFGS Geometry Optimization

     Final energy             =    -278.6868126612 Ry

     File ./iceVIII/iceVIII.bfgs deleted, as requested
Begin final coordinates

ATOMIC_POSITIONS (crystal)
O               -0.0000000000        0.2500000326        0.6107808198
O               -0.0000000000        0.7499999674        0.3892192092
O                0.5000000000        0.7500000105        0.1107808011
O                0.5000000000        0.2499999895        0.8892191699
O                0.0000000000        0.7500000008        0.8609365524
O                0.0000000000        0.2499999992        0.1390634766
O                0.5000000000        0.2500000002        0.3609364650
O                0.5000000000        0.7499999998        0.6390635060
H                0.0000000000        0.4068880628        0.6936571918
H                0.0000000000        0.5931119072        0.3063428082
H                0.5000000000        0.5931118966        0.1936572062
H                0.5000000000        0.4068880734        0.8063427938
H                0.8430659748        0.7500000001        0.9437497299
H                0.1569339952        0.2499999999        0.0562502701
H                0.6569340274        0.2500000009        0.4437496754
H                0.3430660026        0.7499999991        0.5562503246
H                0.6569340274        0.7499999991        0.5562503246
H                0.3430660026        0.2500000009        0.4437496754
H                0.8430659748        0.2499999999        0.0562502701
H                0.1569339952        0.7500000001        0.9437497299
H                0.5000000000        0.9068880997        0.1936572029
H                0.5000000000        0.0931119303        0.8063427971
H                0.0000000000        0.0931119270        0.6936572003
H                0.0000000000        0.9068881030        0.3063427997
End final coordinates



     Writing all to output data dir ./iceVIII/iceVIII.save/ :
     XML data file, charge density, pseudopotentials, collected wavefunctions

     init_run     :      3.02s CPU      3.10s WALL (       1 calls)
     electrons    :    127.58s CPU    130.39s WALL (       6 calls)
     update_pot   :      0.24s CPU      0.28s WALL (       5 calls)
     forces       :      0.93s CPU      0.94s WALL (       6 calls)
     stress       :     12.15s CPU     12.21s WALL (       6 calls)

     Called by init_run:
     wfcinit      :      0.97s CPU      0.99s WALL (       1 calls)
     potinit      :      1.56s CPU      1.60s WALL (       1 calls)
     hinit0       :      0.43s CPU      0.44s WALL (       1 calls)

     Called by electrons:
     c_bands      :    111.80s CPU    113.95s WALL (      51 calls)
     sum_band     :     13.27s CPU     13.42s WALL (      51 calls)
     v_of_rho     :      4.02s CPU      4.33s WALL (      56 calls)
     newd         :      0.08s CPU      0.11s WALL (      56 calls)
     mix_rho      :      0.08s CPU      0.08s WALL (      51 calls)
     vdW_kernel   :      1.51s CPU      1.52s WALL (       1 calls)

     Called by c_bands:
     init_us_2    :      1.55s CPU      1.62s WALL (    4140 calls)
     cegterg      :    108.21s CPU    109.49s WALL (    1836 calls)

     Called by *egterg:
     cdiaghg      :     11.68s CPU     11.74s WALL (    6789 calls)
     h_psi        :     80.11s CPU     81.22s WALL (    7041 calls)
     s_psi        :      3.25s CPU      3.28s WALL (    7041 calls)
     g_psi        :      0.30s CPU      0.30s WALL (    5169 calls)

     Called by h_psi:
     h_psi:calbec :      4.76s CPU      4.81s WALL (    7041 calls)
     vloc_psi     :     71.38s CPU     72.40s WALL (    7041 calls)
     add_vuspsi   :      3.48s CPU      3.52s WALL (    7041 calls)

     General routines
     calbec       :      6.66s CPU      6.73s WALL (    9957 calls)
     fft          :      1.84s CPU      1.87s WALL (    3734 calls)
     ffts         :      0.02s CPU      0.02s WALL (      51 calls)
     fftw         :     75.23s CPU     76.25s WALL (  433082 calls)

     Parallel routines

     PWSCF        :   2m25.21s CPU   2m30.84s WALL


   This run was terminated on:  15:57:35   1Apr2026            

=------------------------------------------------------------------------------=
   JOB DONE.
=------------------------------------------------------------------------------=
