
     Program PWSCF v.7.3.1 starts on 26Mar2026 at 14:41:11 

     This program is part of the open-source Quantum ESPRESSO suite
     for quantum simulation of materials; please cite
         "P. Giannozzi et al., J. Phys.:Condens. Matter 21 395502 (2009);
         "P. Giannozzi et al., J. Phys.:Condens. Matter 29 465901 (2017);
         "P. Giannozzi et al., J. Chem. Phys. 152 154105 (2020);
          URL http://www.quantum-espresso.org", 
     in publications or presentations arising from this work. More details at
     http://www.quantum-espresso.org/quote

     Parallel version (MPI), running on   128 processors

     MPI processes distributed on     1 nodes
     243537 MiB available memory on the printing compute node when the environment starts

     Waiting for input...
     Reading input from standard input

     Current dimensions of program PWSCF are:
     Max number of different atomic species (ntypx) = 10
     Max number of k-points (npk) =  40000
     Max angular momentum in pseudopotentials (lmaxx) =  4

     IMPORTANT: XC functional enforced from input :
     Exchange-correlation= VDW-DF2
                           (   1   4  13   0   2   0   0)
     Any further DFT definition will be discarded
     Please, verify this is what you really want

     Found identity + ( -0.5000 -0.5000 -0.5000) symmetry
     This is a supercell, fractional translations are disabled

     K-points division:     npool     =       4
     R & G space division:  proc/nbgrp/npool/nimage =      32
     Subspace diagonalization in iterative solution of the eigenvalue problem:
     a serial algorithm will be used


     Parallelization info
     --------------------
     sticks:   dense  smooth     PW     G-vecs:    dense   smooth      PW
     Min          60      60     17                 2904     2904     425
     Max          61      61     18                 2909     2909     430
     Sum        1941    1941    545                93019    93019   13637

     Using Slab Decomposition



     bravais-lattice index     =            6
     lattice parameter (alat)  =       8.2370  a.u.
     unit-cell volume          =     805.9846 (a.u.)^3
     number of atoms/cell      =           24
     number of atomic types    =            2
     number of electrons       =        64.00
     number of Kohn-Sham states=           32
     kinetic-energy cutoff     =      90.0000  Ry
     charge density cutoff     =     360.0000  Ry
     scf convergence threshold =      1.0E-07
     mixing beta               =       0.7000
     number of iterations used =            8  plain     mixing
     Exchange-correlation= VDW-DF2
                           (   1   4  13   0   2   0   0)

     celldm(1)=   8.236968  celldm(2)=   0.000000  celldm(3)=   1.442197
     celldm(4)=   0.000000  celldm(5)=   0.000000  celldm(6)=   0.000000

     crystal axes: (cart. coord. in units of alat)
               a(1) = (   1.000000   0.000000   0.000000 )  
               a(2) = (   0.000000   1.000000   0.000000 )  
               a(3) = (   0.000000   0.000000   1.442197 )  

     reciprocal axes: (cart. coord. in units 2 pi/alat)
               b(1) = (  1.000000  0.000000  0.000000 )  
               b(2) = (  0.000000  1.000000  0.000000 )  
               b(3) = (  0.000000  0.000000  0.693386 )  


     PseudoPot. # 1 for H  read from file:
     ./H.pbe-van_ak.UPF
     MD5 check sum: 077eb6d537518a38cb46c6de387227b7
     Pseudo is Ultrasoft, Zval =  1.0
     Generated by new atomic code, or converted to UPF format
     Using radial grid of  615 points,  1 beta functions with: 
                l(1) =   0
     Q(r) pseudized with  8 coefficients,  rinner =    0.800

     PseudoPot. # 2 for O  read from file:
     ./O.pbe-van_ak.UPF
     MD5 check sum: 78c19812648e8988a0fe644b0f25305e
     Pseudo is Ultrasoft, Zval =  6.0
     Generated by new atomic code, or converted to UPF format
     Using radial grid of  737 points,  4 beta functions with: 
                l(1) =   0
                l(2) =   0
                l(3) =   1
                l(4) =   1
     Q(r) pseudized with  8 coefficients,  rinner =    0.800   0.800   0.800


     atomic species   valence    mass     pseudopotential
     H                 1.00     1.00800     H ( 1.00)
     O                 6.00    16.00000     O ( 1.00)

      4 Sym. Ops., with inversion, found



   Cartesian axes

     site n.     atom                  positions (alat units)
         1        O      tau(   1) = (   0.0000000   0.2500000   0.8763462  )
         2        O      tau(   2) = (   0.0000000   0.7500000   0.5658510  )
         3        O      tau(   3) = (   0.5000000   0.7500000   0.1552476  )
         4        O      tau(   4) = (   0.5000000   0.2500000   1.2869495  )
         5        O      tau(   5) = (   0.0000000   0.7500000   1.2368921  )
         6        O      tau(   6) = (   0.0000000   0.2500000   0.2053051  )
         7        O      tau(   7) = (   0.5000000   0.2500000   0.5157934  )
         8        O      tau(   8) = (   0.5000000   0.7500000   0.9264037  )
         9        H      tau(   9) = (   0.0000000   0.4175939   1.0039395  )
        10        H      tau(  10) = (   0.0000000   0.5824060   0.4382577  )
        11        H      tau(  11) = (   0.5000000   0.5824060   0.2828409  )
        12        H      tau(  12) = (   0.5000000   0.4175939   1.1593562  )
        13        H      tau(  13) = (   0.8324057   0.7500000   1.3644894  )
        14        H      tau(  14) = (   0.1675943   0.2500000   0.0777077  )
        15        H      tau(  15) = (   0.6675943   0.2500000   0.6433908  )
        16        H      tau(  16) = (   0.3324057   0.7500000   0.7988063  )
        17        H      tau(  17) = (   0.6675943   0.7500000   0.7988063  )
        18        H      tau(  18) = (   0.3324057   0.2500000   0.6433908  )
        19        H      tau(  19) = (   0.8324057   0.2500000   0.0777077  )
        20        H      tau(  20) = (   0.1675943   0.7500000   1.3644894  )
        21        H      tau(  21) = (   0.5000000   0.9175940   0.2828409  )
        22        H      tau(  22) = (   0.5000000   0.0824061   1.1593562  )
        23        H      tau(  23) = (   0.0000000   0.0824061   1.0039395  )
        24        H      tau(  24) = (   0.0000000   0.9175940   0.4382577  )

     number of k points=   144

     Number of k-points >= 100: set verbosity='high' to print them.

     Dense  grid:    93019 G-vectors     FFT dimensions: (  50,  50,  72)

     Estimated max dynamical RAM per process >      10.97 MB

     Estimated total dynamical RAM >       1.31 GB

     Initial potential from superposition of free atoms

     starting charge      63.9998, renormalised to      64.0000


     %%%%%%%%%%%%%%%%%%%%%%%%%%%%%%%%%%%%%%%%%%%%%%%%%%%%%%%%%%%%%%%%%%%%%%%%
     %                                                                      %
     % You are using vdW-DF, which was implemented by the Thonhauser group. %
     % Please cite the following two papers that made this development      %
     % possible and the two reviews that describe the various versions:     %
     %                                                                      %
     %   T. Thonhauser et al., PRL 115, 136402 (2015).                      %
     %   T. Thonhauser et al., PRB 76, 125112 (2007).                       %
     %   K. Berland et al., Rep. Prog. Phys. 78, 066501 (2015).             %
     %   D.C. Langreth et al., J. Phys.: Condens. Matter 21, 084203 (2009). %
     %                                                                      %
     % If you are calculating stress with vdW-DF, please also cite:         %
     %                                                                      %
     %   R. Sabatini et al., J. Phys.: Condens. Matter 24, 424209 (2012).   %
     %                                                                      %
     %%%%%%%%%%%%%%%%%%%%%%%%%%%%%%%%%%%%%%%%%%%%%%%%%%%%%%%%%%%%%%%%%%%%%%%%

     %%%%%%%%%%%%%%%%%%%%%%%%%%%%%%%%%%%%%%%%%%%%%%%%%%%%%%%%%%%%%%%%%%%%%%%%
     %                                                                      %
     %  vdW-DF NEWS:                                                        %
     %                                                                      %
     %  * vdW-DF3 is now available. DOI: 10.1021/acs.jctc.0c00471           %
     %    use with input_dft = 'vdW-DF3-opt1' or 'vdW-DF3-opt2'             %
     %                                                                      %
     %  * Unscreened and range-separated hybrid vdW-DF-cx functionals       %
     %    DOI: 10.1063/1.4986522 and 10.1088/1361-648X/ac2ad2               %
     %    use with input_dft = 'vdW-DF-cx0'    and 'vdW-DF-ahcx'            %
     %  * Unscreened and range-separated hybrid vdW-DF2-b86r functionals    %
     %    DOI: 10.1063/1.4986522 and DOI: 10.1103/PhysRevX.12.041003        %
     %    use with input_dft = 'vdW-DF2-br0' and 'vdW-DF2-ahbr'             %
     %                                                                      %
     %%%%%%%%%%%%%%%%%%%%%%%%%%%%%%%%%%%%%%%%%%%%%%%%%%%%%%%%%%%%%%%%%%%%%%%%


     Starting wfcs are   48 randomized atomic wfcs

     total cpu time spent up to now is       13.0 secs

     per-process dynamical memory:    17.7 Mb

     Self-consistent Calculation

     iteration #  1     ecut=    90.00 Ry     beta= 0.70
     Davidson diagonalization with overlap
     ethr =  1.00E-02,  avg # of iterations =  2.0

     total cpu time spent up to now is       14.8 secs

     total energy              =    -277.00158915 Ry
     estimated scf accuracy    <       3.41535304 Ry

     iteration #  2     ecut=    90.00 Ry     beta= 0.70
     Davidson diagonalization with overlap
     ethr =  5.34E-03,  avg # of iterations =  3.0

     total cpu time spent up to now is       17.0 secs

     total energy              =    -278.18355042 Ry
     estimated scf accuracy    <       1.44319428 Ry

     iteration #  3     ecut=    90.00 Ry     beta= 0.70
     Davidson diagonalization with overlap
     ethr =  2.25E-03,  avg # of iterations =  2.0

     total cpu time spent up to now is       18.6 secs

     total energy              =    -278.34184920 Ry
     estimated scf accuracy    <       0.06476538 Ry

     iteration #  4     ecut=    90.00 Ry     beta= 0.70
     Davidson diagonalization with overlap
     ethr =  1.01E-04,  avg # of iterations =  4.0

     total cpu time spent up to now is       21.0 secs

     total energy              =    -278.38344520 Ry
     estimated scf accuracy    <       0.08208168 Ry

     iteration #  5     ecut=    90.00 Ry     beta= 0.70
     Davidson diagonalization with overlap
     ethr =  1.01E-04,  avg # of iterations =  2.0

     total cpu time spent up to now is       22.7 secs

     total energy              =    -278.38647192 Ry
     estimated scf accuracy    <       0.01095173 Ry

     iteration #  6     ecut=    90.00 Ry     beta= 0.70
     Davidson diagonalization with overlap
     ethr =  1.71E-05,  avg # of iterations =  3.0

     total cpu time spent up to now is       24.6 secs

     total energy              =    -278.38986391 Ry
     estimated scf accuracy    <       0.00003319 Ry

     iteration #  7     ecut=    90.00 Ry     beta= 0.70
     Davidson diagonalization with overlap
     ethr =  5.19E-08,  avg # of iterations =  6.0

     total cpu time spent up to now is       27.9 secs

     total energy              =    -278.39004405 Ry
     estimated scf accuracy    <       0.00014772 Ry

     iteration #  8     ecut=    90.00 Ry     beta= 0.70
     Davidson diagonalization with overlap
     ethr =  5.19E-08,  avg # of iterations =  2.2

     total cpu time spent up to now is       29.9 secs

     total energy              =    -278.39004020 Ry
     estimated scf accuracy    <       0.00002992 Ry

     iteration #  9     ecut=    90.00 Ry     beta= 0.70
     Davidson diagonalization with overlap
     ethr =  4.67E-08,  avg # of iterations =  2.0

     total cpu time spent up to now is       31.7 secs

     total energy              =    -278.39004780 Ry
     estimated scf accuracy    <       0.00000029 Ry

     iteration # 10     ecut=    90.00 Ry     beta= 0.70
     Davidson diagonalization with overlap
     ethr =  4.59E-10,  avg # of iterations =  5.4

     total cpu time spent up to now is       34.8 secs

     total energy              =    -278.39004865 Ry
     estimated scf accuracy    <       0.00000111 Ry

     iteration # 11     ecut=    90.00 Ry     beta= 0.70
     Davidson diagonalization with overlap
     ethr =  4.59E-10,  avg # of iterations =  2.0

     total cpu time spent up to now is       36.5 secs

     total energy              =    -278.39004842 Ry
     estimated scf accuracy    <       0.00000040 Ry

     iteration # 12     ecut=    90.00 Ry     beta= 0.70
     Davidson diagonalization with overlap
     ethr =  4.59E-10,  avg # of iterations =  3.0

     total cpu time spent up to now is       38.7 secs

     End of self-consistent calculation

     Number of k-points >= 100: set verbosity='high' to print the bands.

     highest occupied level (ev):     1.2449

!    total energy              =    -278.39004855 Ry
     estimated scf accuracy    <       0.00000007 Ry

     The total energy is the sum of the following terms:
     one-electron contribution =    -102.59504241 Ry
     hartree contribution      =      82.82271972 Ry
     xc contribution           =     -72.34809971 Ry
     ewald contribution        =    -186.26962615 Ry

     convergence has been achieved in  12 iterations

     Forces acting on atoms (cartesian axes, Ry/au):

     atom    1 type  2   force =     0.00000000   -0.00000002   -0.16009291
     atom    2 type  2   force =     0.00000000    0.00000002    0.16009291
     atom    3 type  2   force =     0.00000000   -0.00000003   -0.16009257
     atom    4 type  2   force =     0.00000000    0.00000003    0.16009257
     atom    5 type  2   force =     0.00000000    0.00000001   -0.16007489
     atom    6 type  2   force =     0.00000000   -0.00000001    0.16007489
     atom    7 type  2   force =     0.00000000   -0.00000001   -0.16007555
     atom    8 type  2   force =     0.00000000    0.00000001    0.16007555
     atom    9 type  1   force =     0.00000000    0.12520708    0.08346664
     atom   10 type  1   force =     0.00000000   -0.12520708   -0.08346664
     atom   11 type  1   force =     0.00000000   -0.12520717    0.08346669
     atom   12 type  1   force =     0.00000000    0.12520717   -0.08346669
     atom   13 type  1   force =    -0.12516429    0.00000000    0.08345072
     atom   14 type  1   force =     0.12516429   -0.00000000   -0.08345072
     atom   15 type  1   force =     0.12516418   -0.00000000    0.08345057
     atom   16 type  1   force =    -0.12516418    0.00000000   -0.08345057
     atom   17 type  1   force =     0.12516418    0.00000000   -0.08345057
     atom   18 type  1   force =    -0.12516418   -0.00000000    0.08345057
     atom   19 type  1   force =    -0.12516429   -0.00000000   -0.08345072
     atom   20 type  1   force =     0.12516429    0.00000000    0.08345072
     atom   21 type  1   force =     0.00000000    0.12520718    0.08346671
     atom   22 type  1   force =     0.00000000   -0.12520718   -0.08346671
     atom   23 type  1   force =     0.00000000   -0.12520708    0.08346663
     atom   24 type  1   force =     0.00000000    0.12520708   -0.08346663

     Total force =     0.753129     Total SCF correction =     0.000328


     Computing stress (Cartesian axis) and pressure

          total   stress  (Ry/bohr**3)                   (kbar)     P=      434.53
   0.00292131   0.00000000   0.00000000          429.74        0.00        0.00
   0.00000000   0.00292299   0.00000000            0.00      429.99        0.00
   0.00000000   0.00000000   0.00301728            0.00        0.00      443.86


     Writing all to output data dir ./iceVIII/iceVIII.save/ :
     XML data file, charge density, pseudopotentials, collected wavefunctions

     init_run     :      2.67s CPU      5.23s WALL (       1 calls)
     electrons    :     25.06s CPU     25.72s WALL (       1 calls)
     forces       :      0.11s CPU      0.13s WALL (       1 calls)
     stress       :      1.35s CPU      1.37s WALL (       1 calls)

     Called by init_run:
     wfcinit      :      0.75s CPU      3.16s WALL (       1 calls)
     potinit      :      1.59s CPU      1.65s WALL (       1 calls)
     hinit0       :      0.29s CPU      0.35s WALL (       1 calls)

     Called by electrons:
     c_bands      :     22.20s CPU     22.71s WALL (      12 calls)
     sum_band     :      2.45s CPU      2.49s WALL (      12 calls)
     v_of_rho     :      1.93s CPU      2.06s WALL (      13 calls)
     newd         :      0.02s CPU      0.03s WALL (      13 calls)
     mix_rho      :      0.02s CPU      0.03s WALL (      12 calls)
     vdW_kernel   :      1.54s CPU      1.59s WALL (       1 calls)

     Called by c_bands:
     init_us_2    :      0.25s CPU      0.26s WALL (     972 calls)
     cegterg      :     21.65s CPU     21.99s WALL (     432 calls)

     Called by *egterg:
     cdiaghg      :      2.99s CPU      5.37s WALL (    1767 calls)
     h_psi        :     16.27s CPU     16.59s WALL (    1803 calls)
     s_psi        :      0.60s CPU      0.61s WALL (    1803 calls)
     g_psi        :      0.05s CPU      0.05s WALL (    1335 calls)

     Called by h_psi:
     h_psi:calbec :      0.79s CPU      0.84s WALL (    1803 calls)
     vloc_psi     :     14.80s CPU     15.06s WALL (    1803 calls)
     add_vuspsi   :      0.62s CPU      0.63s WALL (    1803 calls)

     General routines
     calbec       :      1.09s CPU      1.14s WALL (    2415 calls)
     fft          :      0.49s CPU      0.57s WALL (     845 calls)
     ffts         :      0.00s CPU      0.00s WALL (      12 calls)
     fftw         :     15.69s CPU     15.95s WALL (  110966 calls)

     Parallel routines

     PWSCF        :     31.11s CPU     41.14s WALL


   This run was terminated on:  14:41:52  26Mar2026            

=------------------------------------------------------------------------------=
   JOB DONE.
=------------------------------------------------------------------------------=
