
     Program PWSCF v.7.3.1 starts on  1Apr2026 at 13:55:29 

     This program is part of the open-source Quantum ESPRESSO suite
     for quantum simulation of materials; please cite
         "P. Giannozzi et al., J. Phys.:Condens. Matter 21 395502 (2009);
         "P. Giannozzi et al., J. Phys.:Condens. Matter 29 465901 (2017);
         "P. Giannozzi et al., J. Chem. Phys. 152 154105 (2020);
          URL http://www.quantum-espresso.org", 
     in publications or presentations arising from this work. More details at
     http://www.quantum-espresso.org/quote

     Parallel version (MPI), running on   128 processors

     MPI processes distributed on     1 nodes
     241986 MiB available memory on the printing compute node when the environment starts

     Waiting for input...
     Reading input from standard input

     Current dimensions of program PWSCF are:
     Max number of different atomic species (ntypx) = 10
     Max number of k-points (npk) =  40000
     Max angular momentum in pseudopotentials (lmaxx) =  4

     IMPORTANT: XC functional enforced from input :
     Exchange-correlation= VDW-DF2
                           (   1   4  13   0   2   0   0)
     Any further DFT definition will be discarded
     Please, verify this is what you really want

     Found identity + ( -0.5000 -0.5000  0.5000) symmetry
     This is a supercell, fractional translations are disabled

     K-points division:     npool     =       4
     R & G space division:  proc/nbgrp/npool/nimage =      32
     Subspace diagonalization in iterative solution of the eigenvalue problem:
     a serial algorithm will be used


     Parallelization info
     --------------------
     sticks:   dense  smooth     PW     G-vecs:    dense   smooth      PW
     Min          62      62     17                 2988     2988     437
     Max          63      63     18                 2992     2992     444
     Sum        1993    1993    553                95689    95689   14055

     Using Slab Decomposition



     bravais-lattice index     =            6
     lattice parameter (alat)  =       8.3169  a.u.
     unit-cell volume          =     829.6628 (a.u.)^3
     number of atoms/cell      =           24
     number of atomic types    =            2
     number of electrons       =        64.00
     number of Kohn-Sham states=           32
     kinetic-energy cutoff     =      90.0000  Ry
     charge density cutoff     =     360.0000  Ry
     scf convergence threshold =      1.0E-07
     mixing beta               =       0.7000
     number of iterations used =            8  plain     mixing
     energy convergence thresh.=      1.0E-04
     force convergence thresh. =      1.0E-03
     Exchange-correlation= VDW-DF2
                           (   1   4  13   0   2   0   0)
     nstep                     =           50


     celldm(1)=   8.316852  celldm(2)=   0.000000  celldm(3)=   1.442197
     celldm(4)=   0.000000  celldm(5)=   0.000000  celldm(6)=   0.000000

     crystal axes: (cart. coord. in units of alat)
               a(1) = (   1.000000   0.000000   0.000000 )  
               a(2) = (   0.000000   1.000000   0.000000 )  
               a(3) = (   0.000000   0.000000   1.442197 )  

     reciprocal axes: (cart. coord. in units 2 pi/alat)
               b(1) = (  1.000000  0.000000  0.000000 )  
               b(2) = (  0.000000  1.000000  0.000000 )  
               b(3) = (  0.000000  0.000000  0.693386 )  


     PseudoPot. # 1 for H  read from file:
     ./H.pbe-van_ak.UPF
     MD5 check sum: 077eb6d537518a38cb46c6de387227b7
     Pseudo is Ultrasoft, Zval =  1.0
     Generated by new atomic code, or converted to UPF format
     Using radial grid of  615 points,  1 beta functions with: 
                l(1) =   0
     Q(r) pseudized with  8 coefficients,  rinner =    0.800

     PseudoPot. # 2 for O  read from file:
     ./O.pbe-van_ak.UPF
     MD5 check sum: 78c19812648e8988a0fe644b0f25305e
     Pseudo is Ultrasoft, Zval =  6.0
     Generated by new atomic code, or converted to UPF format
     Using radial grid of  737 points,  4 beta functions with: 
                l(1) =   0
                l(2) =   0
                l(3) =   1
                l(4) =   1
     Q(r) pseudized with  8 coefficients,  rinner =    0.800   0.800   0.800


     atomic species   valence    mass     pseudopotential
     H                 1.00     1.00800     H ( 1.00)
     O                 6.00    16.00000     O ( 1.00)

      4 Sym. Ops., with inversion, found



   Cartesian axes

     site n.     atom                  positions (alat units)
         1        O      tau(   1) = (   0.0000000   0.2500000   0.8781106  )
         2        O      tau(   2) = (   0.0000000   0.7500000   0.5640866  )
         3        O      tau(   3) = (   0.5000000   0.7500000   0.1570120  )
         4        O      tau(   4) = (   0.5000000   0.2500000   1.2851851  )
         5        O      tau(   5) = (   0.0000000   0.7500000   1.2386599  )
         6        O      tau(   6) = (   0.0000000   0.2500000   0.2035373  )
         7        O      tau(   7) = (   0.5000000   0.2500000   0.5175613  )
         8        O      tau(   8) = (   0.5000000   0.7500000   0.9246358  )
         9        H      tau(   9) = (   0.0000000   0.4142500   1.0027885  )
        10        H      tau(  10) = (   0.0000000   0.5857500   0.4394086  )
        11        H      tau(  11) = (   0.5000000   0.5857500   0.2816900  )
        12        H      tau(  12) = (   0.5000000   0.4142500   1.1605072  )
        13        H      tau(  13) = (   0.8357500   0.7500000   1.3633378  )
        14        H      tau(  14) = (   0.1642500   0.2500000   0.0788593  )
        15        H      tau(  15) = (   0.6642500   0.2500000   0.6422392  )
        16        H      tau(  16) = (   0.3357500   0.7500000   0.7999579  )
        17        H      tau(  17) = (   0.6642500   0.7500000   0.7999579  )
        18        H      tau(  18) = (   0.3357500   0.2500000   0.6422392  )
        19        H      tau(  19) = (   0.8357500   0.2500000   0.0788593  )
        20        H      tau(  20) = (   0.1642500   0.7500000   1.3633378  )
        21        H      tau(  21) = (   0.5000000   0.9142500   0.2816900  )
        22        H      tau(  22) = (   0.5000000   0.0857500   1.1605072  )
        23        H      tau(  23) = (   0.0000000   0.0857500   1.0027885  )
        24        H      tau(  24) = (   0.0000000   0.9142500   0.4394086  )

     number of k points=   144

     Number of k-points >= 100: set verbosity='high' to print them.

     Dense  grid:    95689 G-vectors     FFT dimensions: (  54,  54,  75)

     Estimated max dynamical RAM per process >      11.32 MB

     Estimated total dynamical RAM >       1.35 GB

     Initial potential from superposition of free atoms

     starting charge      63.9998, renormalised to      64.0000


     %%%%%%%%%%%%%%%%%%%%%%%%%%%%%%%%%%%%%%%%%%%%%%%%%%%%%%%%%%%%%%%%%%%%%%%%
     %                                                                      %
     % You are using vdW-DF, which was implemented by the Thonhauser group. %
     % Please cite the following two papers that made this development      %
     % possible and the two reviews that describe the various versions:     %
     %                                                                      %
     %   T. Thonhauser et al., PRL 115, 136402 (2015).                      %
     %   T. Thonhauser et al., PRB 76, 125112 (2007).                       %
     %   K. Berland et al., Rep. Prog. Phys. 78, 066501 (2015).             %
     %   D.C. Langreth et al., J. Phys.: Condens. Matter 21, 084203 (2009). %
     %                                                                      %
     % If you are calculating stress with vdW-DF, please also cite:         %
     %                                                                      %
     %   R. Sabatini et al., J. Phys.: Condens. Matter 24, 424209 (2012).   %
     %                                                                      %
     %%%%%%%%%%%%%%%%%%%%%%%%%%%%%%%%%%%%%%%%%%%%%%%%%%%%%%%%%%%%%%%%%%%%%%%%

     %%%%%%%%%%%%%%%%%%%%%%%%%%%%%%%%%%%%%%%%%%%%%%%%%%%%%%%%%%%%%%%%%%%%%%%%
     %                                                                      %
     %  vdW-DF NEWS:                                                        %
     %                                                                      %
     %  * vdW-DF3 is now available. DOI: 10.1021/acs.jctc.0c00471           %
     %    use with input_dft = 'vdW-DF3-opt1' or 'vdW-DF3-opt2'             %
     %                                                                      %
     %  * Unscreened and range-separated hybrid vdW-DF-cx functionals       %
     %    DOI: 10.1063/1.4986522 and 10.1088/1361-648X/ac2ad2               %
     %    use with input_dft = 'vdW-DF-cx0'    and 'vdW-DF-ahcx'            %
     %  * Unscreened and range-separated hybrid vdW-DF2-b86r functionals    %
     %    DOI: 10.1063/1.4986522 and DOI: 10.1103/PhysRevX.12.041003        %
     %    use with input_dft = 'vdW-DF2-br0' and 'vdW-DF2-ahbr'             %
     %                                                                      %
     %%%%%%%%%%%%%%%%%%%%%%%%%%%%%%%%%%%%%%%%%%%%%%%%%%%%%%%%%%%%%%%%%%%%%%%%


     Starting wfcs are   48 randomized atomic wfcs

     total cpu time spent up to now is        2.9 secs

     per-process dynamical memory:    18.0 Mb

     Self-consistent Calculation

     iteration #  1     ecut=    90.00 Ry     beta= 0.70
     Davidson diagonalization with overlap
     ethr =  1.00E-02,  avg # of iterations =  2.0

     total cpu time spent up to now is        4.9 secs

     total energy              =    -276.92532459 Ry
     estimated scf accuracy    <       3.53624728 Ry

     iteration #  2     ecut=    90.00 Ry     beta= 0.70
     Davidson diagonalization with overlap
     ethr =  5.53E-03,  avg # of iterations =  3.0

     total cpu time spent up to now is        7.2 secs

     total energy              =    -278.14813404 Ry
     estimated scf accuracy    <       1.51295827 Ry

     iteration #  3     ecut=    90.00 Ry     beta= 0.70
     Davidson diagonalization with overlap
     ethr =  2.36E-03,  avg # of iterations =  2.0

     total cpu time spent up to now is        9.0 secs

     total energy              =    -278.31548469 Ry
     estimated scf accuracy    <       0.06694521 Ry

     iteration #  4     ecut=    90.00 Ry     beta= 0.70
     Davidson diagonalization with overlap
     ethr =  1.05E-04,  avg # of iterations =  4.0

     total cpu time spent up to now is       11.6 secs

     total energy              =    -278.35926211 Ry
     estimated scf accuracy    <       0.08641375 Ry

     iteration #  5     ecut=    90.00 Ry     beta= 0.70
     Davidson diagonalization with overlap
     ethr =  1.05E-04,  avg # of iterations =  2.0

     total cpu time spent up to now is       13.4 secs

     total energy              =    -278.36225245 Ry
     estimated scf accuracy    <       0.01170578 Ry

     iteration #  6     ecut=    90.00 Ry     beta= 0.70
     Davidson diagonalization with overlap
     ethr =  1.83E-05,  avg # of iterations =  3.0

     total cpu time spent up to now is       15.6 secs

     total energy              =    -278.36590828 Ry
     estimated scf accuracy    <       0.00002409 Ry

     iteration #  7     ecut=    90.00 Ry     beta= 0.70
     Davidson diagonalization with overlap
     ethr =  3.76E-08,  avg # of iterations =  6.9

     total cpu time spent up to now is       19.4 secs

     total energy              =    -278.36609713 Ry
     estimated scf accuracy    <       0.00014704 Ry

     iteration #  8     ecut=    90.00 Ry     beta= 0.70
     Davidson diagonalization with overlap
     ethr =  3.76E-08,  avg # of iterations =  2.7

     total cpu time spent up to now is       21.5 secs

     total energy              =    -278.36608525 Ry
     estimated scf accuracy    <       0.00003702 Ry

     iteration #  9     ecut=    90.00 Ry     beta= 0.70
     Davidson diagonalization with overlap
     ethr =  3.76E-08,  avg # of iterations =  3.0

     total cpu time spent up to now is       23.9 secs

     total energy              =    -278.36609728 Ry
     estimated scf accuracy    <       0.00000088 Ry

     iteration # 10     ecut=    90.00 Ry     beta= 0.70
     Davidson diagonalization with overlap
     ethr =  1.38E-09,  avg # of iterations =  2.6

     total cpu time spent up to now is       25.9 secs

     total energy              =    -278.36609732 Ry
     estimated scf accuracy    <       0.00000063 Ry

     iteration # 11     ecut=    90.00 Ry     beta= 0.70
     Davidson diagonalization with overlap
     ethr =  9.90E-10,  avg # of iterations =  1.7

     total cpu time spent up to now is       27.4 secs

     total energy              =    -278.36609730 Ry
     estimated scf accuracy    <       0.00000015 Ry

     iteration # 12     ecut=    90.00 Ry     beta= 0.70
     Davidson diagonalization with overlap
     ethr =  2.27E-10,  avg # of iterations =  2.0

     total cpu time spent up to now is       29.3 secs

     End of self-consistent calculation

     Number of k-points >= 100: set verbosity='high' to print the bands.

     highest occupied level (ev):     0.9313

!    total energy              =    -278.36609734 Ry
     estimated scf accuracy    <          3.5E-10 Ry

     The total energy is the sum of the following terms:
     one-electron contribution =    -108.08345214 Ry
     hartree contribution      =      84.83320410 Ry
     xc contribution           =     -72.40646935 Ry
     ewald contribution        =    -182.70937995 Ry

     convergence has been achieved in  12 iterations

     Forces acting on atoms (cartesian axes, Ry/au):

     atom    1 type  2   force =     0.00000000    0.00000001   -0.19606444
     atom    2 type  2   force =     0.00000000   -0.00000001    0.19606444
     atom    3 type  2   force =     0.00000000    0.00000001   -0.19613328
     atom    4 type  2   force =     0.00000000   -0.00000001    0.19613328
     atom    5 type  2   force =    -0.00000000   -0.00000002   -0.19595396
     atom    6 type  2   force =    -0.00000000    0.00000002    0.19595396
     atom    7 type  2   force =     0.00000000   -0.00000001   -0.19610135
     atom    8 type  2   force =     0.00000000    0.00000001    0.19610135
     atom    9 type  1   force =     0.00000000    0.14929061    0.10013161
     atom   10 type  1   force =     0.00000000   -0.14929061   -0.10013161
     atom   11 type  1   force =     0.00000000   -0.14929642    0.10013119
     atom   12 type  1   force =     0.00000000    0.14929642   -0.10013119
     atom   13 type  1   force =    -0.14927975   -0.00000000    0.10013574
     atom   14 type  1   force =     0.14927975    0.00000000   -0.10013574
     atom   15 type  1   force =     0.14929274   -0.00000000    0.10012699
     atom   16 type  1   force =    -0.14929274    0.00000000   -0.10012699
     atom   17 type  1   force =     0.14929274    0.00000000   -0.10012699
     atom   18 type  1   force =    -0.14929274   -0.00000000    0.10012699
     atom   19 type  1   force =    -0.14927975    0.00000000   -0.10013574
     atom   20 type  1   force =     0.14927975   -0.00000000    0.10013574
     atom   21 type  1   force =     0.00000000    0.14929642    0.10013120
     atom   22 type  1   force =     0.00000000   -0.14929642   -0.10013120
     atom   23 type  1   force =     0.00000000   -0.14929061    0.10013161
     atom   24 type  1   force =     0.00000000    0.14929061   -0.10013161

     Total force =     0.908046     Total SCF correction =     0.000020


     Computing stress (Cartesian axis) and pressure

          total   stress  (Ry/bohr**3)                   (kbar)     P=      444.67
   0.00298488   0.00000000   0.00000000          439.09        0.00        0.00
   0.00000000   0.00298461   0.00000000            0.00      439.05        0.00
   0.00000000   0.00000000   0.00309883            0.00        0.00      455.85


     BFGS Geometry Optimization
     Energy error            =      0.0E+00 Ry
     Gradient error          =      2.0E-01 Ry/Bohr

     number of scf cycles    =   1
     number of bfgs steps    =   0

     energy             new  =    -278.3660973397 Ry

     new trust radius        =       0.1961332825 bohr
     new conv_thr            =       0.0000001000 Ry


ATOMIC_POSITIONS (crystal)
O                0.0000000000        0.2500000012        0.5925238886
O                0.0000000000        0.7499999988        0.4074761404
O                0.5000000000        0.7500000014        0.0925181205
O                0.5000000000        0.2499999986        0.9074818505
O               -0.0000000000        0.7499999976        0.8425330997
O               -0.0000000000        0.2500000024        0.1574669293
O                0.5000000000        0.2499999984        0.3425207829
O                0.5000000000        0.7500000016        0.6574791881
H                0.0000000000        0.4322003601        0.7036681089
H                0.0000000000        0.5677996099        0.2963318911
H                0.5000000000        0.5677989114        0.2036680738
H                0.5000000000        0.4322010586        0.7963319262
H                0.8178009153        0.7499999997        0.9536684529
H                0.1821990547        0.2500000003        0.0463315471
H                0.6822006464        0.2499999996        0.4536677234
H                0.3177993836        0.7500000004        0.5463322766
H                0.6822006464        0.7500000004        0.5463322766
H                0.3177993836        0.2499999996        0.4536677234
H                0.8178009153        0.2500000003        0.0463315471
H                0.1821990547        0.7499999997        0.9536684529
H                0.5000000000        0.9322010891        0.2036680743
H                0.5000000000        0.0677989409        0.7963319257
H                0.0000000000        0.0677996404        0.7036681085
H                0.0000000000        0.9322003896        0.2963318915



     Writing config-only to output data dir ./iceVIII/iceVIII.save/ :
     XML data file
     NEW-OLD atomic charge density approx. for the potential

     total cpu time spent up to now is       31.0 secs

     per-process dynamical memory:    18.7 Mb

     Self-consistent Calculation

     iteration #  1     ecut=    90.00 Ry     beta= 0.70
     Davidson diagonalization with overlap
     ethr =  1.00E-06,  avg # of iterations = 11.8

     total cpu time spent up to now is       37.7 secs

     total energy              =    -278.36208232 Ry
     estimated scf accuracy    <       0.24303868 Ry

     iteration #  2     ecut=    90.00 Ry     beta= 0.70
     Davidson diagonalization with overlap
     ethr =  3.80E-04,  avg # of iterations =  2.6

     total cpu time spent up to now is       39.8 secs

     total energy              =    -278.43626531 Ry
     estimated scf accuracy    <       0.05261904 Ry

     iteration #  3     ecut=    90.00 Ry     beta= 0.70
     Davidson diagonalization with overlap
     ethr =  8.22E-05,  avg # of iterations =  2.0

     total cpu time spent up to now is       41.9 secs

     total energy              =    -278.44138655 Ry
     estimated scf accuracy    <       0.00215196 Ry

     iteration #  4     ecut=    90.00 Ry     beta= 0.70
     Davidson diagonalization with overlap
     ethr =  3.36E-06,  avg # of iterations =  4.1

     total cpu time spent up to now is       44.4 secs

     total energy              =    -278.44230032 Ry
     estimated scf accuracy    <       0.00100417 Ry

     iteration #  5     ecut=    90.00 Ry     beta= 0.70
     Davidson diagonalization with overlap
     ethr =  1.57E-06,  avg # of iterations =  3.0

     total cpu time spent up to now is       46.7 secs

     total energy              =    -278.44261124 Ry
     estimated scf accuracy    <       0.00018886 Ry

     iteration #  6     ecut=    90.00 Ry     beta= 0.70
     Davidson diagonalization with overlap
     ethr =  2.95E-07,  avg # of iterations =  2.0

     total cpu time spent up to now is       48.6 secs

     total energy              =    -278.44264290 Ry
     estimated scf accuracy    <       0.00000261 Ry

     iteration #  7     ecut=    90.00 Ry     beta= 0.70
     Davidson diagonalization with overlap
     ethr =  4.08E-09,  avg # of iterations =  5.0

     total cpu time spent up to now is       51.5 secs

     total energy              =    -278.44264533 Ry
     estimated scf accuracy    <       0.00000176 Ry

     iteration #  8     ecut=    90.00 Ry     beta= 0.70
     Davidson diagonalization with overlap
     ethr =  2.75E-09,  avg # of iterations =  2.0

     total cpu time spent up to now is       53.2 secs

     total energy              =    -278.44264536 Ry
     estimated scf accuracy    <       0.00000026 Ry

     iteration #  9     ecut=    90.00 Ry     beta= 0.70
     Davidson diagonalization with overlap
     ethr =  4.10E-10,  avg # of iterations =  3.0

     total cpu time spent up to now is       55.4 secs

     End of self-consistent calculation

     Number of k-points >= 100: set verbosity='high' to print the bands.

     highest occupied level (ev):     1.3010

!    total energy              =    -278.44264546 Ry
     estimated scf accuracy    <          2.5E-09 Ry

     The total energy is the sum of the following terms:
     one-electron contribution =     -93.00370606 Ry
     hartree contribution      =      78.61724595 Ry
     xc contribution           =     -70.57708211 Ry
     ewald contribution        =    -193.47910323 Ry

     convergence has been achieved in   9 iterations

     Forces acting on atoms (cartesian axes, Ry/au):

     atom    1 type  2   force =     0.00000000   -0.00000001    0.14546666
     atom    2 type  2   force =     0.00000000    0.00000001   -0.14546666
     atom    3 type  2   force =     0.00000000   -0.00000001    0.14546694
     atom    4 type  2   force =     0.00000000    0.00000001   -0.14546694
     atom    5 type  2   force =    -0.00000000    0.00000000    0.14541237
     atom    6 type  2   force =    -0.00000000   -0.00000000   -0.14541237
     atom    7 type  2   force =    -0.00000000    0.00000000    0.14548482
     atom    8 type  2   force =    -0.00000000   -0.00000000   -0.14548482
     atom    9 type  1   force =     0.00000000   -0.03516040   -0.05913658
     atom   10 type  1   force =     0.00000000    0.03516040    0.05913658
     atom   11 type  1   force =     0.00000000    0.03517662   -0.05918047
     atom   12 type  1   force =     0.00000000   -0.03517662    0.05918047
     atom   13 type  1   force =     0.03513982   -0.00000000   -0.05912771
     atom   14 type  1   force =    -0.03513982    0.00000000    0.05912771
     atom   15 type  1   force =    -0.03516861   -0.00000000   -0.05916130
     atom   16 type  1   force =     0.03516861    0.00000000    0.05916130
     atom   17 type  1   force =    -0.03516861    0.00000000    0.05916130
     atom   18 type  1   force =     0.03516861   -0.00000000   -0.05916130
     atom   19 type  1   force =     0.03513982    0.00000000    0.05912771
     atom   20 type  1   force =    -0.03513982   -0.00000000   -0.05912771
     atom   21 type  1   force =     0.00000000   -0.03517661   -0.05918047
     atom   22 type  1   force =     0.00000000    0.03517661    0.05918047
     atom   23 type  1   force =     0.00000000    0.03516041   -0.05913658
     atom   24 type  1   force =     0.00000000   -0.03516041    0.05913658

     Total force =     0.495002     Total SCF correction =     0.000181


     Computing stress (Cartesian axis) and pressure

          total   stress  (Ry/bohr**3)                   (kbar)     P=       16.76
   0.00039361   0.00000000   0.00000000           57.90        0.00        0.00
   0.00000000   0.00039298   0.00000000            0.00       57.81        0.00
   0.00000000   0.00000000  -0.00044482            0.00        0.00      -65.44

     Energy error            =      7.7E-02 Ry
     Gradient error          =      1.5E-01 Ry/Bohr

     number of scf cycles    =   2
     number of bfgs steps    =   1

     energy             old  =    -278.3660973397 Ry
     energy             new  =    -278.4426454557 Ry

     CASE: energy            _new < energy            _old

     new trust radius        =       0.0926973332 bohr
     new conv_thr            =       0.0000001000 Ry


ATOMIC_POSITIONS (crystal)
O                0.0000000000        0.2500000006        0.6002512427
O                0.0000000000        0.7499999994        0.3997487863
O                0.5000000000        0.7500000008        0.1002453522
O                0.5000000000        0.2499999992        0.8997546188
O               -0.0000000000        0.7499999979        0.8502576445
O               -0.0000000000        0.2500000021        0.1497423845
O                0.5000000000        0.2499999986        0.3502490767
O                0.5000000000        0.7500000014        0.6497508943
H                0.0000000000        0.4298012896        0.7005676536
H                0.0000000000        0.5701986804        0.2994323464
H                0.5000000000        0.5701992705        0.2005651671
H                0.5000000000        0.4298006995        0.7994348329
H                0.8201983601        0.7499999996        0.9505685009
H                0.1798016099        0.2500000004        0.0494314991
H                0.6798009213        0.2499999996        0.4505658784
H                0.3201991087        0.7500000004        0.5494341216
H                0.6798009213        0.7500000004        0.5494341216
H                0.3201991087        0.2499999996        0.4505658784
H                0.8201983601        0.2500000004        0.0494314991
H                0.1798016099        0.7499999996        0.9505685009
H                0.5000000000        0.9298007304        0.2005651677
H                0.5000000000        0.0701992996        0.7994348323
H                0.0000000000        0.0701987112        0.7005676530
H                0.0000000000        0.9298013188        0.2994323470



     Writing config-only to output data dir ./iceVIII/iceVIII.save/ :
     XML data file
     NEW-OLD atomic charge density approx. for the potential

     total cpu time spent up to now is       58.4 secs

     per-process dynamical memory:    18.7 Mb

     Self-consistent Calculation

     iteration #  1     ecut=    90.00 Ry     beta= 0.70
     Davidson diagonalization with overlap
     ethr =  1.00E-06,  avg # of iterations =  9.0

     total cpu time spent up to now is       63.6 secs

     total energy              =    -278.54471983 Ry
     estimated scf accuracy    <       0.02674422 Ry

     iteration #  2     ecut=    90.00 Ry     beta= 0.70
     Davidson diagonalization with overlap
     ethr =  4.18E-05,  avg # of iterations =  2.0

     total cpu time spent up to now is       65.7 secs

     total energy              =    -278.55269696 Ry
     estimated scf accuracy    <       0.00509486 Ry

     iteration #  3     ecut=    90.00 Ry     beta= 0.70
     Davidson diagonalization with overlap
     ethr =  7.96E-06,  avg # of iterations =  2.0

     total cpu time spent up to now is       67.5 secs

     total energy              =    -278.55320234 Ry
     estimated scf accuracy    <       0.00021856 Ry

     iteration #  4     ecut=    90.00 Ry     beta= 0.70
     Davidson diagonalization with overlap
     ethr =  3.41E-07,  avg # of iterations =  3.0

     total cpu time spent up to now is       69.7 secs

     total energy              =    -278.55328245 Ry
     estimated scf accuracy    <       0.00006642 Ry

     iteration #  5     ecut=    90.00 Ry     beta= 0.70
     Davidson diagonalization with overlap
     ethr =  1.04E-07,  avg # of iterations =  3.0

     total cpu time spent up to now is       72.0 secs

     total energy              =    -278.55330148 Ry
     estimated scf accuracy    <       0.00001357 Ry

     iteration #  6     ecut=    90.00 Ry     beta= 0.70
     Davidson diagonalization with overlap
     ethr =  2.12E-08,  avg # of iterations =  2.0

     total cpu time spent up to now is       73.9 secs

     total energy              =    -278.55330421 Ry
     estimated scf accuracy    <       0.00000011 Ry

     iteration #  7     ecut=    90.00 Ry     beta= 0.70
     Davidson diagonalization with overlap
     ethr =  1.77E-10,  avg # of iterations =  4.9

     total cpu time spent up to now is       76.8 secs

     total energy              =    -278.55330426 Ry
     estimated scf accuracy    <       0.00000023 Ry

     iteration #  8     ecut=    90.00 Ry     beta= 0.70
     Davidson diagonalization with overlap
     ethr =  1.77E-10,  avg # of iterations =  2.0

     total cpu time spent up to now is       78.7 secs

     End of self-consistent calculation

     Number of k-points >= 100: set verbosity='high' to print the bands.

     highest occupied level (ev):     1.1919

!    total energy              =    -278.55330426 Ry
     estimated scf accuracy    <       0.00000003 Ry

     The total energy is the sum of the following terms:
     one-electron contribution =     -96.55754976 Ry
     hartree contribution      =      80.01378668 Ry
     xc contribution           =     -71.08670976 Ry
     ewald contribution        =    -190.92283141 Ry

     convergence has been achieved in   8 iterations

     Forces acting on atoms (cartesian axes, Ry/au):

     atom    1 type  2   force =     0.00000000   -0.00000000    0.05989481
     atom    2 type  2   force =     0.00000000    0.00000000   -0.05989481
     atom    3 type  2   force =     0.00000000   -0.00000000    0.06006659
     atom    4 type  2   force =     0.00000000    0.00000000   -0.06006659
     atom    5 type  2   force =     0.00000000    0.00000000    0.05998963
     atom    6 type  2   force =     0.00000000   -0.00000000   -0.05998963
     atom    7 type  2   force =     0.00000000    0.00000000    0.05994396
     atom    8 type  2   force =     0.00000000   -0.00000000   -0.05994396
     atom    9 type  1   force =     0.00000000   -0.01248563   -0.02168867
     atom   10 type  1   force =     0.00000000    0.01248563    0.02168867
     atom   11 type  1   force =     0.00000000    0.01249279   -0.02168888
     atom   12 type  1   force =     0.00000000   -0.01249279    0.02168888
     atom   13 type  1   force =     0.01247013   -0.00000000   -0.02165352
     atom   14 type  1   force =    -0.01247013    0.00000000    0.02165352
     atom   15 type  1   force =    -0.01247455   -0.00000000   -0.02169007
     atom   16 type  1   force =     0.01247455    0.00000000    0.02169007
     atom   17 type  1   force =    -0.01247455    0.00000000    0.02169007
     atom   18 type  1   force =     0.01247455   -0.00000000   -0.02169007
     atom   19 type  1   force =     0.01247013    0.00000000    0.02165352
     atom   20 type  1   force =    -0.01247013   -0.00000000   -0.02165352
     atom   21 type  1   force =     0.00000000   -0.01249279   -0.02168888
     atom   22 type  1   force =     0.00000000    0.01249279    0.02168888
     atom   23 type  1   force =     0.00000000    0.01248563   -0.02168867
     atom   24 type  1   force =     0.00000000   -0.01248563    0.02168867

     Total force =     0.196946     Total SCF correction =     0.000208


     Computing stress (Cartesian axis) and pressure

          total   stress  (Ry/bohr**3)                   (kbar)     P=      106.70
   0.00081805   0.00000000   0.00000000          120.34        0.00        0.00
   0.00000000   0.00081765   0.00000000            0.00      120.28        0.00
   0.00000000   0.00000000   0.00054030            0.00        0.00       79.48

     Energy error            =      1.1E-01 Ry
     Gradient error          =      6.0E-02 Ry/Bohr

     number of scf cycles    =   3
     number of bfgs steps    =   2

     energy             old  =    -278.4426454557 Ry
     energy             new  =    -278.5533042578 Ry

     CASE: energy            _new < energy            _old

     new trust radius        =       0.0653027956 bohr
     new conv_thr            =       0.0000000601 Ry


ATOMIC_POSITIONS (crystal)
O                0.0000000000        0.2500000005        0.6056719499
O                0.0000000000        0.7499999995        0.3943280791
O                0.5000000000        0.7500000005        0.1056897288
O                0.5000000000        0.2499999995        0.8943102422
O               -0.0000000000        0.7499999983        0.8556926032
O               -0.0000000000        0.2500000017        0.1443074258
O                0.5000000000        0.2499999989        0.3556762096
O                0.5000000000        0.7500000011        0.6443237614
H                0.0000000000        0.4285305717        0.6987629838
H                0.0000000000        0.5714693983        0.3012370162
H                0.5000000000        0.5714709923        0.1987612435
H                0.5000000000        0.4285289777        0.8012387565
H                0.8214665341        0.7499999995        0.9487685447
H                0.1785334359        0.2500000005        0.0512314553
H                0.6785326294        0.2499999995        0.4487614451
H                0.3214674006        0.7500000005        0.5512385549
H                0.6785326294        0.7500000005        0.5512385549
H                0.3214674006        0.2499999995        0.4487614451
H                0.8214665341        0.2500000005        0.0512314553
H                0.1785334359        0.7499999995        0.9487685447
H                0.5000000000        0.9285290086        0.1987612442
H                0.5000000000        0.0714710214        0.8012387558
H                0.0000000000        0.0714694291        0.6987629832
H                0.0000000000        0.9285306009        0.3012370168



     Writing config-only to output data dir ./iceVIII/iceVIII.save/ :
     XML data file
     NEW-OLD atomic charge density approx. for the potential

     total cpu time spent up to now is       80.3 secs

     per-process dynamical memory:    19.1 Mb

     Self-consistent Calculation

     iteration #  1     ecut=    90.00 Ry     beta= 0.70
     Davidson diagonalization with overlap
     ethr =  1.00E-06,  avg # of iterations =  8.6

     total cpu time spent up to now is       85.2 secs

     total energy              =    -278.56431020 Ry
     estimated scf accuracy    <       0.01379085 Ry

     iteration #  2     ecut=    90.00 Ry     beta= 0.70
     Davidson diagonalization with overlap
     ethr =  2.15E-05,  avg # of iterations =  2.0

     total cpu time spent up to now is       87.2 secs

     total energy              =    -278.56844442 Ry
     estimated scf accuracy    <       0.00256266 Ry

     iteration #  3     ecut=    90.00 Ry     beta= 0.70
     Davidson diagonalization with overlap
     ethr =  4.00E-06,  avg # of iterations =  2.0

     total cpu time spent up to now is       89.1 secs

     total energy              =    -278.56870855 Ry
     estimated scf accuracy    <       0.00010542 Ry

     iteration #  4     ecut=    90.00 Ry     beta= 0.70
     Davidson diagonalization with overlap
     ethr =  1.65E-07,  avg # of iterations =  3.0

     total cpu time spent up to now is       91.3 secs

     total energy              =    -278.56874742 Ry
     estimated scf accuracy    <       0.00002894 Ry

     iteration #  5     ecut=    90.00 Ry     beta= 0.70
     Davidson diagonalization with overlap
     ethr =  4.52E-08,  avg # of iterations =  3.0

     total cpu time spent up to now is       93.6 secs

     total energy              =    -278.56875542 Ry
     estimated scf accuracy    <       0.00000702 Ry

     iteration #  6     ecut=    90.00 Ry     beta= 0.70
     Davidson diagonalization with overlap
     ethr =  1.10E-08,  avg # of iterations =  2.0

     total cpu time spent up to now is       95.6 secs

     total energy              =    -278.56875693 Ry
     estimated scf accuracy    <       0.00000006 Ry

     iteration #  7     ecut=    90.00 Ry     beta= 0.70
     Davidson diagonalization with overlap
     ethr =  1.00E-10,  avg # of iterations =  4.3

     total cpu time spent up to now is       98.2 secs

     total energy              =    -278.56875696 Ry
     estimated scf accuracy    <       0.00000012 Ry

     iteration #  8     ecut=    90.00 Ry     beta= 0.70
     Davidson diagonalization with overlap
     ethr =  1.00E-10,  avg # of iterations =  2.0

     total cpu time spent up to now is      100.0 secs

     End of self-consistent calculation

     Number of k-points >= 100: set verbosity='high' to print the bands.

     highest occupied level (ev):     1.1415

!    total energy              =    -278.56875695 Ry
     estimated scf accuracy    <       0.00000002 Ry

     The total energy is the sum of the following terms:
     one-electron contribution =     -99.26767299 Ry
     hartree contribution      =      81.11776680 Ry
     xc contribution           =     -71.44351608 Ry
     ewald contribution        =    -188.97533468 Ry

     convergence has been achieved in   8 iterations

     Forces acting on atoms (cartesian axes, Ry/au):

     atom    1 type  2   force =     0.00000000    0.00000000   -0.01087234
     atom    2 type  2   force =     0.00000000   -0.00000000    0.01087234
     atom    3 type  2   force =    -0.00000000    0.00000000   -0.01104970
     atom    4 type  2   force =    -0.00000000   -0.00000000    0.01104970
     atom    5 type  2   force =    -0.00000000    0.00000000   -0.01093417
     atom    6 type  2   force =    -0.00000000   -0.00000000    0.01093417
     atom    7 type  2   force =     0.00000000    0.00000000   -0.01086969
     atom    8 type  2   force =     0.00000000   -0.00000000    0.01086969
     atom    9 type  1   force =     0.00000000    0.01320717    0.01039081
     atom   10 type  1   force =     0.00000000   -0.01320717   -0.01039081
     atom   11 type  1   force =     0.00000000   -0.01329567    0.01050016
     atom   12 type  1   force =     0.00000000    0.01329567   -0.01050016
     atom   13 type  1   force =    -0.01325224   -0.00000000    0.01046348
     atom   14 type  1   force =     0.01325224    0.00000000   -0.01046348
     atom   15 type  1   force =     0.01323354    0.00000000    0.01041334
     atom   16 type  1   force =    -0.01323354   -0.00000000   -0.01041334
     atom   17 type  1   force =     0.01323354   -0.00000000   -0.01041334
     atom   18 type  1   force =    -0.01323354    0.00000000    0.01041334
     atom   19 type  1   force =    -0.01325224    0.00000000   -0.01046348
     atom   20 type  1   force =     0.01325224   -0.00000000    0.01046348
     atom   21 type  1   force =     0.00000000    0.01329567    0.01050015
     atom   22 type  1   force =     0.00000000   -0.01329567   -0.01050015
     atom   23 type  1   force =     0.00000000   -0.01320717    0.01039081
     atom   24 type  1   force =     0.00000000    0.01320717   -0.01039081

     Total force =     0.074219     Total SCF correction =     0.000158


     Computing stress (Cartesian axis) and pressure

          total   stress  (Ry/bohr**3)                   (kbar)     P=      180.45
   0.00122322   0.00000000   0.00000000          179.94        0.00        0.00
   0.00000000   0.00122328  -0.00000000            0.00      179.95       -0.00
   0.00000000  -0.00000000   0.00123355            0.00       -0.00      181.46

     Energy error            =      1.5E-02 Ry
     Gradient error          =      1.3E-02 Ry/Bohr

     number of scf cycles    =   4
     number of bfgs steps    =   3

     energy             old  =    -278.5533042578 Ry
     energy             new  =    -278.5687569455 Ry

     CASE: energy            _new < energy            _old

     new trust radius        =       0.0122600882 bohr
     new conv_thr            =       0.0000000133 Ry


ATOMIC_POSITIONS (crystal)
O                0.0000000000        0.2500000005        0.6051178681
O                0.0000000000        0.7499999995        0.3948821609
O                0.5000000000        0.7500000006        0.1051226541
O                0.5000000000        0.2499999994        0.8948773169
O               -0.0000000000        0.7499999985        0.8551334591
O               -0.0000000000        0.2500000015        0.1448665699
O                0.5000000000        0.2499999990        0.3551219641
O                0.5000000000        0.7500000010        0.6448780069
H                0.0000000000        0.4297146576        0.6993571026
H                0.0000000000        0.5702853124        0.3006428974
H                0.5000000000        0.5702786318        0.1993622636
H                0.5000000000        0.4297213382        0.8006377364
H                0.8202782733        0.7499999995        0.9493671328
H                0.1797216967        0.2500000005        0.0506328672
H                0.6797189969        0.2499999995        0.4493569227
H                0.3202810331        0.7500000005        0.5506430773
H                0.6797189969        0.7500000005        0.5506430773
H                0.3202810331        0.2499999995        0.4493569227
H                0.8202782733        0.2500000005        0.0506328672
H                0.1797216967        0.7499999995        0.9493671328
H                0.5000000000        0.9297213690        0.1993622642
H                0.5000000000        0.0702786610        0.8006377358
H                0.0000000000        0.0702853431        0.6993571021
H                0.0000000000        0.9297146869        0.3006428979



     Writing config-only to output data dir ./iceVIII/iceVIII.save/ :
     XML data file
     NEW-OLD atomic charge density approx. for the potential

     total cpu time spent up to now is      101.8 secs

     per-process dynamical memory:    19.4 Mb

     Self-consistent Calculation

     iteration #  1     ecut=    90.00 Ry     beta= 0.70
     Davidson diagonalization with overlap
     ethr =  1.00E-06,  avg # of iterations =  3.4

     total cpu time spent up to now is      104.4 secs

     total energy              =    -278.57077890 Ry
     estimated scf accuracy    <       0.00060941 Ry

     iteration #  2     ecut=    90.00 Ry     beta= 0.70
     Davidson diagonalization with overlap
     ethr =  9.52E-07,  avg # of iterations =  3.0

     total cpu time spent up to now is      106.6 secs

     total energy              =    -278.57097464 Ry
     estimated scf accuracy    <       0.00015333 Ry

     iteration #  3     ecut=    90.00 Ry     beta= 0.70
     Davidson diagonalization with overlap
     ethr =  2.40E-07,  avg # of iterations =  2.0

     total cpu time spent up to now is      108.3 secs

     total energy              =    -278.57098778 Ry
     estimated scf accuracy    <       0.00000682 Ry

     iteration #  4     ecut=    90.00 Ry     beta= 0.70
     Davidson diagonalization with overlap
     ethr =  1.07E-08,  avg # of iterations =  4.2

     total cpu time spent up to now is      110.8 secs

     total energy              =    -278.57099112 Ry
     estimated scf accuracy    <       0.00000598 Ry

     iteration #  5     ecut=    90.00 Ry     beta= 0.70
     Davidson diagonalization with overlap
     ethr =  9.34E-09,  avg # of iterations =  2.0

     total cpu time spent up to now is      112.8 secs

     total energy              =    -278.57099245 Ry
     estimated scf accuracy    <       0.00000003 Ry

     iteration #  6     ecut=    90.00 Ry     beta= 0.70
     Davidson diagonalization with overlap
     ethr =  4.82E-11,  avg # of iterations =  5.9

     total cpu time spent up to now is      116.3 secs

     total energy              =    -278.57099251 Ry
     estimated scf accuracy    <       0.00000020 Ry

     iteration #  7     ecut=    90.00 Ry     beta= 0.70
     Davidson diagonalization with overlap
     ethr =  4.82E-11,  avg # of iterations =  3.2

     total cpu time spent up to now is      118.9 secs

     total energy              =    -278.57099252 Ry
     estimated scf accuracy    <       0.00000001 Ry

     iteration #  8     ecut=    90.00 Ry     beta= 0.70
     Davidson diagonalization with overlap
     ethr =  2.14E-11,  avg # of iterations =  3.0

     total cpu time spent up to now is      121.3 secs

     End of self-consistent calculation

     Number of k-points >= 100: set verbosity='high' to print the bands.

     highest occupied level (ev):     1.1603

!    total energy              =    -278.57099252 Ry
     estimated scf accuracy    <       0.00000001 Ry

     The total energy is the sum of the following terms:
     one-electron contribution =     -98.40916784 Ry
     hartree contribution      =      80.75579062 Ry
     xc contribution           =     -71.34546648 Ry
     ewald contribution        =    -189.57214882 Ry

     convergence has been achieved in   8 iterations

     Forces acting on atoms (cartesian axes, Ry/au):

     atom    1 type  2   force =     0.00000000   -0.00000000    0.00500341
     atom    2 type  2   force =     0.00000000    0.00000000   -0.00500341
     atom    3 type  2   force =    -0.00000000   -0.00000000    0.00510076
     atom    4 type  2   force =    -0.00000000    0.00000000   -0.00510076
     atom    5 type  2   force =     0.00000000    0.00000000    0.00506105
     atom    6 type  2   force =     0.00000000   -0.00000000   -0.00506105
     atom    7 type  2   force =    -0.00000000    0.00000000    0.00505567
     atom    8 type  2   force =    -0.00000000   -0.00000000   -0.00505567
     atom    9 type  1   force =     0.00000000    0.00366195    0.00287344
     atom   10 type  1   force =     0.00000000   -0.00366195   -0.00287344
     atom   11 type  1   force =     0.00000000   -0.00362712    0.00286637
     atom   12 type  1   force =     0.00000000    0.00362712   -0.00286637
     atom   13 type  1   force =    -0.00364784   -0.00000000    0.00288956
     atom   14 type  1   force =     0.00364784    0.00000000   -0.00288956
     atom   15 type  1   force =     0.00367022    0.00000000    0.00287983
     atom   16 type  1   force =    -0.00367022   -0.00000000   -0.00287983
     atom   17 type  1   force =     0.00367022   -0.00000000   -0.00287983
     atom   18 type  1   force =    -0.00367022    0.00000000    0.00287983
     atom   19 type  1   force =    -0.00364784    0.00000000   -0.00288956
     atom   20 type  1   force =     0.00364784   -0.00000000    0.00288956
     atom   21 type  1   force =     0.00000000    0.00362712    0.00286637
     atom   22 type  1   force =     0.00000000   -0.00362712   -0.00286637
     atom   23 type  1   force =     0.00000000   -0.00366195    0.00287344
     atom   24 type  1   force =     0.00000000    0.00366195   -0.00287344

     Total force =     0.023458     Total SCF correction =     0.000167


     Computing stress (Cartesian axis) and pressure

          total   stress  (Ry/bohr**3)                   (kbar)     P=      157.31
   0.00107510   0.00000000   0.00000000          158.15        0.00        0.00
   0.00000000   0.00107479  -0.00000000            0.00      158.11       -0.00
   0.00000000  -0.00000000   0.00105828            0.00       -0.00      155.68

     Energy error            =      2.2E-03 Ry
     Gradient error          =      5.1E-03 Ry/Bohr

     number of scf cycles    =   5
     number of bfgs steps    =   4

     energy             old  =    -278.5687569455 Ry
     energy             new  =    -278.5709925215 Ry

     CASE: energy            _new < energy            _old

     new trust radius        =       0.0078277986 bohr
     new conv_thr            =       0.0000000051 Ry


ATOMIC_POSITIONS (crystal)
O                0.0000000000        0.2500000004        0.6056906689
O                0.0000000000        0.7499999996        0.3943093601
O                0.5000000000        0.7500000005        0.1057030253
O                0.5000000000        0.2499999995        0.8942969457
O               -0.0000000000        0.7499999988        0.8557113426
O               -0.0000000000        0.2500000012        0.1442886864
O                0.5000000000        0.2499999992        0.3557001396
O                0.5000000000        0.7500000008        0.6442998314
H                0.0000000000        0.4305003542        0.6997136348
H                0.0000000000        0.5694996158        0.3002863652
H                0.5000000000        0.5694961734        0.1997196001
H                0.5000000000        0.4305037966        0.8002803999
H                0.8194935985        0.7499999995        0.9497264054
H                0.1805063715        0.2500000005        0.0502735946
H                0.6805064524        0.2499999996        0.4497143809
H                0.3194935776        0.7500000004        0.5502856191
H                0.6805064524        0.7500000004        0.5502856191
H                0.3194935776        0.2499999996        0.4497143809
H                0.8194935985        0.2500000005        0.0502735946
H                0.1805063715        0.7499999995        0.9497264054
H                0.5000000000        0.9305038273        0.1997196006
H                0.5000000000        0.0694962027        0.8002803994
H                0.0000000000        0.0694996464        0.6997136344
H                0.0000000000        0.9305003836        0.3002863656



     Writing config-only to output data dir ./iceVIII/iceVIII.save/ :
     XML data file
     NEW-OLD atomic charge density approx. for the potential

     total cpu time spent up to now is      122.9 secs

     per-process dynamical memory:    18.7 Mb

     Self-consistent Calculation

     iteration #  1     ecut=    90.00 Ry     beta= 0.70
     Davidson diagonalization with overlap
     ethr =  1.00E-06,  avg # of iterations =  3.2

     Threshold (ethr) on eigenvalues was too large:
     Diagonalizing with lowered threshold

     Davidson diagonalization with overlap
     ethr =  7.61E-08,  avg # of iterations =  3.5

     total cpu time spent up to now is      127.5 secs

     total energy              =    -278.57167719 Ry
     estimated scf accuracy    <       0.00006404 Ry

     iteration #  2     ecut=    90.00 Ry     beta= 0.70
     Davidson diagonalization with overlap
     ethr =  1.00E-07,  avg # of iterations =  2.0

     total cpu time spent up to now is      129.4 secs

     total energy              =    -278.57168880 Ry
     estimated scf accuracy    <       0.00000584 Ry

     iteration #  3     ecut=    90.00 Ry     beta= 0.70
     Davidson diagonalization with overlap
     ethr =  9.12E-09,  avg # of iterations =  2.0

     total cpu time spent up to now is      131.4 secs

     total energy              =    -278.57169006 Ry
     estimated scf accuracy    <       0.00000048 Ry

     iteration #  4     ecut=    90.00 Ry     beta= 0.70
     Davidson diagonalization with overlap
     ethr =  7.51E-10,  avg # of iterations =  2.0

     total cpu time spent up to now is      133.0 secs

     total energy              =    -278.57169010 Ry
     estimated scf accuracy    <       0.00000003 Ry

     iteration #  5     ecut=    90.00 Ry     beta= 0.70
     Davidson diagonalization with overlap
     ethr =  4.51E-11,  avg # of iterations =  3.1

     total cpu time spent up to now is      135.1 secs

     End of self-consistent calculation

     Number of k-points >= 100: set verbosity='high' to print the bands.

     highest occupied level (ev):     1.1689

!    total energy              =    -278.57169011 Ry
     estimated scf accuracy    <          2.5E-09 Ry

     The total energy is the sum of the following terms:
     one-electron contribution =     -98.14018803 Ry
     hartree contribution      =      80.63869147 Ry
     xc contribution           =     -71.32391715 Ry
     ewald contribution        =    -189.74627640 Ry

     convergence has been achieved in   5 iterations

     Forces acting on atoms (cartesian axes, Ry/au):

     atom    1 type  2   force =    -0.00000000   -0.00000000    0.00581881
     atom    2 type  2   force =    -0.00000000    0.00000000   -0.00581881
     atom    3 type  2   force =     0.00000000    0.00000000    0.00580143
     atom    4 type  2   force =     0.00000000   -0.00000000   -0.00580143
     atom    5 type  2   force =     0.00000000    0.00000000    0.00583372
     atom    6 type  2   force =     0.00000000   -0.00000000   -0.00583372
     atom    7 type  2   force =     0.00000000    0.00000000    0.00580733
     atom    8 type  2   force =     0.00000000   -0.00000000   -0.00580733
     atom    9 type  1   force =     0.00000000    0.00060146    0.00217985
     atom   10 type  1   force =     0.00000000   -0.00060146   -0.00217985
     atom   11 type  1   force =     0.00000000   -0.00060642    0.00221068
     atom   12 type  1   force =     0.00000000    0.00060642   -0.00221068
     atom   13 type  1   force =    -0.00060098    0.00000000    0.00220557
     atom   14 type  1   force =     0.00060098   -0.00000000   -0.00220557
     atom   15 type  1   force =     0.00061545    0.00000000    0.00220197
     atom   16 type  1   force =    -0.00061545   -0.00000000   -0.00220197
     atom   17 type  1   force =     0.00061545   -0.00000000   -0.00220197
     atom   18 type  1   force =    -0.00061545    0.00000000    0.00220197
     atom   19 type  1   force =    -0.00060098   -0.00000000   -0.00220557
     atom   20 type  1   force =     0.00060098    0.00000000    0.00220557
     atom   21 type  1   force =     0.00000000    0.00060642    0.00221068
     atom   22 type  1   force =     0.00000000   -0.00060642   -0.00221068
     atom   23 type  1   force =     0.00000000   -0.00060146    0.00217985
     atom   24 type  1   force =     0.00000000    0.00060146   -0.00217985

     Total force =     0.018810     Total SCF correction =     0.000014


     Computing stress (Cartesian axis) and pressure

          total   stress  (Ry/bohr**3)                   (kbar)     P=      151.78
   0.00103181   0.00000000   0.00000000          151.78        0.00        0.00
   0.00000000   0.00103169  -0.00000000            0.00      151.77       -0.00
   0.00000000  -0.00000000   0.00103178            0.00       -0.00      151.78

     Energy error            =      7.0E-04 Ry
     Gradient error          =      5.8E-03 Ry/Bohr

     number of scf cycles    =   6
     number of bfgs steps    =   5

     energy             old  =    -278.5709925215 Ry
     energy             new  =    -278.5716901106 Ry

     CASE: energy            _new < energy            _old

     new trust radius        =       0.0086105785 bohr
     new conv_thr            =       0.0000000058 Ry


ATOMIC_POSITIONS (crystal)
O               -0.0000000000        0.2500000003        0.6064062642
O               -0.0000000000        0.7499999997        0.3935937648
O                0.5000000000        0.7500000005        0.1064171066
O                0.5000000000        0.2499999995        0.8935828644
O               -0.0000000000        0.7499999990        0.8564292174
O               -0.0000000000        0.2500000010        0.1435708116
O                0.5000000000        0.2499999993        0.3564163379
O                0.5000000000        0.7500000007        0.6435836331
H                0.0000000000        0.4310642869        0.7001183602
H                0.0000000000        0.5689356831        0.2998816398
H                0.5000000000        0.5689307336        0.2001289991
H                0.5000000000        0.4310692364        0.7998710009
H                0.8189290514        0.7499999995        0.9501354691
H                0.1810709186        0.2500000005        0.0498645309
H                0.6810733765        0.2499999996        0.4501217773
H                0.3189266535        0.7500000004        0.5498782227
H                0.6810733765        0.7500000004        0.5498782227
H                0.3189266535        0.2499999996        0.4501217773
H                0.8189290514        0.2500000005        0.0498645309
H                0.1810709186        0.7499999995        0.9501354691
H                0.5000000000        0.9310692670        0.2001289995
H                0.5000000000        0.0689307630        0.7998710005
H                0.0000000000        0.0689357136        0.7001183598
H                0.0000000000        0.9310643164        0.2998816402



     Writing config-only to output data dir ./iceVIII/iceVIII.save/ :
     XML data file
     NEW-OLD atomic charge density approx. for the potential

     total cpu time spent up to now is      136.8 secs

     per-process dynamical memory:    18.9 Mb

     Self-consistent Calculation

     iteration #  1     ecut=    90.00 Ry     beta= 0.70
     Davidson diagonalization with overlap
     ethr =  1.00E-06,  avg # of iterations =  4.0

     total cpu time spent up to now is      139.6 secs

     total energy              =    -278.57219645 Ry
     estimated scf accuracy    <       0.00006401 Ry

     iteration #  2     ecut=    90.00 Ry     beta= 0.70
     Davidson diagonalization with overlap
     ethr =  1.00E-07,  avg # of iterations =  2.2

     total cpu time spent up to now is      141.5 secs

     total energy              =    -278.57221086 Ry
     estimated scf accuracy    <       0.00000369 Ry

     iteration #  3     ecut=    90.00 Ry     beta= 0.70
     Davidson diagonalization with overlap
     ethr =  5.76E-09,  avg # of iterations =  3.7

     total cpu time spent up to now is      143.7 secs

     total energy              =    -278.57221207 Ry
     estimated scf accuracy    <       0.00000041 Ry

     iteration #  4     ecut=    90.00 Ry     beta= 0.70
     Davidson diagonalization with overlap
     ethr =  6.35E-10,  avg # of iterations =  3.0

     total cpu time spent up to now is      145.9 secs

     total energy              =    -278.57221217 Ry
     estimated scf accuracy    <       0.00000010 Ry

     iteration #  5     ecut=    90.00 Ry     beta= 0.70
     Davidson diagonalization with overlap
     ethr =  1.54E-10,  avg # of iterations =  2.2

     total cpu time spent up to now is      147.8 secs

     End of self-consistent calculation

     Number of k-points >= 100: set verbosity='high' to print the bands.

     highest occupied level (ev):     1.1759

!    total energy              =    -278.57221218 Ry
     estimated scf accuracy    <          4.2E-09 Ry

     The total energy is the sum of the following terms:
     one-electron contribution =     -97.96675978 Ry
     hartree contribution      =      80.55897366 Ry
     xc contribution           =     -71.31401532 Ry
     ewald contribution        =    -189.85041075 Ry

     convergence has been achieved in   5 iterations

     Forces acting on atoms (cartesian axes, Ry/au):

     atom    1 type  2   force =    -0.00000000   -0.00000000    0.00471826
     atom    2 type  2   force =    -0.00000000    0.00000000   -0.00471826
     atom    3 type  2   force =    -0.00000000   -0.00000000    0.00473119
     atom    4 type  2   force =    -0.00000000    0.00000000   -0.00473119
     atom    5 type  2   force =     0.00000000    0.00000000    0.00474296
     atom    6 type  2   force =     0.00000000   -0.00000000   -0.00474296
     atom    7 type  2   force =     0.00000000    0.00000000    0.00470912
     atom    8 type  2   force =     0.00000000   -0.00000000   -0.00470912
     atom    9 type  1   force =     0.00000000   -0.00107203    0.00232863
     atom   10 type  1   force =     0.00000000    0.00107203   -0.00232863
     atom   11 type  1   force =     0.00000000    0.00109810    0.00232539
     atom   12 type  1   force =     0.00000000   -0.00109810   -0.00232539
     atom   13 type  1   force =     0.00108282    0.00000000    0.00233944
     atom   14 type  1   force =    -0.00108282   -0.00000000   -0.00233944
     atom   15 type  1   force =    -0.00108152    0.00000000    0.00233347
     atom   16 type  1   force =     0.00108152   -0.00000000   -0.00233347
     atom   17 type  1   force =    -0.00108152   -0.00000000   -0.00233347
     atom   18 type  1   force =     0.00108152    0.00000000    0.00233347
     atom   19 type  1   force =     0.00108282   -0.00000000   -0.00233944
     atom   20 type  1   force =    -0.00108282    0.00000000    0.00233944
     atom   21 type  1   force =     0.00000000   -0.00109810    0.00232539
     atom   22 type  1   force =     0.00000000    0.00109810   -0.00232539
     atom   23 type  1   force =     0.00000000    0.00107203    0.00232863
     atom   24 type  1   force =     0.00000000   -0.00107203   -0.00232863

     Total force =     0.016865     Total SCF correction =     0.000278


     Computing stress (Cartesian axis) and pressure

          total   stress  (Ry/bohr**3)                   (kbar)     P=      148.59
   0.00100440   0.00000000   0.00000000          147.75        0.00        0.00
   0.00000000   0.00100430  -0.00000000            0.00      147.74       -0.00
   0.00000000  -0.00000000   0.00102156            0.00       -0.00      150.28

     Energy error            =      5.2E-04 Ry
     Gradient error          =      4.7E-03 Ry/Bohr

     number of scf cycles    =   7
     number of bfgs steps    =   6

     energy             old  =    -278.5716901106 Ry
     energy             new  =    -278.5722121841 Ry

     CASE: energy            _new < energy            _old

     new trust radius        =       0.0129158677 bohr
     new conv_thr            =       0.0000000047 Ry


ATOMIC_POSITIONS (crystal)
O               -0.0000000000        0.2500000002        0.6074772320
O               -0.0000000000        0.7499999998        0.3925227970
O                0.5000000000        0.7500000002        0.1074909880
O                0.5000000000        0.2499999998        0.8925089830
O               -0.0000000000        0.7499999995        0.8575060297
O               -0.0000000000        0.2500000005        0.1424939993
O                0.5000000000        0.2499999996        0.3574889583
O                0.5000000000        0.7500000004        0.6425110127
H                0.0000000000        0.4316443152        0.7008368386
H                0.0000000000        0.5683556548        0.2991631614
H                0.5000000000        0.5683553095        0.2008501929
H                0.5000000000        0.4316446605        0.7991498071
H                0.8183505177        0.7499999995        0.9508590489
H                0.1816494523        0.2500000005        0.0491409511
H                0.6816536606        0.2499999996        0.4508423594
H                0.3183463694        0.7500000004        0.5491576406
H                0.6816536606        0.7500000004        0.5491576406
H                0.3183463694        0.2499999996        0.4508423594
H                0.8183505177        0.2500000005        0.0491409511
H                0.1816494523        0.7499999995        0.9508590489
H                0.5000000000        0.9316446910        0.2008501932
H                0.5000000000        0.0683553390        0.7991498068
H                0.0000000000        0.0683556850        0.7008368384
H                0.0000000000        0.9316443450        0.2991631616



     Writing config-only to output data dir ./iceVIII/iceVIII.save/ :
     XML data file
     NEW-OLD atomic charge density approx. for the potential

     total cpu time spent up to now is      149.4 secs

     per-process dynamical memory:    18.9 Mb

     Self-consistent Calculation

     iteration #  1     ecut=    90.00 Ry     beta= 0.70
     Davidson diagonalization with overlap
     ethr =  1.00E-06,  avg # of iterations =  4.2

     total cpu time spent up to now is      152.5 secs

     total energy              =    -278.57277319 Ry
     estimated scf accuracy    <       0.00015521 Ry

     iteration #  2     ecut=    90.00 Ry     beta= 0.70
     Davidson diagonalization with overlap
     ethr =  2.43E-07,  avg # of iterations =  2.0

     total cpu time spent up to now is      154.4 secs

     total energy              =    -278.57280098 Ry
     estimated scf accuracy    <       0.00000736 Ry

     iteration #  3     ecut=    90.00 Ry     beta= 0.70
     Davidson diagonalization with overlap
     ethr =  1.15E-08,  avg # of iterations =  3.5

     total cpu time spent up to now is      156.6 secs

     total energy              =    -278.57280299 Ry
     estimated scf accuracy    <       0.00000077 Ry

     iteration #  4     ecut=    90.00 Ry     beta= 0.70
     Davidson diagonalization with overlap
     ethr =  1.20E-09,  avg # of iterations =  2.7

     total cpu time spent up to now is      158.7 secs

     total energy              =    -278.57280314 Ry
     estimated scf accuracy    <       0.00000009 Ry

     iteration #  5     ecut=    90.00 Ry     beta= 0.70
     Davidson diagonalization with overlap
     ethr =  1.39E-10,  avg # of iterations =  2.5

     total cpu time spent up to now is      160.8 secs

     End of self-consistent calculation

     Number of k-points >= 100: set verbosity='high' to print the bands.

     highest occupied level (ev):     1.1850

!    total energy              =    -278.57280316 Ry
     estimated scf accuracy    <          3.6E-09 Ry

     The total energy is the sum of the following terms:
     one-electron contribution =     -97.76189368 Ry
     hartree contribution      =      80.46360968 Ry
     xc contribution           =     -71.30535153 Ry
     ewald contribution        =    -189.96916762 Ry

     convergence has been achieved in   5 iterations

     Forces acting on atoms (cartesian axes, Ry/au):

     atom    1 type  2   force =     0.00000000   -0.00000000    0.00293889
     atom    2 type  2   force =     0.00000000    0.00000000   -0.00293889
     atom    3 type  2   force =     0.00000000    0.00000000    0.00288343
     atom    4 type  2   force =     0.00000000   -0.00000000   -0.00288343
     atom    5 type  2   force =    -0.00000000    0.00000000    0.00293774
     atom    6 type  2   force =    -0.00000000   -0.00000000   -0.00293774
     atom    7 type  2   force =     0.00000000    0.00000000    0.00288880
     atom    8 type  2   force =     0.00000000   -0.00000000   -0.00288880
     atom    9 type  1   force =     0.00000000   -0.00264457    0.00256684
     atom   10 type  1   force =     0.00000000    0.00264457   -0.00256684
     atom   11 type  1   force =     0.00000000    0.00264722    0.00257391
     atom   12 type  1   force =     0.00000000   -0.00264722   -0.00257391
     atom   13 type  1   force =     0.00264633    0.00000000    0.00257766
     atom   14 type  1   force =    -0.00264633   -0.00000000   -0.00257766
     atom   15 type  1   force =    -0.00265813    0.00000000    0.00257024
     atom   16 type  1   force =     0.00265813   -0.00000000   -0.00257024
     atom   17 type  1   force =    -0.00265813   -0.00000000   -0.00257024
     atom   18 type  1   force =     0.00265813    0.00000000    0.00257024
     atom   19 type  1   force =     0.00264633   -0.00000000   -0.00257766
     atom   20 type  1   force =    -0.00264633    0.00000000    0.00257766
     atom   21 type  1   force =     0.00000000   -0.00264722    0.00257391
     atom   22 type  1   force =     0.00000000    0.00264722   -0.00257391
     atom   23 type  1   force =     0.00000000    0.00264457    0.00256684
     atom   24 type  1   force =     0.00000000   -0.00264457   -0.00256684

     Total force =     0.016911     Total SCF correction =     0.000241


     Computing stress (Cartesian axis) and pressure

          total   stress  (Ry/bohr**3)                   (kbar)     P=      145.77
   0.00097909   0.00000000   0.00000000          144.03        0.00        0.00
   0.00000000   0.00097910  -0.00000000            0.00      144.03       -0.00
   0.00000000  -0.00000000   0.00101458            0.00       -0.00      149.25

     Energy error            =      5.9E-04 Ry
     Gradient error          =      2.9E-03 Ry/Bohr

     number of scf cycles    =   8
     number of bfgs steps    =   7

     energy             old  =    -278.5722121841 Ry
     energy             new  =    -278.5728031561 Ry

     CASE: energy            _new < energy            _old

     new trust radius        =       0.0193738016 bohr
     new conv_thr            =       0.0000000029 Ry


ATOMIC_POSITIONS (crystal)
O               -0.0000000000        0.2500000000        0.6090857688
O               -0.0000000000        0.7500000000        0.3909142602
O                0.5000000000        0.7500000002        0.1090949898
O                0.5000000000        0.2499999998        0.8909049812
O               -0.0000000000        0.7500000001        0.8591212480
O               -0.0000000000        0.2499999999        0.1408787810
O                0.5000000000        0.2500000000        0.3590938827
O                0.5000000000        0.7500000000        0.6409060883
H                0.0000000000        0.4321821159        0.7021171096
H                0.0000000000        0.5678178541        0.2978828904
H                0.5000000000        0.5678212486        0.2021361971
H                0.5000000000        0.4321787214        0.7978638029
H                0.8178138672        0.7499999996        0.9521478469
H                0.1821861028        0.2500000004        0.0478521531
H                0.6821908167        0.2499999997        0.4521260628
H                0.3178092133        0.7500000003        0.5478739372
H                0.6821908167        0.7500000003        0.5478739372
H                0.3178092133        0.2499999997        0.4521260628
H                0.8178138672        0.2500000004        0.0478521531
H                0.1821861028        0.7499999996        0.9521478469
H                0.5000000000        0.9321787515        0.2021361971
H                0.5000000000        0.0678212785        0.7978638029
H                0.0000000000        0.0678178840        0.7021171096
H                0.0000000000        0.9321821460        0.2978828904



     Writing config-only to output data dir ./iceVIII/iceVIII.save/ :
     XML data file
     NEW-OLD atomic charge density approx. for the potential

     total cpu time spent up to now is      162.4 secs

     per-process dynamical memory:    18.9 Mb

     Self-consistent Calculation

     iteration #  1     ecut=    90.00 Ry     beta= 0.70
     Davidson diagonalization with overlap
     ethr =  1.00E-06,  avg # of iterations =  5.0

     total cpu time spent up to now is      165.9 secs

     total energy              =    -278.57342390 Ry
     estimated scf accuracy    <       0.00037890 Ry

     iteration #  2     ecut=    90.00 Ry     beta= 0.70
     Davidson diagonalization with overlap
     ethr =  5.92E-07,  avg # of iterations =  2.0

     total cpu time spent up to now is      167.7 secs

     total energy              =    -278.57348299 Ry
     estimated scf accuracy    <       0.00001725 Ry

     iteration #  3     ecut=    90.00 Ry     beta= 0.70
     Davidson diagonalization with overlap
     ethr =  2.70E-08,  avg # of iterations =  3.0

     total cpu time spent up to now is      169.7 secs

     total energy              =    -278.57348679 Ry
     estimated scf accuracy    <       0.00000176 Ry

     iteration #  4     ecut=    90.00 Ry     beta= 0.70
     Davidson diagonalization with overlap
     ethr =  2.75E-09,  avg # of iterations =  2.6

     total cpu time spent up to now is      171.9 secs

     total energy              =    -278.57348715 Ry
     estimated scf accuracy    <       0.00000028 Ry

     iteration #  5     ecut=    90.00 Ry     beta= 0.70
     Davidson diagonalization with overlap
     ethr =  4.44E-10,  avg # of iterations =  2.1

     total cpu time spent up to now is      173.8 secs

     total energy              =    -278.57348719 Ry
     estimated scf accuracy    <          9.2E-09 Ry

     iteration #  6     ecut=    90.00 Ry     beta= 0.70
     Davidson diagonalization with overlap
     ethr =  1.43E-11,  avg # of iterations =  4.6

     total cpu time spent up to now is      176.5 secs

     total energy              =    -278.57348720 Ry
     estimated scf accuracy    <          5.5E-09 Ry

     iteration #  7     ecut=    90.00 Ry     beta= 0.70
     Davidson diagonalization with overlap
     ethr =  8.67E-12,  avg # of iterations =  2.0

     total cpu time spent up to now is      178.4 secs

     End of self-consistent calculation

     Number of k-points >= 100: set verbosity='high' to print the bands.

     highest occupied level (ev):     1.1976

!    total energy              =    -278.57348720 Ry
     estimated scf accuracy    <          3.2E-10 Ry

     The total energy is the sum of the following terms:
     one-electron contribution =     -97.50187511 Ry
     hartree contribution      =      80.34005677 Ry
     xc contribution           =     -71.29649947 Ry
     ewald contribution        =    -190.11516940 Ry

     convergence has been achieved in   7 iterations

     Forces acting on atoms (cartesian axes, Ry/au):

     atom    1 type  2   force =    -0.00000000   -0.00000000    0.00057437
     atom    2 type  2   force =    -0.00000000    0.00000000   -0.00057437
     atom    3 type  2   force =     0.00000000   -0.00000000    0.00056426
     atom    4 type  2   force =     0.00000000    0.00000000   -0.00056426
     atom    5 type  2   force =     0.00000000   -0.00000000    0.00058739
     atom    6 type  2   force =     0.00000000    0.00000000   -0.00058739
     atom    7 type  2   force =     0.00000000   -0.00000000    0.00053204
     atom    8 type  2   force =     0.00000000    0.00000000   -0.00053204
     atom    9 type  1   force =     0.00000000   -0.00397020    0.00271988
     atom   10 type  1   force =     0.00000000    0.00397020   -0.00271988
     atom   11 type  1   force =     0.00000000    0.00399037    0.00268177
     atom   12 type  1   force =     0.00000000   -0.00399037   -0.00268177
     atom   13 type  1   force =     0.00397354    0.00000000    0.00271297
     atom   14 type  1   force =    -0.00397354   -0.00000000   -0.00271297
     atom   15 type  1   force =    -0.00400704    0.00000000    0.00269224
     atom   16 type  1   force =     0.00400704   -0.00000000   -0.00269224
     atom   17 type  1   force =    -0.00400704   -0.00000000   -0.00269224
     atom   18 type  1   force =     0.00400704    0.00000000    0.00269224
     atom   19 type  1   force =     0.00397354   -0.00000000   -0.00271297
     atom   20 type  1   force =    -0.00397354    0.00000000    0.00271297
     atom   21 type  1   force =     0.00000000   -0.00399037    0.00268177
     atom   22 type  1   force =     0.00000000    0.00399037   -0.00268177
     atom   23 type  1   force =     0.00000000    0.00397020    0.00271988
     atom   24 type  1   force =     0.00000000   -0.00397020   -0.00271988

     Total force =     0.019325     Total SCF correction =     0.000029


     Computing stress (Cartesian axis) and pressure

          total   stress  (Ry/bohr**3)                   (kbar)     P=      142.77
   0.00095337   0.00000000   0.00000000          140.25        0.00        0.00
   0.00000000   0.00095344   0.00000000            0.00      140.26        0.00
   0.00000000   0.00000000   0.00100488            0.00        0.00      147.82

     Energy error            =      6.8E-04 Ry
     Gradient error          =      4.0E-03 Ry/Bohr

     number of scf cycles    =   9
     number of bfgs steps    =   8

     energy             old  =    -278.5728031561 Ry
     energy             new  =    -278.5734871994 Ry

     CASE: energy            _new < energy            _old

     new trust radius        =       0.0255206316 bohr
     new conv_thr            =       0.0000000040 Ry


ATOMIC_POSITIONS (crystal)
O               -0.0000000000        0.2499999997        0.6112003788
O               -0.0000000000        0.7500000003        0.3887996502
O                0.5000000000        0.7499999995        0.1112102263
O                0.5000000000        0.2500000005        0.8887897447
O               -0.0000000000        0.7500000008        0.8612489353
O               -0.0000000000        0.2499999992        0.1387510937
O                0.5000000000        0.2500000005        0.3612028630
O                0.5000000000        0.7499999995        0.6387971080
H                0.0000000000        0.4324245558        0.7041349736
H                0.0000000000        0.5675754142        0.2958650264
H                0.5000000000        0.5675898904        0.2041544010
H                0.5000000000        0.4324100796        0.7958455990
H                0.8175742253        0.7499999997        0.9541753802
H                0.1824257447        0.2500000003        0.0458246198
H                0.6824258041        0.2499999999        0.4541437970
H                0.3175742259        0.7500000001        0.5458562030
H                0.6824258041        0.7500000001        0.5458562030
H                0.3175742259        0.2499999999        0.4541437970
H                0.8175742253        0.2500000003        0.0458246198
H                0.1824257447        0.7499999997        0.9541753802
H                0.5000000000        0.9324101097        0.2041544008
H                0.5000000000        0.0675899203        0.7958455992
H                0.0000000000        0.0675754437        0.7041349738
H                0.0000000000        0.9324245863        0.2958650262



     Writing config-only to output data dir ./iceVIII/iceVIII.save/ :
     XML data file
     NEW-OLD atomic charge density approx. for the potential

     total cpu time spent up to now is      180.0 secs

     per-process dynamical memory:    18.9 Mb

     Self-consistent Calculation

     iteration #  1     ecut=    90.00 Ry     beta= 0.70
     Davidson diagonalization with overlap
     ethr =  1.00E-06,  avg # of iterations =  5.8

     total cpu time spent up to now is      183.8 secs

     total energy              =    -278.57410426 Ry
     estimated scf accuracy    <       0.00070733 Ry

     iteration #  2     ecut=    90.00 Ry     beta= 0.70
     Davidson diagonalization with overlap
     ethr =  1.11E-06,  avg # of iterations =  2.0

     total cpu time spent up to now is      185.6 secs

     total energy              =    -278.57420811 Ry
     estimated scf accuracy    <       0.00003490 Ry

     iteration #  3     ecut=    90.00 Ry     beta= 0.70
     Davidson diagonalization with overlap
     ethr =  5.45E-08,  avg # of iterations =  2.4

     total cpu time spent up to now is      187.6 secs

     total energy              =    -278.57421538 Ry
     estimated scf accuracy    <       0.00000422 Ry

     iteration #  4     ecut=    90.00 Ry     beta= 0.70
     Davidson diagonalization with overlap
     ethr =  6.59E-09,  avg # of iterations =  2.5

     total cpu time spent up to now is      189.7 secs

     total energy              =    -278.57421644 Ry
     estimated scf accuracy    <       0.00000062 Ry

     iteration #  5     ecut=    90.00 Ry     beta= 0.70
     Davidson diagonalization with overlap
     ethr =  9.69E-10,  avg # of iterations =  2.0

     total cpu time spent up to now is      191.5 secs

     total energy              =    -278.57421650 Ry
     estimated scf accuracy    <       0.00000003 Ry

     iteration #  6     ecut=    90.00 Ry     beta= 0.70
     Davidson diagonalization with overlap
     ethr =  4.82E-11,  avg # of iterations =  4.1

     total cpu time spent up to now is      194.1 secs

     total energy              =    -278.57421652 Ry
     estimated scf accuracy    <       0.00000001 Ry

     iteration #  7     ecut=    90.00 Ry     beta= 0.70
[...]
     atom   19 type  1   force =     0.00327892   -0.00000000   -0.00149056
     atom   20 type  1   force =    -0.00327892    0.00000000    0.00149056
     atom   21 type  1   force =     0.00000000   -0.00325532    0.00145660
     atom   22 type  1   force =     0.00000000    0.00325532   -0.00145660
     atom   23 type  1   force =     0.00000000    0.00329399    0.00150238
     atom   24 type  1   force =     0.00000000   -0.00329399   -0.00150238

     Total force =     0.015813     Total SCF correction =     0.000041


     Computing stress (Cartesian axis) and pressure

          total   stress  (Ry/bohr**3)                   (kbar)     P=      140.71
   0.00094385   0.00000000   0.00000000          138.85        0.00        0.00
   0.00000000   0.00094393   0.00000000            0.00      138.86        0.00
   0.00000000   0.00000000   0.00098180            0.00        0.00      144.43

     Energy error            =      5.7E-04 Ry
     Gradient error          =      3.3E-03 Ry/Bohr

     number of scf cycles    =  11
     number of bfgs steps    =  10

     energy             old  =    -278.5742165196 Ry
     energy             new  =    -278.5747822026 Ry

     CASE: energy            _new < energy            _old

     new trust radius        =       0.0152240144 bohr
     new conv_thr            =       0.0000000033 Ry


ATOMIC_POSITIONS (crystal)
O               -0.0000000000        0.2499999993        0.6131930566
O               -0.0000000000        0.7500000007        0.3868069724
O                0.5000000000        0.7499999986        0.1132033451
O                0.5000000000        0.2500000014        0.8867966259
O               -0.0000000000        0.7500000011        0.8632535638
O               -0.0000000000        0.2499999989        0.1367464652
O                0.5000000000        0.2500000008        0.3631823419
O                0.5000000000        0.7499999992        0.6368176291
H                0.0000000000        0.4312484514        0.7070572219
H                0.0000000000        0.5687515186        0.2929427781
H                0.5000000000        0.5687608706        0.2070671198
H                0.5000000000        0.4312390994        0.7929328802
H                0.8187459254        0.7500000000        0.9571075028
H                0.1812540446        0.2500000000        0.0428924972
H                0.6812399401        0.2500000001        0.4570529267
H                0.3187600899        0.7499999999        0.5429470733
H                0.6812399401        0.7499999999        0.5429470733
H                0.3187600899        0.2500000001        0.4570529267
H                0.8187459254        0.2500000000        0.0428924972
H                0.1812540446        0.7500000000        0.9571075028
H                0.5000000000        0.9312391296        0.2070671195
H                0.5000000000        0.0687609004        0.7929328805
H                0.0000000000        0.0687515480        0.7070572224
H                0.0000000000        0.9312484820        0.2929427776



     Writing config-only to output data dir ./iceVIII/iceVIII.save/ :
     XML data file
     NEW-OLD atomic charge density approx. for the potential

     total cpu time spent up to now is      215.0 secs

     per-process dynamical memory:    19.7 Mb

     Self-consistent Calculation

     iteration #  1     ecut=    90.00 Ry     beta= 0.70
     Davidson diagonalization with overlap
     ethr =  1.00E-06,  avg # of iterations =  3.1

     total cpu time spent up to now is      217.6 secs

     total energy              =    -278.57510228 Ry
     estimated scf accuracy    <       0.00008122 Ry

     iteration #  2     ecut=    90.00 Ry     beta= 0.70
     Davidson diagonalization with overlap
     ethr =  1.27E-07,  avg # of iterations =  2.3

     total cpu time spent up to now is      219.5 secs

     total energy              =    -278.57511789 Ry
     estimated scf accuracy    <       0.00001054 Ry

     iteration #  3     ecut=    90.00 Ry     beta= 0.70
     Davidson diagonalization with overlap
     ethr =  1.65E-08,  avg # of iterations =  3.0

     total cpu time spent up to now is      221.6 secs

     total energy              =    -278.57512043 Ry
     estimated scf accuracy    <       0.00000154 Ry

     iteration #  4     ecut=    90.00 Ry     beta= 0.70
     Davidson diagonalization with overlap
     ethr =  2.40E-09,  avg # of iterations =  2.0

     total cpu time spent up to now is      223.6 secs

     total energy              =    -278.57512072 Ry
     estimated scf accuracy    <       0.00000008 Ry

     iteration #  5     ecut=    90.00 Ry     beta= 0.70
     Davidson diagonalization with overlap
     ethr =  1.18E-10,  avg # of iterations =  3.6

     total cpu time spent up to now is      226.1 secs

     total energy              =    -278.57512075 Ry
     estimated scf accuracy    <       0.00000005 Ry

     iteration #  6     ecut=    90.00 Ry     beta= 0.70
     Davidson diagonalization with overlap
     ethr =  8.40E-11,  avg # of iterations =  2.0

     total cpu time spent up to now is      227.9 secs

     total energy              =    -278.57512075 Ry
     estimated scf accuracy    <          5.4E-09 Ry

     iteration #  7     ecut=    90.00 Ry     beta= 0.70
     Davidson diagonalization with overlap
     ethr =  8.41E-12,  avg # of iterations =  3.0

     total cpu time spent up to now is      230.1 secs

     End of self-consistent calculation

     Number of k-points >= 100: set verbosity='high' to print the bands.

     highest occupied level (ev):     1.2227

!    total energy              =    -278.57512075 Ry
     estimated scf accuracy    <          1.6E-10 Ry

     The total energy is the sum of the following terms:
     one-electron contribution =     -97.10535012 Ry
     hartree contribution      =      80.13407933 Ry
     xc contribution           =     -71.29607472 Ry
     ewald contribution        =    -190.30777524 Ry

     convergence has been achieved in   7 iterations

     Forces acting on atoms (cartesian axes, Ry/au):

     atom    1 type  2   force =    -0.00000000    0.00000000   -0.00120121
     atom    2 type  2   force =    -0.00000000   -0.00000000    0.00120121
     atom    3 type  2   force =     0.00000000    0.00000001   -0.00124716
     atom    4 type  2   force =     0.00000000   -0.00000001    0.00124716
     atom    5 type  2   force =     0.00000000   -0.00000000   -0.00121624
     atom    6 type  2   force =     0.00000000    0.00000000    0.00121624
     atom    7 type  2   force =     0.00000000   -0.00000000   -0.00124560
     atom    8 type  2   force =     0.00000000    0.00000000    0.00124560
     atom    9 type  1   force =     0.00000000   -0.00108848    0.00035322
     atom   10 type  1   force =     0.00000000    0.00108848   -0.00035322
     atom   11 type  1   force =     0.00000000    0.00103180    0.00034777
     atom   12 type  1   force =     0.00000000   -0.00103180   -0.00034777
     atom   13 type  1   force =     0.00107806   -0.00000000    0.00034575
     atom   14 type  1   force =    -0.00107806    0.00000000   -0.00034575
     atom   15 type  1   force =    -0.00105806   -0.00000000    0.00032693
     atom   16 type  1   force =     0.00105806    0.00000000   -0.00032693
     atom   17 type  1   force =    -0.00105806    0.00000000   -0.00032693
     atom   18 type  1   force =     0.00105806   -0.00000000    0.00032693
     atom   19 type  1   force =     0.00107806    0.00000000   -0.00034575
     atom   20 type  1   force =    -0.00107806   -0.00000000    0.00034575
     atom   21 type  1   force =     0.00000000   -0.00103181    0.00034777
     atom   22 type  1   force =     0.00000000    0.00103181   -0.00034777
     atom   23 type  1   force =     0.00000000    0.00108848    0.00035322
     atom   24 type  1   force =     0.00000000   -0.00108848   -0.00035322

     Total force =     0.005663     Total SCF correction =     0.000012


     Computing stress (Cartesian axis) and pressure

          total   stress  (Ry/bohr**3)                   (kbar)     P=      142.77
   0.00096852   0.00000000   0.00000000          142.47        0.00        0.00
   0.00000000   0.00096854  -0.00000000            0.00      142.48       -0.00
   0.00000000  -0.00000000   0.00097463            0.00       -0.00      143.37

     Energy error            =      3.4E-04 Ry
     Gradient error          =      1.2E-03 Ry/Bohr

     number of scf cycles    =  12
     number of bfgs steps    =  11

     energy             old  =    -278.5747822026 Ry
     energy             new  =    -278.5751207541 Ry

     CASE: energy            _new < energy            _old

     new trust radius        =       0.0037429045 bohr
     new conv_thr            =       0.0000000012 Ry


ATOMIC_POSITIONS (crystal)
O               -0.0000000000        0.2499999997        0.6128858043
O               -0.0000000000        0.7500000003        0.3871142247
O                0.5000000000        0.7500000006        0.1128922471
O                0.5000000000        0.2499999994        0.8871077239
O               -0.0000000000        0.7500000008        0.8629441204
O               -0.0000000000        0.2499999992        0.1370559086
O                0.5000000000        0.2500000005        0.3628702913
O                0.5000000000        0.7499999995        0.6371296797
H                0.0000000000        0.4308854438        0.7069984007
H                0.0000000000        0.5691145262        0.2930015993
H                0.5000000000        0.5691140928        0.2070061789
H                0.5000000000        0.4308858772        0.7929938211
H                0.8191070429        0.7500000000        0.9570467421
H                0.1808929271        0.2500000000        0.0429532579
H                0.6808816301        0.2500000001        0.4569900933
H                0.3191183999        0.7499999999        0.5430099067
H                0.6808816301        0.7499999999        0.5430099067
H                0.3191183999        0.2500000001        0.4569900933
H                0.8191070429        0.2500000000        0.0429532579
H                0.1808929271        0.7500000000        0.9570467421
H                0.5000000000        0.9308859058        0.2070061778
H                0.5000000000        0.0691141242        0.7929938222
H                0.0000000000        0.0691145554        0.7069984013
H                0.0000000000        0.9308854746        0.2930015987



     Writing config-only to output data dir ./iceVIII/iceVIII.save/ :
     XML data file
     NEW-OLD atomic charge density approx. for the potential

     total cpu time spent up to now is      231.8 secs

     per-process dynamical memory:    18.9 Mb

     Self-consistent Calculation

     iteration #  1     ecut=    90.00 Ry     beta= 0.70
     Davidson diagonalization with overlap
     ethr =  1.00E-06,  avg # of iterations =  3.0

     Threshold (ethr) on eigenvalues was too large:
     Diagonalizing with lowered threshold

     Davidson diagonalization with overlap
     ethr =  1.70E-08,  avg # of iterations =  3.1

     total cpu time spent up to now is      236.1 secs

     total energy              =    -278.57516642 Ry
     estimated scf accuracy    <       0.00001464 Ry

     iteration #  2     ecut=    90.00 Ry     beta= 0.70
     Davidson diagonalization with overlap
     ethr =  2.29E-08,  avg # of iterations =  2.0

     total cpu time spent up to now is      238.0 secs

     total energy              =    -278.57516906 Ry
     estimated scf accuracy    <       0.00000049 Ry

     iteration #  3     ecut=    90.00 Ry     beta= 0.70
     Davidson diagonalization with overlap
     ethr =  7.60E-10,  avg # of iterations =  2.3

     total cpu time spent up to now is      239.8 secs

     total energy              =    -278.57516915 Ry
     estimated scf accuracy    <       0.00000005 Ry

     iteration #  4     ecut=    90.00 Ry     beta= 0.70
     Davidson diagonalization with overlap
     ethr =  7.22E-11,  avg # of iterations =  3.4

     total cpu time spent up to now is      241.9 secs

     total energy              =    -278.57516915 Ry
     estimated scf accuracy    <          1.7E-09 Ry

     iteration #  5     ecut=    90.00 Ry     beta= 0.70
     Davidson diagonalization with overlap
     ethr =  2.65E-12,  avg # of iterations =  4.5

     total cpu time spent up to now is      244.4 secs

     End of self-consistent calculation

     Number of k-points >= 100: set verbosity='high' to print the bands.

     highest occupied level (ev):     1.2187

!    total energy              =    -278.57516916 Ry
     estimated scf accuracy    <          2.6E-10 Ry

     The total energy is the sum of the following terms:
     one-electron contribution =     -97.15437100 Ry
     hartree contribution      =      80.15430035 Ry
     xc contribution           =     -71.29958323 Ry
     ewald contribution        =    -190.27551528 Ry

     convergence has been achieved in   5 iterations

     Forces acting on atoms (cartesian axes, Ry/au):

     atom    1 type  2   force =     0.00000000   -0.00000000   -0.00026514
     atom    2 type  2   force =     0.00000000    0.00000000    0.00026514
     atom    3 type  2   force =     0.00000000   -0.00000002   -0.00025499
     atom    4 type  2   force =     0.00000000    0.00000002    0.00025499
     atom    5 type  2   force =    -0.00000000   -0.00000000   -0.00026834
     atom    6 type  2   force =    -0.00000000    0.00000000    0.00026834
     atom    7 type  2   force =     0.00000000    0.00000000   -0.00028090
     atom    8 type  2   force =     0.00000000   -0.00000000    0.00028090
     atom    9 type  1   force =     0.00000000   -0.00011633    0.00002732
     atom   10 type  1   force =     0.00000000    0.00011633   -0.00002732
     atom   11 type  1   force =     0.00000000    0.00011472   -0.00000856
     atom   12 type  1   force =     0.00000000   -0.00011472    0.00000856
     atom   13 type  1   force =     0.00011445    0.00000000    0.00001509
     atom   14 type  1   force =    -0.00011445   -0.00000000   -0.00001509
     atom   15 type  1   force =    -0.00011170    0.00000000   -0.00001133
     atom   16 type  1   force =     0.00011170   -0.00000000    0.00001133
     atom   17 type  1   force =    -0.00011170   -0.00000000    0.00001133
     atom   18 type  1   force =     0.00011170    0.00000000   -0.00001133
     atom   19 type  1   force =     0.00011445   -0.00000000   -0.00001509
     atom   20 type  1   force =    -0.00011445    0.00000000    0.00001509
     atom   21 type  1   force =     0.00000000   -0.00011470   -0.00000855
     atom   22 type  1   force =     0.00000000    0.00011470    0.00000855
     atom   23 type  1   force =     0.00000000    0.00011633    0.00002731
     atom   24 type  1   force =     0.00000000   -0.00011633   -0.00002731

     Total force =     0.000887     Total SCF correction =     0.000016


     Computing stress (Cartesian axis) and pressure

          total   stress  (Ry/bohr**3)                   (kbar)     P=      144.01
   0.00098143   0.00000000   0.00000000          144.37        0.00        0.00
   0.00000000   0.00098135   0.00000000            0.00      144.36        0.00
   0.00000000   0.00000000   0.00097412            0.00        0.00      143.30

     Energy error            =      4.8E-05 Ry
     Gradient error          =      2.8E-04 Ry/Bohr

     bfgs converged in  13 scf cycles and  12 bfgs steps
     (criteria: energy <  1.0E-04 Ry, force <  1.0E-03 Ry/Bohr)

     End of BFGS Geometry Optimization

     Final energy             =    -278.5751691552 Ry

     File ./iceVIII/iceVIII.bfgs deleted, as requested
Begin final coordinates

ATOMIC_POSITIONS (crystal)
O               -0.0000000000        0.2499999997        0.6128858043
O               -0.0000000000        0.7500000003        0.3871142247
O                0.5000000000        0.7500000006        0.1128922471
O                0.5000000000        0.2499999994        0.8871077239
O               -0.0000000000        0.7500000008        0.8629441204
O               -0.0000000000        0.2499999992        0.1370559086
O                0.5000000000        0.2500000005        0.3628702913
O                0.5000000000        0.7499999995        0.6371296797
H                0.0000000000        0.4308854438        0.7069984007
H                0.0000000000        0.5691145262        0.2930015993
H                0.5000000000        0.5691140928        0.2070061789
H                0.5000000000        0.4308858772        0.7929938211
H                0.8191070429        0.7500000000        0.9570467421
H                0.1808929271        0.2500000000        0.0429532579
H                0.6808816301        0.2500000001        0.4569900933
H                0.3191183999        0.7499999999        0.5430099067
H                0.6808816301        0.7499999999        0.5430099067
H                0.3191183999        0.2500000001        0.4569900933
H                0.8191070429        0.2500000000        0.0429532579
H                0.1808929271        0.7500000000        0.9570467421
H                0.5000000000        0.9308859058        0.2070061778
H                0.5000000000        0.0691141242        0.7929938222
H                0.0000000000        0.0691145554        0.7069984013
H                0.0000000000        0.9308854746        0.2930015987
End final coordinates



     Writing all to output data dir ./iceVIII/iceVIII.save/ :
     XML data file, charge density, pseudopotentials, collected wavefunctions

     init_run     :      2.60s CPU      2.69s WALL (       1 calls)
     electrons    :    215.38s CPU    220.48s WALL (      13 calls)
     update_pot   :      0.45s CPU      0.51s WALL (      12 calls)
     forces       :      1.48s CPU      1.51s WALL (      13 calls)
     stress       :     18.29s CPU     18.38s WALL (      13 calls)

     Called by init_run:
     wfcinit      :      0.82s CPU      0.85s WALL (       1 calls)
     potinit      :      1.55s CPU      1.59s WALL (       1 calls)
     hinit0       :      0.18s CPU      0.19s WALL (       1 calls)

     Called by electrons:
     c_bands      :    190.48s CPU    194.64s WALL (      95 calls)
     sum_band     :     21.18s CPU     21.42s WALL (      95 calls)
     v_of_rho     :      5.30s CPU      5.74s WALL (     106 calls)
     newd         :      0.10s CPU      0.15s WALL (     106 calls)
     mix_rho      :      0.09s CPU      0.09s WALL (      95 calls)
     vdW_kernel   :      1.51s CPU      1.52s WALL (       1 calls)

     Called by c_bands:
     init_us_2    :      1.99s CPU      2.06s WALL (    7812 calls)
     cegterg      :    184.41s CPU    186.67s WALL (    3420 calls)

     Called by *egterg:
     cdiaghg      :     23.46s CPU     23.64s WALL (   13696 calls)
     h_psi        :    137.08s CPU    139.03s WALL (   14236 calls)
     s_psi        :      4.67s CPU      4.72s WALL (   14236 calls)
     g_psi        :      0.40s CPU      0.40s WALL (   10780 calls)

     Called by h_psi:
     h_psi:calbec :      6.44s CPU      6.50s WALL (   14236 calls)
     vloc_psi     :    125.16s CPU    126.99s WALL (   14236 calls)
     add_vuspsi   :      5.01s CPU      5.07s WALL (   14236 calls)

     General routines
     calbec       :      9.65s CPU      9.76s WALL (   19996 calls)
     fft          :      2.46s CPU      2.52s WALL (    7156 calls)
     ffts         :      0.03s CPU      0.03s WALL (      95 calls)
     fftw         :    132.88s CPU    134.76s WALL (  842598 calls)

     Parallel routines

     PWSCF        :   3m59.69s CPU   4m 8.44s WALL


   This run was terminated on:  13:59:37   1Apr2026            

=------------------------------------------------------------------------------=
   JOB DONE.
=------------------------------------------------------------------------------=
