
     Program PWSCF v.7.3.1 starts on  1Apr2026 at 14: 3:47 

     This program is part of the open-source Quantum ESPRESSO suite
     for quantum simulation of materials; please cite
         "P. Giannozzi et al., J. Phys.:Condens. Matter 21 395502 (2009);
         "P. Giannozzi et al., J. Phys.:Condens. Matter 29 465901 (2017);
         "P. Giannozzi et al., J. Chem. Phys. 152 154105 (2020);
          URL http://www.quantum-espresso.org", 
     in publications or presentations arising from this work. More details at
     http://www.quantum-espresso.org/quote

     Parallel version (MPI), running on   128 processors

     MPI processes distributed on     1 nodes
     241974 MiB available memory on the printing compute node when the environment starts

     Waiting for input...
     Reading input from standard input

     Current dimensions of program PWSCF are:
     Max number of different atomic species (ntypx) = 10
     Max number of k-points (npk) =  40000
     Max angular momentum in pseudopotentials (lmaxx) =  4

     IMPORTANT: XC functional enforced from input :
     Exchange-correlation= VDW-DF2
                           (   1   4  13   0   2   0   0)
     Any further DFT definition will be discarded
     Please, verify this is what you really want

     Found identity + ( -0.5000 -0.5000  0.5000) symmetry
     This is a supercell, fractional translations are disabled

     K-points division:     npool     =       4
     R & G space division:  proc/nbgrp/npool/nimage =      32
     Subspace diagonalization in iterative solution of the eigenvalue problem:
     a serial algorithm will be used


     Parallelization info
     --------------------
     sticks:   dense  smooth     PW     G-vecs:    dense   smooth      PW
     Min          62      62     17                 3044     3044     445
     Max          63      63     18                 3053     3053     454
     Sum        2009    2009    553                97569    97569   14335

     Using Slab Decomposition



     bravais-lattice index     =            6
     lattice parameter (alat)  =       8.3701  a.u.
     unit-cell volume          =     845.7031 (a.u.)^3
     number of atoms/cell      =           24
     number of atomic types    =            2
     number of electrons       =        64.00
     number of Kohn-Sham states=           32
     kinetic-energy cutoff     =      90.0000  Ry
     charge density cutoff     =     360.0000  Ry
     scf convergence threshold =      1.0E-07
     mixing beta               =       0.7000
     number of iterations used =            8  plain     mixing
     energy convergence thresh.=      1.0E-04
     force convergence thresh. =      1.0E-03
     Exchange-correlation= VDW-DF2
                           (   1   4  13   0   2   0   0)
     nstep                     =           50


     celldm(1)=   8.370109  celldm(2)=   0.000000  celldm(3)=   1.442197
     celldm(4)=   0.000000  celldm(5)=   0.000000  celldm(6)=   0.000000

     crystal axes: (cart. coord. in units of alat)
               a(1) = (   1.000000   0.000000   0.000000 )  
               a(2) = (   0.000000   1.000000   0.000000 )  
               a(3) = (   0.000000   0.000000   1.442197 )  

     reciprocal axes: (cart. coord. in units 2 pi/alat)
               b(1) = (  1.000000  0.000000  0.000000 )  
               b(2) = (  0.000000  1.000000  0.000000 )  
               b(3) = (  0.000000  0.000000  0.693386 )  


     PseudoPot. # 1 for H  read from file:
     ./H.pbe-van_ak.UPF
     MD5 check sum: 077eb6d537518a38cb46c6de387227b7
     Pseudo is Ultrasoft, Zval =  1.0
     Generated by new atomic code, or converted to UPF format
     Using radial grid of  615 points,  1 beta functions with: 
                l(1) =   0
     Q(r) pseudized with  8 coefficients,  rinner =    0.800

     PseudoPot. # 2 for O  read from file:
     ./O.pbe-van_ak.UPF
     MD5 check sum: 78c19812648e8988a0fe644b0f25305e
     Pseudo is Ultrasoft, Zval =  6.0
     Generated by new atomic code, or converted to UPF format
     Using radial grid of  737 points,  4 beta functions with: 
                l(1) =   0
                l(2) =   0
                l(3) =   1
                l(4) =   1
     Q(r) pseudized with  8 coefficients,  rinner =    0.800   0.800   0.800


     atomic species   valence    mass     pseudopotential
     H                 1.00     1.00800     H ( 1.00)
     O                 6.00    16.00000     O ( 1.00)

      4 Sym. Ops., with inversion, found



   Cartesian axes

     site n.     atom                  positions (alat units)
         1        O      tau(   1) = (   0.0000000   0.2500000   0.8781106  )
         2        O      tau(   2) = (   0.0000000   0.7500000   0.5640866  )
         3        O      tau(   3) = (   0.5000000   0.7500000   0.1570120  )
         4        O      tau(   4) = (   0.5000000   0.2500000   1.2851851  )
         5        O      tau(   5) = (   0.0000000   0.7500000   1.2386599  )
         6        O      tau(   6) = (   0.0000000   0.2500000   0.2035373  )
         7        O      tau(   7) = (   0.5000000   0.2500000   0.5175613  )
         8        O      tau(   8) = (   0.5000000   0.7500000   0.9246358  )
         9        H      tau(   9) = (   0.0000000   0.4142500   1.0027885  )
        10        H      tau(  10) = (   0.0000000   0.5857500   0.4394086  )
        11        H      tau(  11) = (   0.5000000   0.5857500   0.2816900  )
        12        H      tau(  12) = (   0.5000000   0.4142500   1.1605072  )
        13        H      tau(  13) = (   0.8357500   0.7500000   1.3633378  )
        14        H      tau(  14) = (   0.1642500   0.2500000   0.0788593  )
        15        H      tau(  15) = (   0.6642500   0.2500000   0.6422392  )
        16        H      tau(  16) = (   0.3357500   0.7500000   0.7999579  )
        17        H      tau(  17) = (   0.6642500   0.7500000   0.7999579  )
        18        H      tau(  18) = (   0.3357500   0.2500000   0.6422392  )
        19        H      tau(  19) = (   0.8357500   0.2500000   0.0788593  )
        20        H      tau(  20) = (   0.1642500   0.7500000   1.3633378  )
        21        H      tau(  21) = (   0.5000000   0.9142500   0.2816900  )
        22        H      tau(  22) = (   0.5000000   0.0857500   1.1605072  )
        23        H      tau(  23) = (   0.0000000   0.0857500   1.0027885  )
        24        H      tau(  24) = (   0.0000000   0.9142500   0.4394086  )

     number of k points=   144

     Number of k-points >= 100: set verbosity='high' to print them.

     Dense  grid:    97569 G-vectors     FFT dimensions: (  54,  54,  75)

     Estimated max dynamical RAM per process >      11.52 MB

     Estimated total dynamical RAM >       1.37 GB

     Initial potential from superposition of free atoms

     starting charge      63.9998, renormalised to      64.0000


     %%%%%%%%%%%%%%%%%%%%%%%%%%%%%%%%%%%%%%%%%%%%%%%%%%%%%%%%%%%%%%%%%%%%%%%%
     %                                                                      %
     % You are using vdW-DF, which was implemented by the Thonhauser group. %
     % Please cite the following two papers that made this development      %
     % possible and the two reviews that describe the various versions:     %
     %                                                                      %
     %   T. Thonhauser et al., PRL 115, 136402 (2015).                      %
     %   T. Thonhauser et al., PRB 76, 125112 (2007).                       %
     %   K. Berland et al., Rep. Prog. Phys. 78, 066501 (2015).             %
     %   D.C. Langreth et al., J. Phys.: Condens. Matter 21, 084203 (2009). %
     %                                                                      %
     % If you are calculating stress with vdW-DF, please also cite:         %
     %                                                                      %
     %   R. Sabatini et al., J. Phys.: Condens. Matter 24, 424209 (2012).   %
     %                                                                      %
     %%%%%%%%%%%%%%%%%%%%%%%%%%%%%%%%%%%%%%%%%%%%%%%%%%%%%%%%%%%%%%%%%%%%%%%%

     %%%%%%%%%%%%%%%%%%%%%%%%%%%%%%%%%%%%%%%%%%%%%%%%%%%%%%%%%%%%%%%%%%%%%%%%
     %                                                                      %
     %  vdW-DF NEWS:                                                        %
     %                                                                      %
     %  * vdW-DF3 is now available. DOI: 10.1021/acs.jctc.0c00471           %
     %    use with input_dft = 'vdW-DF3-opt1' or 'vdW-DF3-opt2'             %
     %                                                                      %
     %  * Unscreened and range-separated hybrid vdW-DF-cx functionals       %
     %    DOI: 10.1063/1.4986522 and 10.1088/1361-648X/ac2ad2               %
     %    use with input_dft = 'vdW-DF-cx0'    and 'vdW-DF-ahcx'            %
     %  * Unscreened and range-separated hybrid vdW-DF2-b86r functionals    %
     %    DOI: 10.1063/1.4986522 and DOI: 10.1103/PhysRevX.12.041003        %
     %    use with input_dft = 'vdW-DF2-br0' and 'vdW-DF2-ahbr'             %
     %                                                                      %
     %%%%%%%%%%%%%%%%%%%%%%%%%%%%%%%%%%%%%%%%%%%%%%%%%%%%%%%%%%%%%%%%%%%%%%%%


     Starting wfcs are   48 randomized atomic wfcs

     total cpu time spent up to now is        2.9 secs

     per-process dynamical memory:    18.0 Mb

     Self-consistent Calculation

     iteration #  1     ecut=    90.00 Ry     beta= 0.70
     Davidson diagonalization with overlap
     ethr =  1.00E-02,  avg # of iterations =  2.0

     total cpu time spent up to now is        4.9 secs

     total energy              =    -276.97486826 Ry
     estimated scf accuracy    <       3.50200833 Ry

     iteration #  2     ecut=    90.00 Ry     beta= 0.70
     Davidson diagonalization with overlap
     ethr =  5.47E-03,  avg # of iterations =  3.0

     total cpu time spent up to now is        7.3 secs

     total energy              =    -278.18727223 Ry
     estimated scf accuracy    <       1.55368478 Ry

     iteration #  3     ecut=    90.00 Ry     beta= 0.70
     Davidson diagonalization with overlap
     ethr =  2.43E-03,  avg # of iterations =  2.0

     total cpu time spent up to now is        9.1 secs

     total energy              =    -278.36012002 Ry
     estimated scf accuracy    <       0.06900850 Ry

     iteration #  4     ecut=    90.00 Ry     beta= 0.70
     Davidson diagonalization with overlap
     ethr =  1.08E-04,  avg # of iterations =  4.0

     total cpu time spent up to now is       11.8 secs

     total energy              =    -278.40561988 Ry
     estimated scf accuracy    <       0.09091023 Ry

     iteration #  5     ecut=    90.00 Ry     beta= 0.70
     Davidson diagonalization with overlap
     ethr =  1.08E-04,  avg # of iterations =  2.0

     total cpu time spent up to now is       13.6 secs

     total energy              =    -278.40875659 Ry
     estimated scf accuracy    <       0.01241207 Ry

     iteration #  6     ecut=    90.00 Ry     beta= 0.70
     Davidson diagonalization with overlap
     ethr =  1.94E-05,  avg # of iterations =  3.0

     total cpu time spent up to now is       15.7 secs

     total energy              =    -278.41258705 Ry
     estimated scf accuracy    <       0.00002920 Ry

     iteration #  7     ecut=    90.00 Ry     beta= 0.70
     Davidson diagonalization with overlap
     ethr =  4.56E-08,  avg # of iterations =  6.5

     total cpu time spent up to now is       19.4 secs

     total energy              =    -278.41277904 Ry
     estimated scf accuracy    <       0.00015299 Ry

     iteration #  8     ecut=    90.00 Ry     beta= 0.70
     Davidson diagonalization with overlap
     ethr =  4.56E-08,  avg # of iterations =  3.0

     total cpu time spent up to now is       21.8 secs

     total energy              =    -278.41278536 Ry
     estimated scf accuracy    <       0.00001590 Ry

     iteration #  9     ecut=    90.00 Ry     beta= 0.70
     Davidson diagonalization with overlap
     ethr =  2.48E-08,  avg # of iterations =  2.7

     total cpu time spent up to now is       24.0 secs

     total energy              =    -278.41279076 Ry
     estimated scf accuracy    <       0.00000030 Ry

     iteration # 10     ecut=    90.00 Ry     beta= 0.70
     Davidson diagonalization with overlap
     ethr =  4.74E-10,  avg # of iterations =  3.2

     total cpu time spent up to now is       26.2 secs

     total energy              =    -278.41279078 Ry
     estimated scf accuracy    <       0.00000021 Ry

     iteration # 11     ecut=    90.00 Ry     beta= 0.70
     Davidson diagonalization with overlap
     ethr =  3.34E-10,  avg # of iterations =  2.0

     total cpu time spent up to now is       27.8 secs

     End of self-consistent calculation

     Number of k-points >= 100: set verbosity='high' to print the bands.

     highest occupied level (ev):     0.7659

!    total energy              =    -278.41279077 Ry
     estimated scf accuracy    <       0.00000003 Ry

     The total energy is the sum of the following terms:
     one-electron contribution =    -110.07787105 Ry
     hartree contribution      =      85.48202940 Ry
     xc contribution           =     -72.27008908 Ry
     ewald contribution        =    -181.54686003 Ry

     convergence has been achieved in  11 iterations

     Forces acting on atoms (cartesian axes, Ry/au):

     atom    1 type  2   force =    -0.00000000   -0.00000001   -0.17815200
     atom    2 type  2   force =    -0.00000000    0.00000001    0.17815200
     atom    3 type  2   force =    -0.00000000    0.00000002   -0.17818939
     atom    4 type  2   force =    -0.00000000   -0.00000002    0.17818939
     atom    5 type  2   force =     0.00000000    0.00000004   -0.17803023
     atom    6 type  2   force =     0.00000000   -0.00000004    0.17803023
     atom    7 type  2   force =     0.00000000    0.00000001   -0.17821423
     atom    8 type  2   force =     0.00000000   -0.00000001    0.17821423
     atom    9 type  1   force =     0.00000000    0.13571655    0.09084896
     atom   10 type  1   force =     0.00000000   -0.13571655   -0.09084896
     atom   11 type  1   force =     0.00000000   -0.13571537    0.09084985
     atom   12 type  1   force =     0.00000000    0.13571537   -0.09084985
     atom   13 type  1   force =    -0.13571459    0.00000001    0.09086476
     atom   14 type  1   force =     0.13571459   -0.00000001   -0.09086476
     atom   15 type  1   force =     0.13573042   -0.00000000    0.09084841
     atom   16 type  1   force =    -0.13573042    0.00000000   -0.09084841
     atom   17 type  1   force =     0.13573042    0.00000000   -0.09084841
     atom   18 type  1   force =    -0.13573042   -0.00000000    0.09084841
     atom   19 type  1   force =    -0.13571459   -0.00000001   -0.09086476
     atom   20 type  1   force =     0.13571459    0.00000001    0.09086476
     atom   21 type  1   force =     0.00000000    0.13571537    0.09084985
     atom   22 type  1   force =     0.00000000   -0.13571537   -0.09084985
     atom   23 type  1   force =     0.00000000   -0.13571655    0.09084896
     atom   24 type  1   force =     0.00000000    0.13571655   -0.09084896

     Total force =     0.825029     Total SCF correction =     0.000222


     Computing stress (Cartesian axis) and pressure

          total   stress  (Ry/bohr**3)                   (kbar)     P=      399.00
   0.00267918   0.00000000   0.00000000          394.12        0.00        0.00
   0.00000000   0.00267875  -0.00000000            0.00      394.06       -0.00
   0.00000000  -0.00000000   0.00277916            0.00       -0.00      408.83


     BFGS Geometry Optimization
     Energy error            =      0.0E+00 Ry
     Gradient error          =      1.8E-01 Ry/Bohr

     number of scf cycles    =   1
     number of bfgs steps    =   0

     energy             new  =    -278.4127907699 Ry

     new trust radius        =       0.1782142268 bohr
     new conv_thr            =       0.0000001000 Ry


ATOMIC_POSITIONS (crystal)
O               -0.0000000000        0.2499999988        0.5941117751
O               -0.0000000000        0.7500000012        0.4058882539
O                0.5000000000        0.7500000021        0.0941086483
O                0.5000000000        0.2499999979        0.9058913227
O                0.0000000000        0.7500000051        0.8441218622
O                0.0000000000        0.2499999949        0.1558781668
O                0.5000000000        0.2500000013        0.3441065911
O                0.5000000000        0.7499999987        0.6558933799
H                0.0000000000        0.4304644172        0.7028460105
H                0.0000000000        0.5695355528        0.2971539895
H                0.5000000000        0.5695356937        0.2028460842
H                0.5000000000        0.4304642763        0.7971539158
H                0.8195357874        0.7500000007        0.9528473191
H                0.1804641826        0.2499999993        0.0471526809
H                0.6804661041        0.2500000000        0.4528459651
H                0.3195339259        0.7500000000        0.5471540349
H                0.6804661041        0.7500000000        0.5471540349
H                0.3195339259        0.2500000000        0.4528459651
H                0.8195357874        0.2499999993        0.0471526809
H                0.1804641826        0.7500000007        0.9528473191
H                0.5000000000        0.9304643064        0.2028460840
H                0.5000000000        0.0695357236        0.7971539160
H                0.0000000000        0.0695355824        0.7028460105
H                0.0000000000        0.9304644476        0.2971539895



     Writing config-only to output data dir ./iceVIII/iceVIII.save/ :
     XML data file
     NEW-OLD atomic charge density approx. for the potential

     total cpu time spent up to now is       29.6 secs

     per-process dynamical memory:    19.6 Mb

     Self-consistent Calculation

     iteration #  1     ecut=    90.00 Ry     beta= 0.70
     Davidson diagonalization with overlap
     ethr =  1.00E-06,  avg # of iterations = 11.1

     total cpu time spent up to now is       36.0 secs

     total energy              =    -278.41295381 Ry
     estimated scf accuracy    <       0.20794896 Ry

     iteration #  2     ecut=    90.00 Ry     beta= 0.70
     Davidson diagonalization with overlap
     ethr =  3.25E-04,  avg # of iterations =  3.0

     total cpu time spent up to now is       38.2 secs

     total energy              =    -278.47628848 Ry
     estimated scf accuracy    <       0.05066138 Ry

     iteration #  3     ecut=    90.00 Ry     beta= 0.70
     Davidson diagonalization with overlap
     ethr =  7.92E-05,  avg # of iterations =  2.0

     total cpu time spent up to now is       40.0 secs

     total energy              =    -278.48192077 Ry
     estimated scf accuracy    <       0.00179540 Ry

     iteration #  4     ecut=    90.00 Ry     beta= 0.70
     Davidson diagonalization with overlap
     ethr =  2.81E-06,  avg # of iterations =  5.0

     total cpu time spent up to now is       42.7 secs

     total energy              =    -278.48279080 Ry
     estimated scf accuracy    <       0.00107610 Ry

     iteration #  5     ecut=    90.00 Ry     beta= 0.70
     Davidson diagonalization with overlap
     ethr =  1.68E-06,  avg # of iterations =  3.0

     total cpu time spent up to now is       44.9 secs

     total energy              =    -278.48313723 Ry
     estimated scf accuracy    <       0.00013065 Ry

     iteration #  6     ecut=    90.00 Ry     beta= 0.70
     Davidson diagonalization with overlap
     ethr =  2.04E-07,  avg # of iterations =  2.0

     total cpu time spent up to now is       46.6 secs

     total energy              =    -278.48314904 Ry
     estimated scf accuracy    <       0.00000821 Ry

     iteration #  7     ecut=    90.00 Ry     beta= 0.70
     Davidson diagonalization with overlap
     ethr =  1.28E-08,  avg # of iterations =  3.5

     total cpu time spent up to now is       48.9 secs

     total energy              =    -278.48315281 Ry
     estimated scf accuracy    <       0.00000142 Ry

     iteration #  8     ecut=    90.00 Ry     beta= 0.70
     Davidson diagonalization with overlap
     ethr =  2.21E-09,  avg # of iterations =  2.0

     total cpu time spent up to now is       50.6 secs

     total energy              =    -278.48315277 Ry
     estimated scf accuracy    <       0.00000036 Ry

     iteration #  9     ecut=    90.00 Ry     beta= 0.70
     Davidson diagonalization with overlap
     ethr =  5.55E-10,  avg # of iterations =  2.4

     total cpu time spent up to now is       52.6 secs

     End of self-consistent calculation

     Number of k-points >= 100: set verbosity='high' to print the bands.

     highest occupied level (ev):     1.0922

!    total energy              =    -278.48315284 Ry
     estimated scf accuracy    <          8.1E-09 Ry

     The total energy is the sum of the following terms:
     one-electron contribution =     -96.03056125 Ry
     hartree contribution      =      79.65084919 Ry
     xc contribution           =     -70.58886967 Ry
     ewald contribution        =    -191.51457111 Ry

     convergence has been achieved in   9 iterations

     Forces acting on atoms (cartesian axes, Ry/au):

     atom    1 type  2   force =    -0.00000000    0.00000001    0.13295443
     atom    2 type  2   force =    -0.00000000   -0.00000001   -0.13295443
     atom    3 type  2   force =    -0.00000000   -0.00000001    0.13290854
     atom    4 type  2   force =    -0.00000000    0.00000001   -0.13290854
     atom    5 type  2   force =     0.00000000   -0.00000001    0.13283090
     atom    6 type  2   force =     0.00000000    0.00000001   -0.13283090
     atom    7 type  2   force =    -0.00000000   -0.00000000    0.13298639
     atom    8 type  2   force =    -0.00000000    0.00000000   -0.13298639
     atom    9 type  1   force =     0.00000000   -0.03328617   -0.05485134
     atom   10 type  1   force =     0.00000000    0.03328617    0.05485134
     atom   11 type  1   force =     0.00000000    0.03329713   -0.05487240
     atom   12 type  1   force =     0.00000000   -0.03329713    0.05487240
     atom   13 type  1   force =     0.03326914    0.00000000   -0.05482704
     atom   14 type  1   force =    -0.03326914   -0.00000000    0.05482704
     atom   15 type  1   force =    -0.03330918    0.00000000   -0.05487944
     atom   16 type  1   force =     0.03330918   -0.00000000    0.05487944
     atom   17 type  1   force =    -0.03330918   -0.00000000    0.05487944
     atom   18 type  1   force =     0.03330918    0.00000000   -0.05487944
     atom   19 type  1   force =     0.03326914   -0.00000000    0.05482704
     atom   20 type  1   force =    -0.03326914    0.00000000   -0.05482704
     atom   21 type  1   force =     0.00000000   -0.03329712   -0.05487240
     atom   22 type  1   force =     0.00000000    0.03329712    0.05487240
     atom   23 type  1   force =     0.00000000    0.03328616   -0.05485133
     atom   24 type  1   force =     0.00000000   -0.03328616    0.05485133

     Total force =     0.455218     Total SCF correction =     0.000029


     Computing stress (Cartesian axis) and pressure

          total   stress  (Ry/bohr**3)                   (kbar)     P=       13.14
   0.00033681   0.00000000   0.00000000           49.55        0.00        0.00
   0.00000000   0.00033661   0.00000000            0.00       49.52        0.00
   0.00000000   0.00000000  -0.00040554            0.00        0.00      -59.66

     Energy error            =      7.0E-02 Ry
     Gradient error          =      1.3E-01 Ry/Bohr

     number of scf cycles    =   2
     number of bfgs steps    =   1

     energy             old  =    -278.4127907699 Ry
     energy             new  =    -278.4831528350 Ry

     CASE: energy            _new < energy            _old

     new trust radius        =       0.0843886392 bohr
     new conv_thr            =       0.0000001000 Ry


ATOMIC_POSITIONS (crystal)
O               -0.0000000000        0.2499999995        0.6011009549
O               -0.0000000000        0.7500000005        0.3988990741
O                0.5000000000        0.7500000010        0.1010952246
O                0.5000000000        0.2499999990        0.8989047464
O                0.0000000000        0.7500000044        0.8511044637
O                0.0000000000        0.2499999956        0.1488955653
O                0.5000000000        0.2500000012        0.3510974134
O                0.5000000000        0.7499999988        0.6489025576
H                0.0000000000        0.4281956308        0.6999962116
H                0.0000000000        0.5718043392        0.3000037884
H                0.5000000000        0.5718053558        0.1999951250
H                0.5000000000        0.4281946142        0.8000048750
H                0.8218032244        0.7500000010        0.9499988913
H                0.1781967456        0.2499999990        0.0500011087
H                0.6781955257        0.2500000001        0.4499946152
H                0.3218045043        0.7499999999        0.5500053848
H                0.6781955257        0.7499999999        0.5500053848
H                0.3218045043        0.2500000001        0.4499946152
H                0.8218032244        0.2499999990        0.0500011087
H                0.1781967456        0.7500000010        0.9499988913
H                0.5000000000        0.9281946449        0.1999951251
H                0.5000000000        0.0718053851        0.8000048749
H                0.0000000000        0.0718043682        0.6999962120
H                0.0000000000        0.9281956618        0.3000037880



     Writing config-only to output data dir ./iceVIII/iceVIII.save/ :
     XML data file
     NEW-OLD atomic charge density approx. for the potential

     total cpu time spent up to now is       54.2 secs

     per-process dynamical memory:    18.1 Mb

     Self-consistent Calculation

     iteration #  1     ecut=    90.00 Ry     beta= 0.70
     Davidson diagonalization with overlap
     ethr =  1.00E-06,  avg # of iterations =  9.0

     total cpu time spent up to now is       59.5 secs

     total energy              =    -278.56659343 Ry
     estimated scf accuracy    <       0.02351243 Ry

     iteration #  2     ecut=    90.00 Ry     beta= 0.70
     Davidson diagonalization with overlap
     ethr =  3.67E-05,  avg # of iterations =  2.0

     total cpu time spent up to now is       61.5 secs

     total energy              =    -278.57376599 Ry
     estimated scf accuracy    <       0.00472555 Ry

     iteration #  3     ecut=    90.00 Ry     beta= 0.70
     Davidson diagonalization with overlap
     ethr =  7.38E-06,  avg # of iterations =  2.0

     total cpu time spent up to now is       63.3 secs

     total energy              =    -278.57420919 Ry
     estimated scf accuracy    <       0.00020897 Ry

     iteration #  4     ecut=    90.00 Ry     beta= 0.70
     Davidson diagonalization with overlap
     ethr =  3.27E-07,  avg # of iterations =  3.0

     total cpu time spent up to now is       65.6 secs

     total energy              =    -278.57428689 Ry
     estimated scf accuracy    <       0.00007286 Ry

     iteration #  5     ecut=    90.00 Ry     beta= 0.70
     Davidson diagonalization with overlap
     ethr =  1.14E-07,  avg # of iterations =  3.0

     total cpu time spent up to now is       67.9 secs

     total energy              =    -278.57430844 Ry
     estimated scf accuracy    <       0.00001615 Ry

     iteration #  6     ecut=    90.00 Ry     beta= 0.70
     Davidson diagonalization with overlap
     ethr =  2.52E-08,  avg # of iterations =  2.0

     total cpu time spent up to now is       69.9 secs

     total energy              =    -278.57431176 Ry
     estimated scf accuracy    <       0.00000012 Ry

     iteration #  7     ecut=    90.00 Ry     beta= 0.70
     Davidson diagonalization with overlap
     ethr =  1.90E-10,  avg # of iterations =  5.0

     total cpu time spent up to now is       72.7 secs

     total energy              =    -278.57431182 Ry
     estimated scf accuracy    <       0.00000023 Ry

     iteration #  8     ecut=    90.00 Ry     beta= 0.70
     Davidson diagonalization with overlap
     ethr =  1.90E-10,  avg # of iterations =  2.0

     total cpu time spent up to now is       74.8 secs

     End of self-consistent calculation

     Number of k-points >= 100: set verbosity='high' to print the bands.

     highest occupied level (ev):     0.9987

!    total energy              =    -278.57431184 Ry
     estimated scf accuracy    <       0.00000001 Ry

     The total energy is the sum of the following terms:
     one-electron contribution =     -99.52901387 Ry
     hartree contribution      =      81.05146530 Ry
     xc contribution           =     -71.07131370 Ry
     ewald contribution        =    -189.02544958 Ry

     convergence has been achieved in   8 iterations

     Forces acting on atoms (cartesian axes, Ry/au):

     atom    1 type  2   force =     0.00000000    0.00000000    0.05131463
     atom    2 type  2   force =     0.00000000   -0.00000000   -0.05131463
     atom    3 type  2   force =     0.00000000   -0.00000001    0.05148095
     atom    4 type  2   force =     0.00000000    0.00000001   -0.05148095
     atom    5 type  2   force =     0.00000000   -0.00000001    0.05141483
     atom    6 type  2   force =     0.00000000    0.00000001   -0.05141483
     atom    7 type  2   force =    -0.00000000   -0.00000000    0.05140202
     atom    8 type  2   force =    -0.00000000    0.00000000   -0.05140202
     atom    9 type  1   force =     0.00000000   -0.00949110   -0.01851559
     atom   10 type  1   force =     0.00000000    0.00949110    0.01851559
     atom   11 type  1   force =     0.00000000    0.00949899   -0.01853098
     atom   12 type  1   force =     0.00000000   -0.00949899    0.01853098
     atom   13 type  1   force =     0.00949860    0.00000000   -0.01850460
     atom   14 type  1   force =    -0.00949860   -0.00000000    0.01850460
     atom   15 type  1   force =    -0.00948588    0.00000000   -0.01853465
     atom   16 type  1   force =     0.00948588   -0.00000000    0.01853465
     atom   17 type  1   force =    -0.00948588   -0.00000000    0.01853465
     atom   18 type  1   force =     0.00948588    0.00000000   -0.01853465
     atom   19 type  1   force =     0.00949860   -0.00000000    0.01850460
     atom   20 type  1   force =    -0.00949860    0.00000000   -0.01850460
     atom   21 type  1   force =     0.00000000   -0.00949898   -0.01853097
     atom   22 type  1   force =     0.00000000    0.00949898    0.01853097
     atom   23 type  1   force =     0.00000000    0.00949110   -0.01851559
     atom   24 type  1   force =     0.00000000   -0.00949110    0.01851559

     Total force =     0.167538     Total SCF correction =     0.000062


     Computing stress (Cartesian axis) and pressure

          total   stress  (Ry/bohr**3)                   (kbar)     P=       99.30
   0.00075559   0.00000000   0.00000000          111.15        0.00        0.00
   0.00000000   0.00075544   0.00000000            0.00      111.13        0.00
   0.00000000   0.00000000   0.00051403            0.00        0.00       75.62

     Energy error            =      9.1E-02 Ry
     Gradient error          =      5.1E-02 Ry/Bohr

     number of scf cycles    =   3
     number of bfgs steps    =   2

     energy             old  =    -278.4831528350 Ry
     energy             new  =    -278.5743118379 Ry

     CASE: energy            _new < energy            _old

     new trust radius        =       0.0538501182 bohr
     new conv_thr            =       0.0000000515 Ry


ATOMIC_POSITIONS (crystal)
O               -0.0000000000        0.2499999997        0.6055395156
O               -0.0000000000        0.7500000003        0.3944605134
O                0.5000000000        0.7500000003        0.1055562114
O                0.5000000000        0.2499999997        0.8944437596
O                0.0000000000        0.7500000035        0.8555582027
O                0.0000000000        0.2499999965        0.1444418263
O                0.5000000000        0.2500000010        0.3555468421
O                0.5000000000        0.7499999990        0.6444531289
H                0.0000000000        0.4274152959        0.6985375771
H                0.0000000000        0.5725846741        0.3014624229
H                0.5000000000        0.5725869423        0.1985347979
H                0.5000000000        0.4274130277        0.8014652021
H                0.8225853543        0.7500000012        0.9485413479
H                0.1774146157        0.2499999988        0.0514586521
H                0.6774167106        0.2500000002        0.4485339119
H                0.3225833194        0.7499999998        0.5514660881
H                0.6774167106        0.7499999998        0.5514660881
H                0.3225833194        0.2500000002        0.4485339119
H                0.8225853543        0.2499999988        0.0514586521
H                0.1774146157        0.7500000012        0.9485413479
H                0.5000000000        0.9274130590        0.1985347983
H                0.5000000000        0.0725869710        0.8014652017
H                0.0000000000        0.0725847034        0.6985375775
H                0.0000000000        0.9274153266        0.3014624225



     Writing config-only to output data dir ./iceVIII/iceVIII.save/ :
     XML data file
     NEW-OLD atomic charge density approx. for the potential

     total cpu time spent up to now is       76.4 secs

     per-process dynamical memory:    18.9 Mb

     Self-consistent Calculation

     iteration #  1     ecut=    90.00 Ry     beta= 0.70
     Davidson diagonalization with overlap
     ethr =  1.00E-06,  avg # of iterations =  8.0

     total cpu time spent up to now is       81.0 secs

     total energy              =    -278.58286694 Ry
     estimated scf accuracy    <       0.00912855 Ry

     iteration #  2     ecut=    90.00 Ry     beta= 0.70
     Davidson diagonalization with overlap
     ethr =  1.43E-05,  avg # of iterations =  2.0

     total cpu time spent up to now is       83.0 secs

     total energy              =    -278.58559375 Ry
     estimated scf accuracy    <       0.00172466 Ry

     iteration #  3     ecut=    90.00 Ry     beta= 0.70
     Davidson diagonalization with overlap
     ethr =  2.69E-06,  avg # of iterations =  2.0

     total cpu time spent up to now is       84.9 secs

     total energy              =    -278.58577786 Ry
     estimated scf accuracy    <       0.00006885 Ry

     iteration #  4     ecut=    90.00 Ry     beta= 0.70
     Davidson diagonalization with overlap
     ethr =  1.08E-07,  avg # of iterations =  3.0

     total cpu time spent up to now is       87.2 secs

     total energy              =    -278.58580263 Ry
     estimated scf accuracy    <       0.00002078 Ry

     iteration #  5     ecut=    90.00 Ry     beta= 0.70
     Davidson diagonalization with overlap
     ethr =  3.25E-08,  avg # of iterations =  3.0

     total cpu time spent up to now is       89.5 secs

     total energy              =    -278.58580837 Ry
     estimated scf accuracy    <       0.00000619 Ry

     iteration #  6     ecut=    90.00 Ry     beta= 0.70
     Davidson diagonalization with overlap
     ethr =  9.67E-09,  avg # of iterations =  2.0

     total cpu time spent up to now is       91.6 secs

     End of self-consistent calculation

     Number of k-points >= 100: set verbosity='high' to print the bands.

     highest occupied level (ev):     0.9598

!    total energy              =    -278.58580975 Ry
     estimated scf accuracy    <       0.00000004 Ry

     The total energy is the sum of the following terms:
     one-electron contribution =    -101.73288704 Ry
     hartree contribution      =      81.95450972 Ry
     xc contribution           =     -71.35836164 Ry
     ewald contribution        =    -187.44907079 Ry

     convergence has been achieved in   6 iterations

     Forces acting on atoms (cartesian axes, Ry/au):

     atom    1 type  2   force =    -0.00000000    0.00000000   -0.00637078
     atom    2 type  2   force =    -0.00000000   -0.00000000    0.00637078
     atom    3 type  2   force =     0.00000000    0.00000000   -0.00657294
     atom    4 type  2   force =     0.00000000   -0.00000000    0.00657294
     atom    5 type  2   force =    -0.00000000   -0.00000000   -0.00645783
     atom    6 type  2   force =    -0.00000000    0.00000000    0.00645783
     atom    7 type  2   force =     0.00000000   -0.00000000   -0.00645165
     atom    8 type  2   force =     0.00000000    0.00000000    0.00645165
     atom    9 type  1   force =     0.00000000    0.01097389    0.00774132
     atom   10 type  1   force =     0.00000000   -0.01097389   -0.00774132
     atom   11 type  1   force =     0.00000000   -0.01106507    0.00785022
     atom   12 type  1   force =     0.00000000    0.01106507   -0.00785022
     atom   13 type  1   force =    -0.01103124    0.00000000    0.00782756
     atom   14 type  1   force =     0.01103124   -0.00000000   -0.00782756
     atom   15 type  1   force =     0.01102511    0.00000000    0.00778746
     atom   16 type  1   force =    -0.01102511   -0.00000000   -0.00778746
     atom   17 type  1   force =     0.01102511   -0.00000000   -0.00778746
     atom   18 type  1   force =    -0.01102511    0.00000000    0.00778746
     atom   19 type  1   force =    -0.01103124   -0.00000000   -0.00782756
     atom   20 type  1   force =     0.01103124    0.00000000    0.00782756
     atom   21 type  1   force =     0.00000000    0.01106506    0.00785022
     atom   22 type  1   force =     0.00000000   -0.01106506   -0.00785022
     atom   23 type  1   force =     0.00000000   -0.01097389    0.00774132
     atom   24 type  1   force =     0.00000000    0.01097389   -0.00774132

     Total force =     0.057031     Total SCF correction =     0.000761


     Computing stress (Cartesian axis) and pressure

          total   stress  (Ry/bohr**3)                   (kbar)     P=      157.27
   0.00107072   0.00000000   0.00000000          157.51        0.00        0.00
   0.00000000   0.00107049  -0.00000000            0.00      157.47       -0.00
   0.00000000  -0.00000000   0.00106618            0.00       -0.00      156.84

     Energy error            =      1.1E-02 Ry
     Gradient error          =      1.1E-02 Ry/Bohr

     number of scf cycles    =   4
     number of bfgs steps    =   3

     energy             old  =    -278.5743118379 Ry
     energy             new  =    -278.5858097478 Ry

     CASE: energy            _new < energy            _old

     new trust radius        =       0.0099621990 bohr
     new conv_thr            =       0.0000000111 Ry


ATOMIC_POSITIONS (crystal)
O               -0.0000000000        0.2499999997        0.6053361133
O               -0.0000000000        0.7500000003        0.3946639157
O                0.5000000000        0.7500000007        0.1053381122
O                0.5000000000        0.2499999993        0.8946618588
O                0.0000000000        0.7500000032        0.8553479836
O                0.0000000000        0.2499999968        0.1446520454
O                0.5000000000        0.2500000009        0.3553376464
O                0.5000000000        0.7499999991        0.6446623246
H                0.0000000000        0.4284205965        0.6989620300
H                0.0000000000        0.5715793735        0.3010379700
H                0.5000000000        0.5715726971        0.1989666558
H                0.5000000000        0.4284272729        0.8010333442
H                0.8215742806        0.7500000012        0.9489717202
H                0.1784256894        0.2499999988        0.0510282798
H                0.6784268859        0.2500000002        0.4489614854
H                0.3215731441        0.7499999998        0.5510385146
H                0.6784268859        0.7499999998        0.5510385146
H                0.3215731441        0.2500000002        0.4489614854
H                0.8215742806        0.2499999988        0.0510282798
H                0.1784256894        0.7500000012        0.9489717202
H                0.5000000000        0.9284273037        0.1989666559
H                0.5000000000        0.0715727263        0.8010333441
H                0.0000000000        0.0715794029        0.6989620304
H                0.0000000000        0.9284206271        0.3010379696



     Writing config-only to output data dir ./iceVIII/iceVIII.save/ :
     XML data file
     NEW-OLD atomic charge density approx. for the potential

     total cpu time spent up to now is       93.3 secs

     per-process dynamical memory:    18.2 Mb

     Self-consistent Calculation

     iteration #  1     ecut=    90.00 Ry     beta= 0.70
     Davidson diagonalization with overlap
     ethr =  1.00E-06,  avg # of iterations =  3.0

     total cpu time spent up to now is       95.9 secs

     total energy              =    -278.58718028 Ry
     estimated scf accuracy    <       0.00026432 Ry

     iteration #  2     ecut=    90.00 Ry     beta= 0.70
     Davidson diagonalization with overlap
     ethr =  4.13E-07,  avg # of iterations =  3.0

     total cpu time spent up to now is       98.1 secs

     total energy              =    -278.58726371 Ry
     estimated scf accuracy    <       0.00006744 Ry

     iteration #  3     ecut=    90.00 Ry     beta= 0.70
     Davidson diagonalization with overlap
     ethr =  1.05E-07,  avg # of iterations =  2.0

     total cpu time spent up to now is       99.8 secs

     total energy              =    -278.58727000 Ry
     estimated scf accuracy    <       0.00000270 Ry

     iteration #  4     ecut=    90.00 Ry     beta= 0.70
     Davidson diagonalization with overlap
     ethr =  4.22E-09,  avg # of iterations =  4.6

     total cpu time spent up to now is      102.3 secs

     total energy              =    -278.58727156 Ry
     estimated scf accuracy    <       0.00000292 Ry

     iteration #  5     ecut=    90.00 Ry     beta= 0.70
     Davidson diagonalization with overlap
     ethr =  4.22E-09,  avg # of iterations =  2.0

     total cpu time spent up to now is      104.2 secs

     total energy              =    -278.58727195 Ry
     estimated scf accuracy    <       0.00000012 Ry

     iteration #  6     ecut=    90.00 Ry     beta= 0.70
     Davidson diagonalization with overlap
     ethr =  1.81E-10,  avg # of iterations =  4.1

     total cpu time spent up to now is      107.0 secs

     total energy              =    -278.58727204 Ry
     estimated scf accuracy    <       0.00000007 Ry

     iteration #  7     ecut=    90.00 Ry     beta= 0.70
     Davidson diagonalization with overlap
     ethr =  1.15E-10,  avg # of iterations =  2.0

     total cpu time spent up to now is      108.7 secs

     End of self-consistent calculation

     Number of k-points >= 100: set verbosity='high' to print the bands.

     highest occupied level (ev):     0.9747

!    total energy              =    -278.58727204 Ry
     estimated scf accuracy    <          9.9E-09 Ry

     The total energy is the sum of the following terms:
     one-electron contribution =    -101.10684825 Ry
     hartree contribution      =      81.69133962 Ry
     xc contribution           =     -71.28983261 Ry
     ewald contribution        =    -187.88193081 Ry

     convergence has been achieved in   7 iterations

     Forces acting on atoms (cartesian axes, Ry/au):

     atom    1 type  2   force =     0.00000000    0.00000000    0.00390439
     atom    2 type  2   force =     0.00000000   -0.00000000   -0.00390439
     atom    3 type  2   force =    -0.00000000   -0.00000000    0.00398606
     atom    4 type  2   force =    -0.00000000    0.00000000   -0.00398606
     atom    5 type  2   force =     0.00000000   -0.00000000    0.00397221
     atom    6 type  2   force =     0.00000000    0.00000000   -0.00397221
     atom    7 type  2   force =     0.00000000   -0.00000000    0.00395298
     atom    8 type  2   force =     0.00000000    0.00000000   -0.00395298
     atom    9 type  1   force =     0.00000000    0.00389896    0.00279474
     atom   10 type  1   force =     0.00000000   -0.00389896   -0.00279474
     atom   11 type  1   force =     0.00000000   -0.00385493    0.00277309
     atom   12 type  1   force =     0.00000000    0.00385493   -0.00277309
     atom   13 type  1   force =    -0.00387431    0.00000000    0.00280429
     atom   14 type  1   force =     0.00387431   -0.00000000   -0.00280429
     atom   15 type  1   force =     0.00388709    0.00000000    0.00278245
     atom   16 type  1   force =    -0.00388709   -0.00000000   -0.00278245
     atom   17 type  1   force =     0.00388709   -0.00000000   -0.00278245
     atom   18 type  1   force =    -0.00388709    0.00000000    0.00278245
     atom   19 type  1   force =    -0.00387431   -0.00000000   -0.00280429
     atom   20 type  1   force =     0.00387431    0.00000000    0.00280429
     atom   21 type  1   force =     0.00000000    0.00385493    0.00277309
     atom   22 type  1   force =     0.00000000   -0.00385493   -0.00277309
     atom   23 type  1   force =     0.00000000   -0.00389896    0.00279474
     atom   24 type  1   force =     0.00000000    0.00389896   -0.00279474

     Total force =     0.022141     Total SCF correction =     0.000114


     Computing stress (Cartesian axis) and pressure

          total   stress  (Ry/bohr**3)                   (kbar)     P=      141.65
   0.00096828   0.00000000   0.00000000          142.44        0.00        0.00
   0.00000000   0.00096813   0.00000000            0.00      142.42        0.00
   0.00000000   0.00000000   0.00095242            0.00        0.00      140.11

     Energy error            =      1.5E-03 Ry
     Gradient error          =      4.0E-03 Ry/Bohr

     number of scf cycles    =   5
     number of bfgs steps    =   4

     energy             old  =    -278.5858097478 Ry
     energy             new  =    -278.5872720420 Ry

     CASE: energy            _new < energy            _old

     new trust radius        =       0.0094935706 bohr
     new conv_thr            =       0.0000000040 Ry


ATOMIC_POSITIONS (crystal)
O               -0.0000000000        0.2499999998        0.6059713674
O               -0.0000000000        0.7500000002        0.3940286616
O                0.5000000000        0.7500000003        0.1059789903
O                0.5000000000        0.2499999997        0.8940209807
O                0.0000000000        0.7500000024        0.8559894959
O                0.0000000000        0.2499999976        0.1440105331
O                0.5000000000        0.2500000008        0.3559771633
O                0.5000000000        0.7499999992        0.6440228077
H                0.0000000000        0.4294062619        0.6993508827
H                0.0000000000        0.5705937081        0.3006491173
H                0.5000000000        0.5705916812        0.1993552729
H                0.5000000000        0.4294082888        0.8006447271
H                0.8205909739        0.7500000013        0.9493636953
H                0.1794089961        0.2499999987        0.0506363047
H                0.6794121428        0.2500000002        0.4493497935
H                0.3205878872        0.7499999998        0.5506502065
H                0.6794121428        0.7499999998        0.5506502065
H                0.3205878872        0.2500000002        0.4493497935
H                0.8205909739        0.2499999987        0.0506363047
H                0.1794089961        0.7500000013        0.9493636953
H                0.5000000000        0.9294083198        0.1993552731
H                0.5000000000        0.0705917102        0.8006447269
H                0.0000000000        0.0705937377        0.6993508831
H                0.0000000000        0.9294062923        0.3006491169



     Writing config-only to output data dir ./iceVIII/iceVIII.save/ :
     XML data file
     NEW-OLD atomic charge density approx. for the potential

     total cpu time spent up to now is      110.4 secs

     per-process dynamical memory:    18.6 Mb

     Self-consistent Calculation

     iteration #  1     ecut=    90.00 Ry     beta= 0.70
     Davidson diagonalization with overlap
     ethr =  1.00E-06,  avg # of iterations =  4.0

     total cpu time spent up to now is      113.2 secs

     total energy              =    -278.58796222 Ry
     estimated scf accuracy    <       0.00007519 Ry

     iteration #  2     ecut=    90.00 Ry     beta= 0.70
     Davidson diagonalization with overlap
     ethr =  1.17E-07,  avg # of iterations =  2.2

     total cpu time spent up to now is      115.0 secs

     total energy              =    -278.58797938 Ry
     estimated scf accuracy    <       0.00000533 Ry

     iteration #  3     ecut=    90.00 Ry     beta= 0.70
     Davidson diagonalization with overlap
     ethr =  8.34E-09,  avg # of iterations =  2.6

     total cpu time spent up to now is      117.1 secs

     total energy              =    -278.58798089 Ry
     estimated scf accuracy    <       0.00000073 Ry

     iteration #  4     ecut=    90.00 Ry     beta= 0.70
     Davidson diagonalization with overlap
     ethr =  1.14E-09,  avg # of iterations =  2.4

     total cpu time spent up to now is      118.9 secs

     total energy              =    -278.58798101 Ry
     estimated scf accuracy    <       0.00000003 Ry

     iteration #  5     ecut=    90.00 Ry     beta= 0.70
     Davidson diagonalization with overlap
     ethr =  5.40E-11,  avg # of iterations =  4.3

     total cpu time spent up to now is      121.3 secs

     End of self-consistent calculation

     Number of k-points >= 100: set verbosity='high' to print the bands.

     highest occupied level (ev):     0.9857

!    total energy              =    -278.58798102 Ry
     estimated scf accuracy    <          1.7E-09 Ry

     The total energy is the sum of the following terms:
     one-electron contribution =    -100.76566375 Ry
     hartree contribution      =      81.54196377 Ry
     xc contribution           =     -71.26077662 Ry
     ewald contribution        =    -188.10350442 Ry

     convergence has been achieved in   5 iterations

     Forces acting on atoms (cartesian axes, Ry/au):

     atom    1 type  2   force =     0.00000000    0.00000000    0.00527818
     atom    2 type  2   force =     0.00000000   -0.00000000   -0.00527818
     atom    3 type  2   force =     0.00000000    0.00000000    0.00525379
     atom    4 type  2   force =     0.00000000   -0.00000000   -0.00525379
     atom    5 type  2   force =     0.00000000   -0.00000000    0.00528851
     atom    6 type  2   force =     0.00000000    0.00000000   -0.00528851
     atom    7 type  2   force =     0.00000000   -0.00000000    0.00525453
     atom    8 type  2   force =     0.00000000    0.00000000   -0.00525453
     atom    9 type  1   force =     0.00000000   -0.00008301    0.00180209
     atom   10 type  1   force =     0.00000000    0.00008301   -0.00180209
     atom   11 type  1   force =     0.00000000    0.00008277    0.00182036
     atom   12 type  1   force =     0.00000000   -0.00008277   -0.00182036
     atom   13 type  1   force =     0.00008373   -0.00000000    0.00182955
     atom   14 type  1   force =    -0.00008373    0.00000000   -0.00182955
     atom   15 type  1   force =    -0.00007813    0.00000000    0.00181461
     atom   16 type  1   force =     0.00007813   -0.00000000   -0.00181461
     atom   17 type  1   force =    -0.00007813   -0.00000000   -0.00181461
     atom   18 type  1   force =     0.00007813    0.00000000    0.00181461
     atom   19 type  1   force =     0.00008373    0.00000000   -0.00182955
     atom   20 type  1   force =    -0.00008373   -0.00000000    0.00182955
     atom   21 type  1   force =     0.00000000   -0.00008278    0.00182036
     atom   22 type  1   force =     0.00000000    0.00008278   -0.00182036
     atom   23 type  1   force =     0.00000000    0.00008301    0.00180208
     atom   24 type  1   force =     0.00000000   -0.00008301   -0.00180208

     Total force =     0.016583     Total SCF correction =     0.000101


     Computing stress (Cartesian axis) and pressure

          total   stress  (Ry/bohr**3)                   (kbar)     P=      134.04
   0.00090971   0.00000000   0.00000000          133.82        0.00        0.00
   0.00000000   0.00090958  -0.00000000            0.00      133.80       -0.00
   0.00000000  -0.00000000   0.00091427            0.00       -0.00      134.49

     Energy error            =      7.1E-04 Ry
     Gradient error          =      5.3E-03 Ry/Bohr

     number of scf cycles    =   6
     number of bfgs steps    =   5

     energy             old  =    -278.5872720420 Ry
     energy             new  =    -278.5879810159 Ry

     CASE: energy            _new < energy            _old

     new trust radius        =       0.0136372869 bohr
     new conv_thr            =       0.0000000053 Ry


ATOMIC_POSITIONS (crystal)
O               -0.0000000000        0.2500000000        0.6070991002
O               -0.0000000000        0.7500000000        0.3929009288
O                0.5000000000        0.7500000009        0.1070996548
O                0.5000000000        0.2499999991        0.8929003162
O                0.0000000000        0.7500000013        0.8571192196
O                0.0000000000        0.2499999987        0.1428808094
O                0.5000000000        0.2500000005        0.3571008692
O                0.5000000000        0.7499999995        0.6428991018
H                0.0000000000        0.4303052115        0.6999659273
H                0.0000000000        0.5696947585        0.3000340727
H                0.5000000000        0.5696905026        0.1999764666
H                0.5000000000        0.4303094674        0.8000235334
H                0.8196905838        0.7500000014        0.9499871767
H                0.1803093862        0.2499999986        0.0500128233
H                0.6803144160        0.2500000003        0.4499679259
H                0.3196856140        0.7499999997        0.5500320741
H                0.6803144160        0.7499999997        0.5500320741
H                0.3196856140        0.2500000003        0.4499679259
H                0.8196905838        0.2499999986        0.0500128233
H                0.1803093862        0.7500000014        0.9499871767
H                0.5000000000        0.9303094977        0.1999764664
H                0.5000000000        0.0696905323        0.8000235336
H                0.0000000000        0.0696947884        0.6999659276
H                0.0000000000        0.9303052416        0.3000340724



     Writing config-only to output data dir ./iceVIII/iceVIII.save/ :
     XML data file
     NEW-OLD atomic charge density approx. for the potential

     total cpu time spent up to now is      123.0 secs

     per-process dynamical memory:    18.2 Mb

     Self-consistent Calculation

     iteration #  1     ecut=    90.00 Ry     beta= 0.70
     Davidson diagonalization with overlap
     ethr =  1.00E-06,  avg # of iterations =  4.2

     total cpu time spent up to now is      126.2 secs

     total energy              =    -278.58848333 Ry
     estimated scf accuracy    <       0.00017248 Ry

     iteration #  2     ecut=    90.00 Ry     beta= 0.70
     Davidson diagonalization with overlap
     ethr =  2.69E-07,  avg # of iterations =  2.1

     total cpu time spent up to now is      128.1 secs

     total energy              =    -278.58851515 Ry
     estimated scf accuracy    <       0.00000853 Ry

     iteration #  3     ecut=    90.00 Ry     beta= 0.70
     Davidson diagonalization with overlap
     ethr =  1.33E-08,  avg # of iterations =  3.1

     total cpu time spent up to now is      130.3 secs

     total energy              =    -278.58851734 Ry
     estimated scf accuracy    <       0.00000136 Ry

     iteration #  4     ecut=    90.00 Ry     beta= 0.70
     Davidson diagonalization with overlap
     ethr =  2.13E-09,  avg # of iterations =  2.1

     total cpu time spent up to now is      132.3 secs

     total energy              =    -278.58851764 Ry
     estimated scf accuracy    <       0.00000016 Ry

     iteration #  5     ecut=    90.00 Ry     beta= 0.70
     Davidson diagonalization with overlap
     ethr =  2.49E-10,  avg # of iterations =  2.0

     total cpu time spent up to now is      134.1 secs

     total energy              =    -278.58851765 Ry
     estimated scf accuracy    <       0.00000001 Ry

     iteration #  6     ecut=    90.00 Ry     beta= 0.70
     Davidson diagonalization with overlap
     ethr =  2.19E-11,  avg # of iterations =  2.7

     total cpu time spent up to now is      136.2 secs

     End of self-consistent calculation

     Number of k-points >= 100: set verbosity='high' to print the bands.

     highest occupied level (ev):     0.9969

!    total energy              =    -278.58851766 Ry
     estimated scf accuracy    <          6.8E-10 Ry

     The total energy is the sum of the following terms:
     one-electron contribution =    -100.50039606 Ry
     hartree contribution      =      81.42109925 Ry
     xc contribution           =     -71.24562530 Ry
     ewald contribution        =    -188.26359554 Ry

     convergence has been achieved in   6 iterations

     Forces acting on atoms (cartesian axes, Ry/au):

     atom    1 type  2   force =     0.00000000   -0.00000000    0.00344541
     atom    2 type  2   force =     0.00000000    0.00000000   -0.00344541
     atom    3 type  2   force =     0.00000000   -0.00000001    0.00352850
     atom    4 type  2   force =     0.00000000    0.00000001   -0.00352850
     atom    5 type  2   force =     0.00000000   -0.00000000    0.00350732
     atom    6 type  2   force =     0.00000000    0.00000000   -0.00350732
     atom    7 type  2   force =    -0.00000000    0.00000000    0.00347652
     atom    8 type  2   force =    -0.00000000   -0.00000000   -0.00347652
     atom    9 type  1   force =     0.00000000   -0.00275345    0.00210000
     atom   10 type  1   force =     0.00000000    0.00275345   -0.00210000
     atom   11 type  1   force =     0.00000000    0.00281459    0.00205285
     atom   12 type  1   force =     0.00000000   -0.00281459   -0.00205285
     atom   13 type  1   force =     0.00278454   -0.00000000    0.00209028
     atom   14 type  1   force =    -0.00278454    0.00000000   -0.00209028
     atom   15 type  1   force =    -0.00279563    0.00000000    0.00207517
     atom   16 type  1   force =     0.00279563   -0.00000000   -0.00207517
     atom   17 type  1   force =    -0.00279563   -0.00000000   -0.00207517
     atom   18 type  1   force =     0.00279563    0.00000000    0.00207517
     atom   19 type  1   force =     0.00278454    0.00000000   -0.00209028
     atom   20 type  1   force =    -0.00278454   -0.00000000    0.00209028
     atom   21 type  1   force =     0.00000000   -0.00281459    0.00205286
     atom   22 type  1   force =     0.00000000    0.00281459   -0.00205286
     atom   23 type  1   force =     0.00000000    0.00275345    0.00210000
     atom   24 type  1   force =     0.00000000   -0.00275345   -0.00210000

     Total force =     0.017056     Total SCF correction =     0.000011


     Computing stress (Cartesian axis) and pressure

          total   stress  (Ry/bohr**3)                   (kbar)     P=      129.38
   0.00086855   0.00000000   0.00000000          127.77        0.00        0.00
   0.00000000   0.00086850   0.00000000            0.00      127.76        0.00
   0.00000000   0.00000000   0.00090140            0.00        0.00      132.60

     Energy error            =      5.4E-04 Ry
     Gradient error          =      3.5E-03 Ry/Bohr

     number of scf cycles    =   7
     number of bfgs steps    =   6

     energy             old  =    -278.5879810159 Ry
     energy             new  =    -278.5885176555 Ry

     CASE: energy            _new < energy            _old

     new trust radius        =       0.0133159650 bohr
     new conv_thr            =       0.0000000035 Ry


ATOMIC_POSITIONS (crystal)
O               -0.0000000000        0.2500000000        0.6081923616
O               -0.0000000000        0.7500000000        0.3918076674
O                0.5000000000        0.7499999996        0.1081994970
O                0.5000000000        0.2500000004        0.8918004740
O                0.0000000000        0.7500000003        0.8582223248
O                0.0000000000        0.2499999997        0.1417777042
O                0.5000000000        0.2500000003        0.3581964814
O                0.5000000000        0.7499999997        0.6418034896
H                0.0000000000        0.4307055044        0.7007522678
H                0.0000000000        0.5692944656        0.2992477322
H                0.5000000000        0.5693002352        0.2007609745
H                0.5000000000        0.4306997348        0.7992390255
H                0.8192950372        0.7500000014        0.9507783506
H                0.1807049328        0.2499999986        0.0492216494
H                0.6807092128        0.2500000003        0.4507529426
H                0.3192908172        0.7499999997        0.5492470574
H                0.6807092128        0.7499999997        0.5492470574
H                0.3192908172        0.2500000003        0.4507529426
H                0.8192950372        0.2499999986        0.0492216494
H                0.1807049328        0.7500000014        0.9507783506
H                0.5000000000        0.9306997660        0.2007609748
H                0.5000000000        0.0693002640        0.7992390252
H                0.0000000000        0.0692944959        0.7007522679
H                0.0000000000        0.9307055341        0.2992477321



     Writing config-only to output data dir ./iceVIII/iceVIII.save/ :
     XML data file
     NEW-OLD atomic charge density approx. for the potential

     total cpu time spent up to now is      137.9 secs

     per-process dynamical memory:    18.7 Mb

     Self-consistent Calculation

     iteration #  1     ecut=    90.00 Ry     beta= 0.70
     Davidson diagonalization with overlap
     ethr =  1.00E-06,  avg # of iterations =  4.3

     total cpu time spent up to now is      141.1 secs

     total energy              =    -278.58891341 Ry
     estimated scf accuracy    <       0.00016756 Ry

     iteration #  2     ecut=    90.00 Ry     beta= 0.70
     Davidson diagonalization with overlap
     ethr =  2.62E-07,  avg # of iterations =  2.2

     total cpu time spent up to now is      143.0 secs

     total energy              =    -278.58894458 Ry
     estimated scf accuracy    <       0.00000837 Ry

     iteration #  3     ecut=    90.00 Ry     beta= 0.70
     Davidson diagonalization with overlap
     ethr =  1.31E-08,  avg # of iterations =  3.8

     total cpu time spent up to now is      145.2 secs

     total energy              =    -278.58894672 Ry
     estimated scf accuracy    <       0.00000084 Ry

     iteration #  4     ecut=    90.00 Ry     beta= 0.70
     Davidson diagonalization with overlap
     ethr =  1.32E-09,  avg # of iterations =  2.8

     total cpu time spent up to now is      147.3 secs

     total energy              =    -278.58894689 Ry
     estimated scf accuracy    <       0.00000014 Ry

     iteration #  5     ecut=    90.00 Ry     beta= 0.70
     Davidson diagonalization with overlap
     ethr =  2.21E-10,  avg # of iterations =  2.2

     total cpu time spent up to now is      149.4 secs

     total energy              =    -278.58894691 Ry
     estimated scf accuracy    <          4.0E-09 Ry

     iteration #  6     ecut=    90.00 Ry     beta= 0.70
     Davidson diagonalization with overlap
     ethr =  6.29E-12,  avg # of iterations =  3.9

     total cpu time spent up to now is      151.9 secs

     End of self-consistent calculation

     Number of k-points >= 100: set verbosity='high' to print the bands.

     highest occupied level (ev):     1.0048

!    total energy              =    -278.58894692 Ry
     estimated scf accuracy    <          2.0E-09 Ry

     The total energy is the sum of the following terms:
     one-electron contribution =    -100.34587796 Ry
     hartree contribution      =      81.34686366 Ry
     xc contribution           =     -71.24232120 Ry
     ewald contribution        =    -188.34761142 Ry

     convergence has been achieved in   6 iterations

     Forces acting on atoms (cartesian axes, Ry/au):

     atom    1 type  2   force =     0.00000000    0.00000000    0.00129005
     atom    2 type  2   force =     0.00000000   -0.00000000   -0.00129005
     atom    3 type  2   force =     0.00000000    0.00000001    0.00123435
     atom    4 type  2   force =     0.00000000   -0.00000001   -0.00123435
     atom    5 type  2   force =    -0.00000000    0.00000000    0.00128129
     atom    6 type  2   force =    -0.00000000   -0.00000000   -0.00128129
     atom    7 type  2   force =     0.00000000   -0.00000000    0.00123218
     atom    8 type  2   force =     0.00000000    0.00000000   -0.00123218
     atom    9 type  1   force =     0.00000000   -0.00362111    0.00248473
     atom   10 type  1   force =     0.00000000    0.00362111   -0.00248473
     atom   11 type  1   force =     0.00000000    0.00360273    0.00249961
     atom   12 type  1   force =     0.00000000   -0.00360273   -0.00249961
     atom   13 type  1   force =     0.00360906   -0.00000000    0.00250250
     atom   14 type  1   force =    -0.00360906    0.00000000   -0.00250250
     atom   15 type  1   force =    -0.00362516   -0.00000000    0.00249468
     atom   16 type  1   force =     0.00362516    0.00000000   -0.00249468
     atom   17 type  1   force =    -0.00362516    0.00000000   -0.00249468
     atom   18 type  1   force =     0.00362516   -0.00000000    0.00249468
     atom   19 type  1   force =     0.00360906    0.00000000   -0.00250250
     atom   20 type  1   force =    -0.00360906   -0.00000000    0.00250250
     atom   21 type  1   force =     0.00000000   -0.00360274    0.00249960
     atom   22 type  1   force =     0.00000000    0.00360274   -0.00249960
     atom   23 type  1   force =     0.00000000    0.00362111    0.00248473
     atom   24 type  1   force =     0.00000000   -0.00362111   -0.00248473

     Total force =     0.017927     Total SCF correction =     0.000085


     Computing stress (Cartesian axis) and pressure

          total   stress  (Ry/bohr**3)                   (kbar)     P=      128.01
   0.00085438   0.00000000   0.00000000          125.68        0.00        0.00
   0.00000000   0.00085426  -0.00000000            0.00      125.67       -0.00
   0.00000000  -0.00000000   0.00090184            0.00       -0.00      132.67

     Energy error            =      4.3E-04 Ry
     Gradient error          =      3.6E-03 Ry/Bohr

     number of scf cycles    =   8
     number of bfgs steps    =   7

     energy             old  =    -278.5885176555 Ry
     energy             new  =    -278.5889469152 Ry

     CASE: energy            _new < energy            _old

     new trust radius        =       0.0146475615 bohr
     new conv_thr            =       0.0000000036 Ry


ATOMIC_POSITIONS (crystal)
O               -0.0000000000        0.2500000002        0.6093987668
O               -0.0000000000        0.7499999998        0.3906012622
O                0.5000000000        0.7500000007        0.1094024423
O                0.5000000000        0.2499999993        0.8905975287
O                0.0000000000        0.7499999993        0.8594357405
O                0.0000000000        0.2500000007        0.1405642885
O                0.5000000000        0.2499999999        0.3593971812
O                0.5000000000        0.7500000001        0.6406027898
H                0.0000000000        0.4308114159        0.7018411541
H                0.0000000000        0.5691885541        0.2981588459
H                0.5000000000        0.5691978751        0.2018522227
H                0.5000000000        0.4308020949        0.7981477773
H                0.8191901518        0.7500000012        0.9518754946
H                0.1808098182        0.2499999988        0.0481245054
H                0.6808117933        0.2500000003        0.4518429687
H                0.3191882367        0.7499999997        0.5481570313
H                0.6808117933        0.7499999997        0.5481570313
H                0.3191882367        0.2500000003        0.4518429687
H                0.8191901518        0.2499999988        0.0481245054
H                0.1808098182        0.7500000012        0.9518754946
H                0.5000000000        0.9308021248        0.2018522225
H                0.5000000000        0.0691979052        0.7981477775
H                0.0000000000        0.0691885847        0.7018411542
H                0.0000000000        0.9308114453        0.2981588458



     Writing config-only to output data dir ./iceVIII/iceVIII.save/ :
     XML data file
     NEW-OLD atomic charge density approx. for the potential

     total cpu time spent up to now is      153.6 secs

     per-process dynamical memory:    18.6 Mb

     Self-consistent Calculation

     iteration #  1     ecut=    90.00 Ry     beta= 0.70
     Davidson diagonalization with overlap
     ethr =  1.00E-06,  avg # of iterations =  4.2

     total cpu time spent up to now is      156.8 secs

     total energy              =    -278.58943195 Ry
     estimated scf accuracy    <       0.00021615 Ry

     iteration #  2     ecut=    90.00 Ry     beta= 0.70
     Davidson diagonalization with overlap
     ethr =  3.38E-07,  avg # of iterations =  2.0

     total cpu time spent up to now is      158.6 secs

     total energy              =    -278.58946840 Ry
     estimated scf accuracy    <       0.00001166 Ry

     iteration #  3     ecut=    90.00 Ry     beta= 0.70
     Davidson diagonalization with overlap
     ethr =  1.82E-08,  avg # of iterations =  3.5

     total cpu time spent up to now is      160.8 secs

     total energy              =    -278.58947122 Ry
     estimated scf accuracy    <       0.00000102 Ry

     iteration #  4     ecut=    90.00 Ry     beta= 0.70
     Davidson diagonalization with overlap
     ethr =  1.60E-09,  avg # of iterations =  2.9

     total cpu time spent up to now is      163.0 secs

     total energy              =    -278.58947144 Ry
     estimated scf accuracy    <       0.00000016 Ry

     iteration #  5     ecut=    90.00 Ry     beta= 0.70
     Davidson diagonalization with overlap
     ethr =  2.46E-10,  avg # of iterations =  2.7

     total cpu time spent up to now is      165.1 secs

     total energy              =    -278.58947148 Ry
     estimated scf accuracy    <          4.9E-09 Ry

     iteration #  6     ecut=    90.00 Ry     beta= 0.70
     Davidson diagonalization with overlap
     ethr =  7.59E-12,  avg # of iterations =  3.9

     total cpu time spent up to now is      167.7 secs

     End of self-consistent calculation

     Number of k-points >= 100: set verbosity='high' to print the bands.

     highest occupied level (ev):     1.0124

!    total energy              =    -278.58947148 Ry
     estimated scf accuracy    <          2.4E-09 Ry

     The total energy is the sum of the following terms:
     one-electron contribution =    -100.21082024 Ry
     hartree contribution      =      81.27877882 Ry
     xc contribution           =     -71.24202420 Ry
     ewald contribution        =    -188.41540586 Ry

     convergence has been achieved in   6 iterations

     Forces acting on atoms (cartesian axes, Ry/au):

     atom    1 type  2   force =    -0.00000000   -0.00000000   -0.00063534
     atom    2 type  2   force =    -0.00000000    0.00000000    0.00063534
     atom    3 type  2   force =    -0.00000000   -0.00000001   -0.00063644
     atom    4 type  2   force =    -0.00000000    0.00000001    0.00063644
     atom    5 type  2   force =     0.00000000    0.00000000   -0.00063319
     atom    6 type  2   force =     0.00000000   -0.00000000    0.00063319
     atom    7 type  2   force =     0.00000000    0.00000000   -0.00064971
     atom    8 type  2   force =     0.00000000   -0.00000000    0.00064971
     atom    9 type  1   force =     0.00000000   -0.00358407    0.00262256
     atom   10 type  1   force =     0.00000000    0.00358407   -0.00262256
     atom   11 type  1   force =     0.00000000    0.00356829    0.00261532
     atom   12 type  1   force =     0.00000000   -0.00356829   -0.00261532
     atom   13 type  1   force =     0.00357023   -0.00000000    0.00262633
     atom   14 type  1   force =    -0.00357023    0.00000000   -0.00262633
     atom   15 type  1   force =    -0.00359674   -0.00000000    0.00261356
     atom   16 type  1   force =     0.00359674    0.00000000   -0.00261356
     atom   17 type  1   force =    -0.00359674    0.00000000   -0.00261356
     atom   18 type  1   force =     0.00359674   -0.00000000    0.00261356
     atom   19 type  1   force =     0.00357023    0.00000000   -0.00262633
     atom   20 type  1   force =    -0.00357023   -0.00000000    0.00262633
     atom   21 type  1   force =     0.00000000   -0.00356828    0.00261532
     atom   22 type  1   force =     0.00000000    0.00356828   -0.00261532
     atom   23 type  1   force =     0.00000000    0.00358407    0.00262256
     atom   24 type  1   force =     0.00000000   -0.00358407   -0.00262256

     Total force =     0.017835     Total SCF correction =     0.000088


     Computing stress (Cartesian axis) and pressure

          total   stress  (Ry/bohr**3)                   (kbar)     P=      127.49
   0.00084964   0.00000000   0.00000000          124.99        0.00        0.00
   0.00000000   0.00084948   0.00000000            0.00      124.96        0.00
   0.00000000   0.00000000   0.00090085            0.00        0.00      132.52

     Energy error            =      5.2E-04 Ry
     Gradient error          =      3.6E-03 Ry/Bohr

     number of scf cycles    =   9
     number of bfgs steps    =   8

     energy             old  =    -278.5889469152 Ry
     energy             new  =    -278.5894714812 Ry

     CASE: energy            _new < energy            _old

     new trust radius        =       0.0219713423 bohr
     new conv_thr            =       0.0000000036 Ry


ATOMIC_POSITIONS (crystal)
O               -0.0000000000        0.2500000002        0.6110555217
O               -0.0000000000        0.7499999998        0.3889445073
O                0.5000000000        0.7499999982        0.1110647734
O                0.5000000000        0.2500000018        0.8889351976
O                0.0000000000        0.7499999980        0.8611071384
O                0.0000000000        0.2500000020        0.1388928906
O                0.5000000000        0.2499999997        0.3610518887
O                0.5000000000        0.7500000003        0.6389480823
H                0.0000000000        0.4306037163        0.7036453783
H                0.0000000000        0.5693962537        0.2963546217
H                0.5000000000        0.5694143962        0.2036548006
H                0.5000000000        0.4305855738        0.7963451994
H                0.8194004250        0.7500000009        0.9536897691
H                0.1805995450        0.2499999991        0.0463102309
H                0.6805945220        0.2500000003        0.4536451644
H                0.3194055080        0.7499999997        0.5463548356
H                0.6805945220        0.7499999997        0.5463548356
H                0.3194055080        0.2500000003        0.4536451644
H                0.8194004250        0.2499999991        0.0463102309
H                0.1805995450        0.7500000009        0.9536897691
H                0.5000000000        0.9305856055        0.2036548014
H                0.5000000000        0.0694144245        0.7963451986
H                0.0000000000        0.0693962849        0.7036453781
H                0.0000000000        0.9306037451        0.2963546219



     Writing config-only to output data dir ./iceVIII/iceVIII.save/ :
     XML data file
     NEW-OLD atomic charge density approx. for the potential

     total cpu time spent up to now is      169.3 secs

     per-process dynamical memory:    18.9 Mb

     Self-consistent Calculation

     iteration #  1     ecut=    90.00 Ry     beta= 0.70
     Davidson diagonalization with overlap
     ethr =  1.00E-06,  avg # of iterations =  5.0

     total cpu time spent up to now is      172.9 secs

     total energy              =    -278.59009916 Ry
     estimated scf accuracy    <       0.00046464 Ry

     iteration #  2     ecut=    90.00 Ry     beta= 0.70
     Davidson diagonalization with overlap
     ethr =  7.26E-07,  avg # of iterations =  2.0

     total cpu time spent up to now is      174.6 secs

     total energy              =    -278.59016367 Ry
     estimated scf accuracy    <       0.00002814 Ry

     iteration #  3     ecut=    90.00 Ry     beta= 0.70
     Davidson diagonalization with overlap
     ethr =  4.40E-08,  avg # of iterations =  2.3

     total cpu time spent up to now is      176.6 secs

     total energy              =    -278.59017103 Ry
     estimated scf accuracy    <       0.00000462 Ry

     iteration #  4     ecut=    90.00 Ry     beta= 0.70
     Davidson diagonalization with overlap
     ethr =  7.21E-09,  avg # of iterations =  2.5

     total cpu time spent up to now is      178.8 secs

     total energy              =    -278.59017210 Ry
     estimated scf accuracy    <       0.00000042 Ry

     iteration #  5     ecut=    90.00 Ry     beta= 0.70
     Davidson diagonalization with overlap
     ethr =  6.56E-10,  avg # of iterations =  2.1

     total cpu time spent up to now is      180.7 secs

     total energy              =    -278.59017214 Ry
     estimated scf accuracy    <       0.00000004 Ry

     iteration #  6     ecut=    90.00 Ry     beta= 0.70
     Davidson diagonalization with overlap
     ethr =  6.44E-11,  avg # of iterations =  2.8

     total cpu time spent up to now is      182.9 secs

     End of self-consistent calculation

     Number of k-points >= 100: set verbosity='high' to print the bands.

     highest occupied level (ev):     1.0223

!    total energy              =    -278.59017215 Ry
     estimated scf accuracy    <          2.4E-09 Ry

     The total energy is the sum of the following terms:
     one-electron contribution =    -100.05337435 Ry
     hartree contribution      =      81.19674394 Ry
     xc contribution           =     -71.24321639 Ry
     ewald contribution        =    -188.49032535 Ry

     convergence has been achieved in   6 iterations

     Forces acting on atoms (cartesian axes, Ry/au):

     atom    1 type  2   force =     0.00000000    0.00000000   -0.00212799
     atom    2 type  2   force =     0.00000000   -0.00000000    0.00212799
     atom    3 type  2   force =    -0.00000000    0.00000003   -0.00218839
     atom    4 type  2   force =    -0.00000000   -0.00000003    0.00218839
     atom    5 type  2   force =     0.00000000    0.00000000   -0.00217656
     atom    6 type  2   force =     0.00000000   -0.00000000    0.00217656
     atom    7 type  2   force =    -0.00000000   -0.00000000   -0.00217819
     atom    8 type  2   force =    -0.00000000    0.00000000    0.00217819
[...]
     atom   11 type  1   force =     0.00000000    0.00262414    0.00221007
     atom   12 type  1   force =     0.00000000   -0.00262414   -0.00221007
     atom   13 type  1   force =     0.00266891   -0.00000000    0.00218772
     atom   14 type  1   force =    -0.00266891    0.00000000   -0.00218772
     atom   15 type  1   force =    -0.00267724   -0.00000000    0.00218836
     atom   16 type  1   force =     0.00267724    0.00000000   -0.00218836
     atom   17 type  1   force =    -0.00267724    0.00000000   -0.00218836
     atom   18 type  1   force =     0.00267724   -0.00000000    0.00218836
     atom   19 type  1   force =     0.00266891    0.00000000   -0.00218772
     atom   20 type  1   force =    -0.00266891   -0.00000000    0.00218772
     atom   21 type  1   force =     0.00000000   -0.00262417    0.00221005
     atom   22 type  1   force =     0.00000000    0.00262417   -0.00221005
     atom   23 type  1   force =     0.00000000    0.00271520    0.00217380
     atom   24 type  1   force =     0.00000000   -0.00271520   -0.00217380

     Total force =     0.015117     Total SCF correction =     0.000076


     Computing stress (Cartesian axis) and pressure

          total   stress  (Ry/bohr**3)                   (kbar)     P=      127.55
   0.00085327   0.00000000   0.00000000          125.52        0.00        0.00
   0.00000000   0.00085306  -0.00000000            0.00      125.49       -0.00
   0.00000000  -0.00000000   0.00089492            0.00       -0.00      131.65

     Energy error            =      7.0E-04 Ry
     Gradient error          =      2.7E-03 Ry/Bohr

     number of scf cycles    =  10
     number of bfgs steps    =   9

     energy             old  =    -278.5894714812 Ry
     energy             new  =    -278.5901721510 Ry

     CASE: energy            _new < energy            _old

     new trust radius        =       0.0264971551 bohr
     new conv_thr            =       0.0000000027 Ry


ATOMIC_POSITIONS (crystal)
O               -0.0000000000        0.2500000010        0.6126530217
O               -0.0000000000        0.7499999990        0.3873470073
O                0.5000000000        0.7500000036        0.1126623423
O                0.5000000000        0.2499999964        0.8873376287
O                0.0000000000        0.7499999973        0.8627146442
O                0.0000000000        0.2500000027        0.1372853848
O                0.5000000000        0.2499999992        0.3626415234
O                0.5000000000        0.7500000008        0.6373584476
H                0.0000000000        0.4299546396        0.7057824487
H                0.0000000000        0.5700453304        0.2942175513
H                0.5000000000        0.5700561865        0.2057947131
H                0.5000000000        0.4299437835        0.7942052869
H                0.8200447104        0.7500000003        0.9558388734
H                0.1799552596        0.2499999997        0.0441611266
H                0.6799439616        0.2500000002        0.4557822874
H                0.3200560684        0.7499999998        0.5442177126
H                0.6799439616        0.7499999998        0.5442177126
H                0.3200560684        0.2500000002        0.4557822874
H                0.8200447104        0.2499999997        0.0441611266
H                0.1799552596        0.7500000003        0.9558388734
H                0.5000000000        0.9299438100        0.2057947116
H                0.5000000000        0.0700562200        0.7942052884
H                0.0000000000        0.0700453615        0.7057824485
H                0.0000000000        0.9299546685        0.2942175515



     Writing config-only to output data dir ./iceVIII/iceVIII.save/ :
     XML data file
     NEW-OLD atomic charge density approx. for the potential

     total cpu time spent up to now is      184.5 secs

     per-process dynamical memory:    18.9 Mb

     Self-consistent Calculation

     iteration #  1     ecut=    90.00 Ry     beta= 0.70
     Davidson diagonalization with overlap
     ethr =  1.00E-06,  avg # of iterations =  5.0

     total cpu time spent up to now is      188.1 secs

     total energy              =    -278.59056110 Ry
     estimated scf accuracy    <       0.00047917 Ry

     iteration #  2     ecut=    90.00 Ry     beta= 0.70
     Davidson diagonalization with overlap
     ethr =  7.49E-07,  avg # of iterations =  2.0

     total cpu time spent up to now is      189.7 secs

     total energy              =    -278.59062192 Ry
     estimated scf accuracy    <       0.00003120 Ry

     iteration #  3     ecut=    90.00 Ry     beta= 0.70
     Davidson diagonalization with overlap
     ethr =  4.88E-08,  avg # of iterations =  2.5

     total cpu time spent up to now is      191.8 secs

     total energy              =    -278.59063017 Ry
     estimated scf accuracy    <       0.00000497 Ry

     iteration #  4     ecut=    90.00 Ry     beta= 0.70
     Davidson diagonalization with overlap
     ethr =  7.77E-09,  avg # of iterations =  2.5

     total cpu time spent up to now is      193.9 secs

     total energy              =    -278.59063133 Ry
     estimated scf accuracy    <       0.00000048 Ry

     iteration #  5     ecut=    90.00 Ry     beta= 0.70
     Davidson diagonalization with overlap
     ethr =  7.45E-10,  avg # of iterations =  2.0

     total cpu time spent up to now is      195.8 secs

     total energy              =    -278.59063138 Ry
     estimated scf accuracy    <       0.00000006 Ry

     iteration #  6     ecut=    90.00 Ry     beta= 0.70
     Davidson diagonalization with overlap
     ethr =  8.90E-11,  avg # of iterations =  2.5

     total cpu time spent up to now is      197.9 secs

     End of self-consistent calculation

     Number of k-points >= 100: set verbosity='high' to print the bands.

     highest occupied level (ev):     1.0310

!    total energy              =    -278.59063139 Ry
     estimated scf accuracy    <          2.2E-09 Ry

     The total energy is the sum of the following terms:
     one-electron contribution =     -99.92685962 Ry
     hartree contribution      =      81.12759541 Ry
     xc contribution           =     -71.24498875 Ry
     ewald contribution        =    -188.54637843 Ry

     convergence has been achieved in   6 iterations

     Forces acting on atoms (cartesian axes, Ry/au):

     atom    1 type  2   force =    -0.00000000   -0.00000001   -0.00207818
     atom    2 type  2   force =    -0.00000000    0.00000001    0.00207818
     atom    3 type  2   force =    -0.00000000   -0.00000006   -0.00201238
     atom    4 type  2   force =    -0.00000000    0.00000006    0.00201238
     atom    5 type  2   force =     0.00000000    0.00000000   -0.00208313
     atom    6 type  2   force =     0.00000000   -0.00000000    0.00208313
     atom    7 type  2   force =     0.00000000    0.00000000   -0.00201523
     atom    8 type  2   force =     0.00000000   -0.00000000    0.00201523
     atom    9 type  1   force =     0.00000000   -0.00084191    0.00089990
     atom   10 type  1   force =     0.00000000    0.00084191   -0.00089990
     atom   11 type  1   force =     0.00000000    0.00079089    0.00089110
     atom   12 type  1   force =     0.00000000   -0.00079089   -0.00089110
     atom   13 type  1   force =     0.00082464   -0.00000000    0.00088048
     atom   14 type  1   force =    -0.00082464    0.00000000   -0.00088048
     atom   15 type  1   force =    -0.00081994   -0.00000000    0.00087609
     atom   16 type  1   force =     0.00081994    0.00000000   -0.00087609
     atom   17 type  1   force =    -0.00081994    0.00000000   -0.00087609
     atom   18 type  1   force =     0.00081994   -0.00000000    0.00087609
     atom   19 type  1   force =     0.00082464    0.00000000   -0.00088048
     atom   20 type  1   force =    -0.00082464   -0.00000000    0.00088048
     atom   21 type  1   force =     0.00000000   -0.00079084    0.00089114
     atom   22 type  1   force =     0.00000000    0.00079084   -0.00089114
     atom   23 type  1   force =     0.00000000    0.00084191    0.00089989
     atom   24 type  1   force =     0.00000000   -0.00084191   -0.00089989

     Total force =     0.007541     Total SCF correction =     0.000093


     Computing stress (Cartesian axis) and pressure

          total   stress  (Ry/bohr**3)                   (kbar)     P=      128.32
   0.00086794   0.00000000   0.00000000          127.68        0.00        0.00
   0.00000000   0.00086778   0.00000000            0.00      127.66        0.00
   0.00000000   0.00000000   0.00088113            0.00        0.00      129.62

     Energy error            =      4.6E-04 Ry
     Gradient error          =      2.1E-03 Ry/Bohr

     number of scf cycles    =  11
     number of bfgs steps    =  10

     energy             old  =    -278.5901721510 Ry
     energy             new  =    -278.5906313913 Ry

     CASE: energy            _new < energy            _old

     new trust radius        =       0.0034090186 bohr
     new conv_thr            =       0.0000000021 Ry


ATOMIC_POSITIONS (crystal)
O               -0.0000000000        0.2500000002        0.6125756416
O               -0.0000000000        0.7499999998        0.3874243874
O                0.5000000000        0.7499999959        0.1125940153
O                0.5000000000        0.2500000041        0.8874059557
O                0.0000000000        0.7499999978        0.8626387495
O                0.0000000000        0.2500000022        0.1373612795
O                0.5000000000        0.2499999997        0.3625709707
O                0.5000000000        0.7500000003        0.6374290003
H                0.0000000000        0.4296645772        0.7059806951
H                0.0000000000        0.5703353928        0.2940193049
H                0.5000000000        0.5703408528        0.2059908397
H                0.5000000000        0.4296591172        0.7940091603
H                0.8203333605        0.7500000002        0.9560351082
H                0.1796666095        0.2499999998        0.0439648918
H                0.6796556835        0.2500000002        0.4559775656
H                0.3203443465        0.7499999998        0.5440224344
H                0.6796556835        0.7499999998        0.5440224344
H                0.3203443465        0.2500000002        0.4559775656
H                0.8203333605        0.2499999998        0.0439648918
H                0.1796666095        0.7500000002        0.9560351082
H                0.5000000000        0.9296591506        0.2059908417
H                0.5000000000        0.0703408794        0.7940091583
H                0.0000000000        0.0703354243        0.7059806946
H                0.0000000000        0.9296646057        0.2940193054



     Writing config-only to output data dir ./iceVIII/iceVIII.save/ :
     XML data file
     NEW-OLD atomic charge density approx. for the potential

     total cpu time spent up to now is      199.7 secs

     per-process dynamical memory:    19.2 Mb

     Self-consistent Calculation

     iteration #  1     ecut=    90.00 Ry     beta= 0.70
     Davidson diagonalization with overlap
     ethr =  1.00E-06,  avg # of iterations =  2.0

     Threshold (ethr) on eigenvalues was too large:
     Diagonalizing with lowered threshold

     Davidson diagonalization with overlap
     ethr =  5.66E-09,  avg # of iterations =  3.0

     total cpu time spent up to now is      203.5 secs

     total energy              =    -278.59068340 Ry
     estimated scf accuracy    <       0.00000378 Ry

     iteration #  2     ecut=    90.00 Ry     beta= 0.70
     Davidson diagonalization with overlap
     ethr =  5.91E-09,  avg # of iterations =  2.0

     total cpu time spent up to now is      205.5 secs

     total energy              =    -278.59068414 Ry
     estimated scf accuracy    <       0.00000034 Ry

     iteration #  3     ecut=    90.00 Ry     beta= 0.70
     Davidson diagonalization with overlap
     ethr =  5.25E-10,  avg # of iterations =  2.0

     total cpu time spent up to now is      207.5 secs

     total energy              =    -278.59068422 Ry
     estimated scf accuracy    <       0.00000004 Ry

     iteration #  4     ecut=    90.00 Ry     beta= 0.70
     Davidson diagonalization with overlap
     ethr =  5.75E-11,  avg # of iterations =  2.1

     total cpu time spent up to now is      209.3 secs

     End of self-consistent calculation

     Number of k-points >= 100: set verbosity='high' to print the bands.

     highest occupied level (ev):     1.0297

!    total energy              =    -278.59068423 Ry
     estimated scf accuracy    <          1.8E-09 Ry

     The total energy is the sum of the following terms:
     one-electron contribution =     -99.92467651 Ry
     hartree contribution      =      81.12465129 Ry
     xc contribution           =     -71.24475065 Ry
     ewald contribution        =    -188.54590837 Ry

     convergence has been achieved in   4 iterations

     Forces acting on atoms (cartesian axes, Ry/au):

     atom    1 type  2   force =     0.00000000    0.00000001   -0.00090027
     atom    2 type  2   force =     0.00000000   -0.00000001    0.00090027
     atom    3 type  2   force =     0.00000000    0.00000006   -0.00092417
     atom    4 type  2   force =     0.00000000   -0.00000006    0.00092417
     atom    5 type  2   force =     0.00000000    0.00000000   -0.00093468
     atom    6 type  2   force =     0.00000000   -0.00000000    0.00093468
     atom    7 type  2   force =     0.00000000   -0.00000000   -0.00092838
     atom    8 type  2   force =     0.00000000    0.00000000    0.00092838
     atom    9 type  1   force =     0.00000000   -0.00024241    0.00028367
     atom   10 type  1   force =     0.00000000    0.00024241   -0.00028367
     atom   11 type  1   force =     0.00000000    0.00017788    0.00031356
     atom   12 type  1   force =     0.00000000   -0.00017788   -0.00031356
     atom   13 type  1   force =     0.00021805   -0.00000000    0.00027873
     atom   14 type  1   force =    -0.00021805    0.00000000   -0.00027873
     atom   15 type  1   force =    -0.00019340   -0.00000000    0.00029978
     atom   16 type  1   force =     0.00019340    0.00000000   -0.00029978
     atom   17 type  1   force =    -0.00019340    0.00000000   -0.00029978
     atom   18 type  1   force =     0.00019340   -0.00000000    0.00029978
     atom   19 type  1   force =     0.00021805    0.00000000   -0.00027873
     atom   20 type  1   force =    -0.00021805   -0.00000000    0.00027873
     atom   21 type  1   force =     0.00000000   -0.00017793    0.00031352
     atom   22 type  1   force =     0.00000000    0.00017793   -0.00031352
     atom   23 type  1   force =     0.00000000    0.00024241    0.00028368
     atom   24 type  1   force =     0.00000000   -0.00024241   -0.00028368

     Total force =     0.002981     Total SCF correction =     0.000011


     Computing stress (Cartesian axis) and pressure

          total   stress  (Ry/bohr**3)                   (kbar)     P=      128.58
   0.00087419   0.00000000   0.00000000          128.60        0.00        0.00
   0.00000000   0.00087394  -0.00000000            0.00      128.56       -0.00
   0.00000000  -0.00000000   0.00087405            0.00       -0.00      128.58

     Energy error            =      5.3E-05 Ry
     Gradient error          =      9.3E-04 Ry/Bohr

     bfgs converged in  12 scf cycles and  11 bfgs steps
     (criteria: energy <  1.0E-04 Ry, force <  1.0E-03 Ry/Bohr)

     End of BFGS Geometry Optimization

     Final energy             =    -278.5906842318 Ry

     File ./iceVIII/iceVIII.bfgs deleted, as requested
Begin final coordinates

ATOMIC_POSITIONS (crystal)
O               -0.0000000000        0.2500000002        0.6125756416
O               -0.0000000000        0.7499999998        0.3874243874
O                0.5000000000        0.7499999959        0.1125940153
O                0.5000000000        0.2500000041        0.8874059557
O                0.0000000000        0.7499999978        0.8626387495
O                0.0000000000        0.2500000022        0.1373612795
O                0.5000000000        0.2499999997        0.3625709707
O                0.5000000000        0.7500000003        0.6374290003
H                0.0000000000        0.4296645772        0.7059806951
H                0.0000000000        0.5703353928        0.2940193049
H                0.5000000000        0.5703408528        0.2059908397
H                0.5000000000        0.4296591172        0.7940091603
H                0.8203333605        0.7500000002        0.9560351082
H                0.1796666095        0.2499999998        0.0439648918
H                0.6796556835        0.2500000002        0.4559775656
H                0.3203443465        0.7499999998        0.5440224344
H                0.6796556835        0.7499999998        0.5440224344
H                0.3203443465        0.2500000002        0.4559775656
H                0.8203333605        0.2499999998        0.0439648918
H                0.1796666095        0.7500000002        0.9560351082
H                0.5000000000        0.9296591506        0.2059908417
H                0.5000000000        0.0703408794        0.7940091583
H                0.0000000000        0.0703354243        0.7059806946
H                0.0000000000        0.9296646057        0.2940193054
End final coordinates



     Writing all to output data dir ./iceVIII/iceVIII.save/ :
     XML data file, charge density, pseudopotentials, collected wavefunctions

     init_run     :      2.64s CPU      2.72s WALL (       1 calls)
     electrons    :    183.69s CPU    187.98s WALL (      12 calls)
     update_pot   :      0.42s CPU      0.48s WALL (      11 calls)
     forces       :      1.43s CPU      1.44s WALL (      12 calls)
     stress       :     17.08s CPU     17.14s WALL (      12 calls)

     Called by init_run:
     wfcinit      :      0.85s CPU      0.87s WALL (       1 calls)
     potinit      :      1.56s CPU      1.58s WALL (       1 calls)
     hinit0       :      0.18s CPU      0.19s WALL (       1 calls)

     Called by electrons:
     c_bands      :    162.29s CPU    165.72s WALL (      81 calls)
     sum_band     :     18.22s CPU     18.43s WALL (      81 calls)
     v_of_rho     :      4.83s CPU      5.22s WALL (      92 calls)
     newd         :      0.09s CPU      0.14s WALL (      92 calls)
     mix_rho      :      0.08s CPU      0.08s WALL (      81 calls)
     vdW_kernel   :      1.51s CPU      1.52s WALL (       1 calls)

     Called by c_bands:
     init_us_2    :      1.76s CPU      1.83s WALL (    6732 calls)
     cegterg      :    157.25s CPU    159.36s WALL (    2916 calls)

     Called by *egterg:
     cdiaghg      :     19.60s CPU     19.77s WALL (   11476 calls)
     h_psi        :    117.37s CPU    119.15s WALL (   11944 calls)
     s_psi        :      4.05s CPU      4.11s WALL (   11944 calls)
     g_psi        :      0.35s CPU      0.35s WALL (    8992 calls)

     Called by h_psi:
     h_psi:calbec :      5.46s CPU      5.53s WALL (   11944 calls)
     vloc_psi     :    107.23s CPU    108.87s WALL (   11944 calls)
     add_vuspsi   :      4.28s CPU      4.35s WALL (   11944 calls)

     General routines
     calbec       :      8.18s CPU      8.29s WALL (   17020 calls)
     fft          :      2.16s CPU      2.21s WALL (    6248 calls)
     ffts         :      0.03s CPU      0.03s WALL (      81 calls)
     fftw         :    113.75s CPU    115.43s WALL (  716014 calls)

     Parallel routines

     PWSCF        :   3m26.43s CPU   3m33.15s WALL


   This run was terminated on:  14: 7:20   1Apr2026            

=------------------------------------------------------------------------------=
   JOB DONE.
=------------------------------------------------------------------------------=
