
     Program PWSCF v.7.3.1 starts on 26Mar2026 at 14:48: 9 

     This program is part of the open-source Quantum ESPRESSO suite
     for quantum simulation of materials; please cite
         "P. Giannozzi et al., J. Phys.:Condens. Matter 21 395502 (2009);
         "P. Giannozzi et al., J. Phys.:Condens. Matter 29 465901 (2017);
         "P. Giannozzi et al., J. Chem. Phys. 152 154105 (2020);
          URL http://www.quantum-espresso.org", 
     in publications or presentations arising from this work. More details at
     http://www.quantum-espresso.org/quote

     Parallel version (MPI), running on   128 processors

     MPI processes distributed on     1 nodes
     242089 MiB available memory on the printing compute node when the environment starts

     Waiting for input...
     Reading input from standard input

     Current dimensions of program PWSCF are:
     Max number of different atomic species (ntypx) = 10
     Max number of k-points (npk) =  40000
     Max angular momentum in pseudopotentials (lmaxx) =  4

     IMPORTANT: XC functional enforced from input :
     Exchange-correlation= VDW-DF2
                           (   1   4  13   0   2   0   0)
     Any further DFT definition will be discarded
     Please, verify this is what you really want

     Found identity + ( -0.5000 -0.5000 -0.5000) symmetry
     This is a supercell, fractional translations are disabled

     K-points division:     npool     =       4
     R & G space division:  proc/nbgrp/npool/nimage =      32
     Subspace diagonalization in iterative solution of the eigenvalue problem:
     a serial algorithm will be used


     Parallelization info
     --------------------
     sticks:   dense  smooth     PW     G-vecs:    dense   smooth      PW
     Min          64      64     18                 3134     3134     458
     Max          65      65     19                 3138     3138     464
     Sum        2053    2053    577               100333   100333   14727

     Using Slab Decomposition



     bravais-lattice index     =            6
     lattice parameter (alat)  =       8.4500  a.u.
     unit-cell volume          =     870.1491 (a.u.)^3
     number of atoms/cell      =           24
     number of atomic types    =            2
     number of electrons       =        64.00
     number of Kohn-Sham states=           32
     kinetic-energy cutoff     =      90.0000  Ry
     charge density cutoff     =     360.0000  Ry
     scf convergence threshold =      1.0E-07
     mixing beta               =       0.7000
     number of iterations used =            8  plain     mixing
     Exchange-correlation= VDW-DF2
                           (   1   4  13   0   2   0   0)

     celldm(1)=   8.449993  celldm(2)=   0.000000  celldm(3)=   1.442197
     celldm(4)=   0.000000  celldm(5)=   0.000000  celldm(6)=   0.000000

     crystal axes: (cart. coord. in units of alat)
               a(1) = (   1.000000   0.000000   0.000000 )  
               a(2) = (   0.000000   1.000000   0.000000 )  
               a(3) = (   0.000000   0.000000   1.442197 )  

     reciprocal axes: (cart. coord. in units 2 pi/alat)
               b(1) = (  1.000000  0.000000  0.000000 )  
               b(2) = (  0.000000  1.000000  0.000000 )  
               b(3) = (  0.000000  0.000000  0.693386 )  


     PseudoPot. # 1 for H  read from file:
     ./H.pbe-van_ak.UPF
     MD5 check sum: 077eb6d537518a38cb46c6de387227b7
     Pseudo is Ultrasoft, Zval =  1.0
     Generated by new atomic code, or converted to UPF format
     Using radial grid of  615 points,  1 beta functions with: 
                l(1) =   0
     Q(r) pseudized with  8 coefficients,  rinner =    0.800

     PseudoPot. # 2 for O  read from file:
     ./O.pbe-van_ak.UPF
     MD5 check sum: 78c19812648e8988a0fe644b0f25305e
     Pseudo is Ultrasoft, Zval =  6.0
     Generated by new atomic code, or converted to UPF format
     Using radial grid of  737 points,  4 beta functions with: 
                l(1) =   0
                l(2) =   0
                l(3) =   1
                l(4) =   1
     Q(r) pseudized with  8 coefficients,  rinner =    0.800   0.800   0.800


     atomic species   valence    mass     pseudopotential
     H                 1.00     1.00800     H ( 1.00)
     O                 6.00    16.00000     O ( 1.00)

      4 Sym. Ops., with inversion, found



   Cartesian axes

     site n.     atom                  positions (alat units)
         1        O      tau(   1) = (   0.0000000   0.2500000   0.8763462  )
         2        O      tau(   2) = (   0.0000000   0.7500000   0.5658510  )
         3        O      tau(   3) = (   0.5000000   0.7500000   0.1552476  )
         4        O      tau(   4) = (   0.5000000   0.2500000   1.2869495  )
         5        O      tau(   5) = (   0.0000000   0.7500000   1.2368921  )
         6        O      tau(   6) = (   0.0000000   0.2500000   0.2053051  )
         7        O      tau(   7) = (   0.5000000   0.2500000   0.5157934  )
         8        O      tau(   8) = (   0.5000000   0.7500000   0.9264037  )
         9        H      tau(   9) = (   0.0000000   0.4175939   1.0039395  )
        10        H      tau(  10) = (   0.0000000   0.5824060   0.4382577  )
        11        H      tau(  11) = (   0.5000000   0.5824060   0.2828409  )
        12        H      tau(  12) = (   0.5000000   0.4175939   1.1593562  )
        13        H      tau(  13) = (   0.8324057   0.7500000   1.3644894  )
        14        H      tau(  14) = (   0.1675943   0.2500000   0.0777077  )
        15        H      tau(  15) = (   0.6675943   0.2500000   0.6433908  )
        16        H      tau(  16) = (   0.3324057   0.7500000   0.7988063  )
        17        H      tau(  17) = (   0.6675943   0.7500000   0.7988063  )
        18        H      tau(  18) = (   0.3324057   0.2500000   0.6433908  )
        19        H      tau(  19) = (   0.8324057   0.2500000   0.0777077  )
        20        H      tau(  20) = (   0.1675943   0.7500000   1.3644894  )
        21        H      tau(  21) = (   0.5000000   0.9175940   0.2828409  )
        22        H      tau(  22) = (   0.5000000   0.0824061   1.1593562  )
        23        H      tau(  23) = (   0.0000000   0.0824061   1.0039395  )
        24        H      tau(  24) = (   0.0000000   0.9175940   0.4382577  )

     number of k points=   144

     Number of k-points >= 100: set verbosity='high' to print them.

     Dense  grid:   100333 G-vectors     FFT dimensions: (  54,  54,  75)

     Estimated max dynamical RAM per process >      11.81 MB

     Estimated total dynamical RAM >       1.40 GB

     Initial potential from superposition of free atoms

     starting charge      63.9998, renormalised to      64.0000


     %%%%%%%%%%%%%%%%%%%%%%%%%%%%%%%%%%%%%%%%%%%%%%%%%%%%%%%%%%%%%%%%%%%%%%%%
     %                                                                      %
     % You are using vdW-DF, which was implemented by the Thonhauser group. %
     % Please cite the following two papers that made this development      %
     % possible and the two reviews that describe the various versions:     %
     %                                                                      %
     %   T. Thonhauser et al., PRL 115, 136402 (2015).                      %
     %   T. Thonhauser et al., PRB 76, 125112 (2007).                       %
     %   K. Berland et al., Rep. Prog. Phys. 78, 066501 (2015).             %
     %   D.C. Langreth et al., J. Phys.: Condens. Matter 21, 084203 (2009). %
     %                                                                      %
     % If you are calculating stress with vdW-DF, please also cite:         %
     %                                                                      %
     %   R. Sabatini et al., J. Phys.: Condens. Matter 24, 424209 (2012).   %
     %                                                                      %
     %%%%%%%%%%%%%%%%%%%%%%%%%%%%%%%%%%%%%%%%%%%%%%%%%%%%%%%%%%%%%%%%%%%%%%%%

     %%%%%%%%%%%%%%%%%%%%%%%%%%%%%%%%%%%%%%%%%%%%%%%%%%%%%%%%%%%%%%%%%%%%%%%%
     %                                                                      %
     %  vdW-DF NEWS:                                                        %
     %                                                                      %
     %  * vdW-DF3 is now available. DOI: 10.1021/acs.jctc.0c00471           %
     %    use with input_dft = 'vdW-DF3-opt1' or 'vdW-DF3-opt2'             %
     %                                                                      %
     %  * Unscreened and range-separated hybrid vdW-DF-cx functionals       %
     %    DOI: 10.1063/1.4986522 and 10.1088/1361-648X/ac2ad2               %
     %    use with input_dft = 'vdW-DF-cx0'    and 'vdW-DF-ahcx'            %
     %  * Unscreened and range-separated hybrid vdW-DF2-b86r functionals    %
     %    DOI: 10.1063/1.4986522 and DOI: 10.1103/PhysRevX.12.041003        %
     %    use with input_dft = 'vdW-DF2-br0' and 'vdW-DF2-ahbr'             %
     %                                                                      %
     %%%%%%%%%%%%%%%%%%%%%%%%%%%%%%%%%%%%%%%%%%%%%%%%%%%%%%%%%%%%%%%%%%%%%%%%


     Starting wfcs are   48 randomized atomic wfcs

     total cpu time spent up to now is        2.9 secs

     per-process dynamical memory:    18.7 Mb

     Self-consistent Calculation

     iteration #  1     ecut=    90.00 Ry     beta= 0.70
     Davidson diagonalization with overlap
     ethr =  1.00E-02,  avg # of iterations =  2.0

     total cpu time spent up to now is        4.9 secs

     total energy              =    -277.16066806 Ry
     estimated scf accuracy    <       3.29326055 Ry

     iteration #  2     ecut=    90.00 Ry     beta= 0.70
     Davidson diagonalization with overlap
     ethr =  5.15E-03,  avg # of iterations =  3.0

     total cpu time spent up to now is        7.3 secs

     total energy              =    -278.30104319 Ry
     estimated scf accuracy    <       1.62559472 Ry

     iteration #  3     ecut=    90.00 Ry     beta= 0.70
     Davidson diagonalization with overlap
     ethr =  2.54E-03,  avg # of iterations =  2.0

     total cpu time spent up to now is        9.1 secs

     total energy              =    -278.48589837 Ry
     estimated scf accuracy    <       0.07325610 Ry

     iteration #  4     ecut=    90.00 Ry     beta= 0.70
     Davidson diagonalization with overlap
     ethr =  1.14E-04,  avg # of iterations =  4.0

     total cpu time spent up to now is       11.9 secs

     total energy              =    -278.53477485 Ry
     estimated scf accuracy    <       0.10082543 Ry

     iteration #  5     ecut=    90.00 Ry     beta= 0.70
     Davidson diagonalization with overlap
     ethr =  1.14E-04,  avg # of iterations =  2.0

     total cpu time spent up to now is       13.7 secs

     total energy              =    -278.53849168 Ry
     estimated scf accuracy    <       0.01392486 Ry

     iteration #  6     ecut=    90.00 Ry     beta= 0.70
     Davidson diagonalization with overlap
     ethr =  2.18E-05,  avg # of iterations =  3.0

     total cpu time spent up to now is       15.9 secs

     total energy              =    -278.54261584 Ry
     estimated scf accuracy    <       0.00006242 Ry

     iteration #  7     ecut=    90.00 Ry     beta= 0.70
     Davidson diagonalization with overlap
     ethr =  9.75E-08,  avg # of iterations =  6.0

     total cpu time spent up to now is       19.4 secs

     total energy              =    -278.54285737 Ry
     estimated scf accuracy    <       0.00017963 Ry

     iteration #  8     ecut=    90.00 Ry     beta= 0.70
     Davidson diagonalization with overlap
     ethr =  9.75E-08,  avg # of iterations =  2.1

     total cpu time spent up to now is       21.5 secs

     total energy              =    -278.54286559 Ry
     estimated scf accuracy    <       0.00001823 Ry

     iteration #  9     ecut=    90.00 Ry     beta= 0.70
     Davidson diagonalization with overlap
     ethr =  2.85E-08,  avg # of iterations =  3.0

     total cpu time spent up to now is       23.9 secs

     total energy              =    -278.54287528 Ry
     estimated scf accuracy    <       0.00000495 Ry

     iteration # 10     ecut=    90.00 Ry     beta= 0.70
     Davidson diagonalization with overlap
     ethr =  7.73E-09,  avg # of iterations =  2.0

     total cpu time spent up to now is       25.8 secs

     total energy              =    -278.54287524 Ry
     estimated scf accuracy    <       0.00000105 Ry

     iteration # 11     ecut=    90.00 Ry     beta= 0.70
     Davidson diagonalization with overlap
     ethr =  1.65E-09,  avg # of iterations =  2.0

     total cpu time spent up to now is       27.7 secs

     End of self-consistent calculation

     Number of k-points >= 100: set verbosity='high' to print the bands.

     highest occupied level (ev):     0.5810

!    total energy              =    -278.54287541 Ry
     estimated scf accuracy    <       0.00000003 Ry

     The total energy is the sum of the following terms:
     one-electron contribution =    -110.56961442 Ry
     hartree contribution      =      85.40391599 Ry
     xc contribution           =     -71.80342376 Ry
     ewald contribution        =    -181.57375322 Ry

     convergence has been achieved in  11 iterations

     Forces acting on atoms (cartesian axes, Ry/au):

     atom    1 type  2   force =     0.00000000    0.00000004   -0.09694052
     atom    2 type  2   force =     0.00000000   -0.00000004    0.09694052
     atom    3 type  2   force =     0.00000000    0.00000002   -0.09696715
     atom    4 type  2   force =     0.00000000   -0.00000002    0.09696715
     atom    5 type  2   force =     0.00000000   -0.00000001   -0.09680324
     atom    6 type  2   force =     0.00000000    0.00000001    0.09680324
     atom    7 type  2   force =     0.00000000    0.00000001   -0.09692960
     atom    8 type  2   force =     0.00000000   -0.00000001    0.09692960
     atom    9 type  1   force =     0.00000000    0.07740373    0.05078183
     atom   10 type  1   force =     0.00000000   -0.07740373   -0.05078183
     atom   11 type  1   force =     0.00000000   -0.07740170    0.05074981
     atom   12 type  1   force =     0.00000000    0.07740170   -0.05074981
     atom   13 type  1   force =    -0.07736321    0.00000000    0.05075537
     atom   14 type  1   force =     0.07736321   -0.00000000   -0.05075537
     atom   15 type  1   force =     0.07738435    0.00000000    0.05073737
     atom   16 type  1   force =    -0.07738435   -0.00000000   -0.05073737
     atom   17 type  1   force =     0.07738435   -0.00000000   -0.05073737
     atom   18 type  1   force =    -0.07738435    0.00000000    0.05073737
     atom   19 type  1   force =    -0.07736321   -0.00000000   -0.05075537
     atom   20 type  1   force =     0.07736321    0.00000000    0.05075537
     atom   21 type  1   force =     0.00000000    0.07740171    0.05074981
     atom   22 type  1   force =     0.00000000   -0.07740171   -0.05074981
     atom   23 type  1   force =     0.00000000   -0.07740373    0.05078184
     atom   24 type  1   force =     0.00000000    0.07740373   -0.05078184

     Total force =     0.460624     Total SCF correction =     0.000257


     Computing stress (Cartesian axis) and pressure

          total   stress  (Ry/bohr**3)                   (kbar)     P=      263.99
   0.00177975   0.00000000   0.00000000          261.81        0.00        0.00
   0.00000000   0.00177986  -0.00000000            0.00      261.83       -0.00
   0.00000000  -0.00000000   0.00182417            0.00       -0.00      268.34


     Writing all to output data dir ./iceVIII/iceVIII.save/ :
     XML data file, charge density, pseudopotentials, collected wavefunctions

     init_run     :      2.61s CPU      2.70s WALL (       1 calls)
     electrons    :     24.24s CPU     24.82s WALL (       1 calls)
     forces       :      0.11s CPU      0.13s WALL (       1 calls)
     stress       :      1.50s CPU      1.52s WALL (       1 calls)

     Called by init_run:
     wfcinit      :      0.83s CPU      0.86s WALL (       1 calls)
     potinit      :      1.56s CPU      1.60s WALL (       1 calls)
     hinit0       :      0.18s CPU      0.18s WALL (       1 calls)

     Called by electrons:
     c_bands      :     21.30s CPU     21.76s WALL (      11 calls)
     sum_band     :      2.50s CPU      2.53s WALL (      11 calls)
     v_of_rho     :      1.94s CPU      2.02s WALL (      12 calls)
     newd         :      0.01s CPU      0.02s WALL (      12 calls)
     mix_rho      :      0.02s CPU      0.02s WALL (      11 calls)
     vdW_kernel   :      1.51s CPU      1.52s WALL (       1 calls)

     Called by c_bands:
     init_us_2    :      0.26s CPU      0.27s WALL (     900 calls)
     cegterg      :     20.79s CPU     21.10s WALL (     396 calls)

     Called by *egterg:
     cdiaghg      :      2.58s CPU      2.60s WALL (    1512 calls)
     h_psi        :     16.11s CPU     16.40s WALL (    1548 calls)
     s_psi        :      0.57s CPU      0.58s WALL (    1548 calls)
     g_psi        :      0.05s CPU      0.05s WALL (    1116 calls)

     Called by h_psi:
     h_psi:calbec :      0.76s CPU      0.77s WALL (    1548 calls)
     vloc_psi     :     14.69s CPU     14.96s WALL (    1548 calls)
     add_vuspsi   :      0.60s CPU      0.61s WALL (    1548 calls)

     General routines
     calbec       :      1.05s CPU      1.07s WALL (    2124 calls)
     fft          :      0.39s CPU      0.42s WALL (     784 calls)
     ffts         :      0.00s CPU      0.00s WALL (      11 calls)
     fftw         :     15.57s CPU     15.84s WALL (   98174 calls)

     Parallel routines

     PWSCF        :     29.26s CPU     30.61s WALL


   This run was terminated on:  14:48:39  26Mar2026            

=------------------------------------------------------------------------------=
   JOB DONE.
=------------------------------------------------------------------------------=
