
     Program PWSCF v.7.3.1 starts on  1Apr2026 at 14:15: 1 

     This program is part of the open-source Quantum ESPRESSO suite
     for quantum simulation of materials; please cite
         "P. Giannozzi et al., J. Phys.:Condens. Matter 21 395502 (2009);
         "P. Giannozzi et al., J. Phys.:Condens. Matter 29 465901 (2017);
         "P. Giannozzi et al., J. Chem. Phys. 152 154105 (2020);
          URL http://www.quantum-espresso.org", 
     in publications or presentations arising from this work. More details at
     http://www.quantum-espresso.org/quote

     Parallel version (MPI), running on   128 processors

     MPI processes distributed on     1 nodes
     242030 MiB available memory on the printing compute node when the environment starts

     Waiting for input...
     Reading input from standard input

     Current dimensions of program PWSCF are:
     Max number of different atomic species (ntypx) = 10
     Max number of k-points (npk) =  40000
     Max angular momentum in pseudopotentials (lmaxx) =  4

     IMPORTANT: XC functional enforced from input :
     Exchange-correlation= VDW-DF2
                           (   1   4  13   0   2   0   0)
     Any further DFT definition will be discarded
     Please, verify this is what you really want

     Found identity + ( -0.5000 -0.5000  0.5000) symmetry
     This is a supercell, fractional translations are disabled

     K-points division:     npool     =       4
     R & G space division:  proc/nbgrp/npool/nimage =      32
     Subspace diagonalization in iterative solution of the eigenvalue problem:
     a serial algorithm will be used


     Parallelization info
     --------------------
     sticks:   dense  smooth     PW     G-vecs:    dense   smooth      PW
     Min          64      64     18                 3134     3134     458
     Max          65      65     19                 3138     3138     464
     Sum        2053    2053    577               100333   100333   14727

     Using Slab Decomposition



     bravais-lattice index     =            6
     lattice parameter (alat)  =       8.4500  a.u.
     unit-cell volume          =     870.1491 (a.u.)^3
     number of atoms/cell      =           24
     number of atomic types    =            2
     number of electrons       =        64.00
     number of Kohn-Sham states=           32
     kinetic-energy cutoff     =      90.0000  Ry
     charge density cutoff     =     360.0000  Ry
     scf convergence threshold =      1.0E-07
     mixing beta               =       0.7000
     number of iterations used =            8  plain     mixing
     energy convergence thresh.=      1.0E-04
     force convergence thresh. =      1.0E-03
     Exchange-correlation= VDW-DF2
                           (   1   4  13   0   2   0   0)
     nstep                     =           50


     celldm(1)=   8.449993  celldm(2)=   0.000000  celldm(3)=   1.442197
     celldm(4)=   0.000000  celldm(5)=   0.000000  celldm(6)=   0.000000

     crystal axes: (cart. coord. in units of alat)
               a(1) = (   1.000000   0.000000   0.000000 )  
               a(2) = (   0.000000   1.000000   0.000000 )  
               a(3) = (   0.000000   0.000000   1.442197 )  

     reciprocal axes: (cart. coord. in units 2 pi/alat)
               b(1) = (  1.000000  0.000000  0.000000 )  
               b(2) = (  0.000000  1.000000  0.000000 )  
               b(3) = (  0.000000  0.000000  0.693386 )  


     PseudoPot. # 1 for H  read from file:
     ./H.pbe-van_ak.UPF
     MD5 check sum: 077eb6d537518a38cb46c6de387227b7
     Pseudo is Ultrasoft, Zval =  1.0
     Generated by new atomic code, or converted to UPF format
     Using radial grid of  615 points,  1 beta functions with: 
                l(1) =   0
     Q(r) pseudized with  8 coefficients,  rinner =    0.800

     PseudoPot. # 2 for O  read from file:
     ./O.pbe-van_ak.UPF
     MD5 check sum: 78c19812648e8988a0fe644b0f25305e
     Pseudo is Ultrasoft, Zval =  6.0
     Generated by new atomic code, or converted to UPF format
     Using radial grid of  737 points,  4 beta functions with: 
                l(1) =   0
                l(2) =   0
                l(3) =   1
                l(4) =   1
     Q(r) pseudized with  8 coefficients,  rinner =    0.800   0.800   0.800


     atomic species   valence    mass     pseudopotential
     H                 1.00     1.00800     H ( 1.00)
     O                 6.00    16.00000     O ( 1.00)

      4 Sym. Ops., with inversion, found



   Cartesian axes

     site n.     atom                  positions (alat units)
         1        O      tau(   1) = (   0.0000000   0.2500000   0.8781106  )
         2        O      tau(   2) = (   0.0000000   0.7500000   0.5640866  )
         3        O      tau(   3) = (   0.5000000   0.7500000   0.1570120  )
         4        O      tau(   4) = (   0.5000000   0.2500000   1.2851851  )
         5        O      tau(   5) = (   0.0000000   0.7500000   1.2386599  )
         6        O      tau(   6) = (   0.0000000   0.2500000   0.2035373  )
         7        O      tau(   7) = (   0.5000000   0.2500000   0.5175613  )
         8        O      tau(   8) = (   0.5000000   0.7500000   0.9246358  )
         9        H      tau(   9) = (   0.0000000   0.4142500   1.0027885  )
        10        H      tau(  10) = (   0.0000000   0.5857500   0.4394086  )
        11        H      tau(  11) = (   0.5000000   0.5857500   0.2816900  )
        12        H      tau(  12) = (   0.5000000   0.4142500   1.1605072  )
        13        H      tau(  13) = (   0.8357500   0.7500000   1.3633378  )
        14        H      tau(  14) = (   0.1642500   0.2500000   0.0788593  )
        15        H      tau(  15) = (   0.6642500   0.2500000   0.6422392  )
        16        H      tau(  16) = (   0.3357500   0.7500000   0.7999579  )
        17        H      tau(  17) = (   0.6642500   0.7500000   0.7999579  )
        18        H      tau(  18) = (   0.3357500   0.2500000   0.6422392  )
        19        H      tau(  19) = (   0.8357500   0.2500000   0.0788593  )
        20        H      tau(  20) = (   0.1642500   0.7500000   1.3633378  )
        21        H      tau(  21) = (   0.5000000   0.9142500   0.2816900  )
        22        H      tau(  22) = (   0.5000000   0.0857500   1.1605072  )
        23        H      tau(  23) = (   0.0000000   0.0857500   1.0027885  )
        24        H      tau(  24) = (   0.0000000   0.9142500   0.4394086  )

     number of k points=   144

     Number of k-points >= 100: set verbosity='high' to print them.

     Dense  grid:   100333 G-vectors     FFT dimensions: (  54,  54,  75)

     Estimated max dynamical RAM per process >      11.81 MB

     Estimated total dynamical RAM >       1.40 GB

     Initial potential from superposition of free atoms

     starting charge      63.9998, renormalised to      64.0000


     %%%%%%%%%%%%%%%%%%%%%%%%%%%%%%%%%%%%%%%%%%%%%%%%%%%%%%%%%%%%%%%%%%%%%%%%
     %                                                                      %
     % You are using vdW-DF, which was implemented by the Thonhauser group. %
     % Please cite the following two papers that made this development      %
     % possible and the two reviews that describe the various versions:     %
     %                                                                      %
     %   T. Thonhauser et al., PRL 115, 136402 (2015).                      %
     %   T. Thonhauser et al., PRB 76, 125112 (2007).                       %
     %   K. Berland et al., Rep. Prog. Phys. 78, 066501 (2015).             %
     %   D.C. Langreth et al., J. Phys.: Condens. Matter 21, 084203 (2009). %
     %                                                                      %
     % If you are calculating stress with vdW-DF, please also cite:         %
     %                                                                      %
     %   R. Sabatini et al., J. Phys.: Condens. Matter 24, 424209 (2012).   %
     %                                                                      %
     %%%%%%%%%%%%%%%%%%%%%%%%%%%%%%%%%%%%%%%%%%%%%%%%%%%%%%%%%%%%%%%%%%%%%%%%

     %%%%%%%%%%%%%%%%%%%%%%%%%%%%%%%%%%%%%%%%%%%%%%%%%%%%%%%%%%%%%%%%%%%%%%%%
     %                                                                      %
     %  vdW-DF NEWS:                                                        %
     %                                                                      %
     %  * vdW-DF3 is now available. DOI: 10.1021/acs.jctc.0c00471           %
     %    use with input_dft = 'vdW-DF3-opt1' or 'vdW-DF3-opt2'             %
     %                                                                      %
     %  * Unscreened and range-separated hybrid vdW-DF-cx functionals       %
     %    DOI: 10.1063/1.4986522 and 10.1088/1361-648X/ac2ad2               %
     %    use with input_dft = 'vdW-DF-cx0'    and 'vdW-DF-ahcx'            %
     %  * Unscreened and range-separated hybrid vdW-DF2-b86r functionals    %
     %    DOI: 10.1063/1.4986522 and DOI: 10.1103/PhysRevX.12.041003        %
     %    use with input_dft = 'vdW-DF2-br0' and 'vdW-DF2-ahbr'             %
     %                                                                      %
     %%%%%%%%%%%%%%%%%%%%%%%%%%%%%%%%%%%%%%%%%%%%%%%%%%%%%%%%%%%%%%%%%%%%%%%%


     Starting wfcs are   48 randomized atomic wfcs

     total cpu time spent up to now is        2.9 secs

     per-process dynamical memory:    18.7 Mb

     Self-consistent Calculation

     iteration #  1     ecut=    90.00 Ry     beta= 0.70
     Davidson diagonalization with overlap
     ethr =  1.00E-02,  avg # of iterations =  2.0

     total cpu time spent up to now is        4.9 secs

     total energy              =    -277.04047020 Ry
     estimated scf accuracy    <       3.45326369 Ry

     iteration #  2     ecut=    90.00 Ry     beta= 0.70
     Davidson diagonalization with overlap
     ethr =  5.40E-03,  avg # of iterations =  3.0

     total cpu time spent up to now is        7.3 secs

     total energy              =    -278.23447267 Ry
     estimated scf accuracy    <       1.62497705 Ry

     iteration #  3     ecut=    90.00 Ry     beta= 0.70
     Davidson diagonalization with overlap
     ethr =  2.54E-03,  avg # of iterations =  2.0

     total cpu time spent up to now is        9.2 secs

     total energy              =    -278.41865814 Ry
     estimated scf accuracy    <       0.07197361 Ry

     iteration #  4     ecut=    90.00 Ry     beta= 0.70
     Davidson diagonalization with overlap
     ethr =  1.12E-04,  avg # of iterations =  4.0

     total cpu time spent up to now is       11.9 secs

     total energy              =    -278.46689514 Ry
     estimated scf accuracy    <       0.09808734 Ry

     iteration #  5     ecut=    90.00 Ry     beta= 0.70
     Davidson diagonalization with overlap
     ethr =  1.12E-04,  avg # of iterations =  2.0

     total cpu time spent up to now is       13.8 secs

     total energy              =    -278.47024126 Ry
     estimated scf accuracy    <       0.01357373 Ry

     iteration #  6     ecut=    90.00 Ry     beta= 0.70
     Davidson diagonalization with overlap
     ethr =  2.12E-05,  avg # of iterations =  3.0

     total cpu time spent up to now is       16.0 secs

     total energy              =    -278.47436691 Ry
     estimated scf accuracy    <       0.00003547 Ry

     iteration #  7     ecut=    90.00 Ry     beta= 0.70
     Davidson diagonalization with overlap
     ethr =  5.54E-08,  avg # of iterations =  6.2

     total cpu time spent up to now is       19.7 secs

     total energy              =    -278.47457093 Ry
     estimated scf accuracy    <       0.00015897 Ry

     iteration #  8     ecut=    90.00 Ry     beta= 0.70
     Davidson diagonalization with overlap
     ethr =  5.54E-08,  avg # of iterations =  3.0

     total cpu time spent up to now is       22.1 secs

     total energy              =    -278.47459078 Ry
     estimated scf accuracy    <       0.00000488 Ry

     iteration #  9     ecut=    90.00 Ry     beta= 0.70
     Davidson diagonalization with overlap
     ethr =  7.62E-09,  avg # of iterations =  2.8

     total cpu time spent up to now is       24.3 secs

     total energy              =    -278.47459295 Ry
     estimated scf accuracy    <       0.00000024 Ry

     iteration # 10     ecut=    90.00 Ry     beta= 0.70
     Davidson diagonalization with overlap
     ethr =  3.77E-10,  avg # of iterations =  2.0

     total cpu time spent up to now is       26.2 secs

     End of self-consistent calculation

     Number of k-points >= 100: set verbosity='high' to print the bands.

     highest occupied level (ev):     0.5268

!    total energy              =    -278.47459301 Ry
     estimated scf accuracy    <          4.3E-09 Ry

     The total energy is the sum of the following terms:
     one-electron contribution =    -113.01969863 Ry
     hartree contribution      =      86.44428158 Ry
     xc contribution           =     -72.06862028 Ry
     ewald contribution        =    -179.83055568 Ry

     convergence has been achieved in  10 iterations

     Forces acting on atoms (cartesian axes, Ry/au):

     atom    1 type  2   force =     0.00000000   -0.00000004   -0.15222305
     atom    2 type  2   force =     0.00000000    0.00000004    0.15222305
     atom    3 type  2   force =    -0.00000000   -0.00000006   -0.15217934
     atom    4 type  2   force =    -0.00000000    0.00000006    0.15217934
     atom    5 type  2   force =     0.00000000   -0.00000001   -0.15208060
     atom    6 type  2   force =     0.00000000    0.00000001    0.15208060
     atom    7 type  2   force =     0.00000000   -0.00000003   -0.15224936
     atom    8 type  2   force =     0.00000000    0.00000003    0.15224936
     atom    9 type  1   force =     0.00000000    0.11638312    0.07764434
     atom   10 type  1   force =     0.00000000   -0.11638312   -0.07764434
     atom   11 type  1   force =     0.00000000   -0.11637812    0.07761392
     atom   12 type  1   force =     0.00000000    0.11637812   -0.07761392
     atom   13 type  1   force =    -0.11635981    0.00000001    0.07763345
     atom   14 type  1   force =     0.11635981   -0.00000001   -0.07763345
     atom   15 type  1   force =     0.11637416    0.00000000    0.07761567
     atom   16 type  1   force =    -0.11637416   -0.00000000   -0.07761567
     atom   17 type  1   force =     0.11637416   -0.00000000   -0.07761567
     atom   18 type  1   force =    -0.11637416    0.00000000    0.07761567
     atom   19 type  1   force =    -0.11635981   -0.00000001   -0.07763345
     atom   20 type  1   force =     0.11635981    0.00000001    0.07763345
     atom   21 type  1   force =     0.00000000    0.11637812    0.07761392
     atom   22 type  1   force =     0.00000000   -0.11637812   -0.07761392
     atom   23 type  1   force =     0.00000000   -0.11638313    0.07764435
     atom   24 type  1   force =     0.00000000    0.11638313   -0.07764435

     Total force =     0.705959     Total SCF correction =     0.000064


     Computing stress (Cartesian axis) and pressure

          total   stress  (Ry/bohr**3)                   (kbar)     P=      334.94
   0.00225006   0.00000000   0.00000000          331.00        0.00        0.00
   0.00000000   0.00224986   0.00000000            0.00      330.97        0.00
   0.00000000   0.00000000   0.00233073            0.00        0.00      342.86


     BFGS Geometry Optimization
     Energy error            =      0.0E+00 Ry
     Gradient error          =      1.5E-01 Ry/Bohr

     number of scf cycles    =   1
     number of bfgs steps    =   0

     energy             new  =    -278.4745930088 Ry

     new trust radius        =       0.1522493593 bohr
     new conv_thr            =       0.0000001000 Ry


ATOMIC_POSITIONS (crystal)
O                0.0000000000        0.2499999947        0.5963789644
O                0.0000000000        0.7500000053        0.4036210646
O                0.5000000000        0.7499999934        0.0963825221
O                0.5000000000        0.2500000066        0.9036174489
O                0.0000000000        0.7499999992        0.8463906535
O                0.0000000000        0.2500000008        0.1536093755
O                0.5000000000        0.2499999970        0.3463767769
O                0.5000000000        0.7500000030        0.6536231941
H                0.0000000000        0.4280231480        0.7016913213
H                0.0000000000        0.5719768220        0.2983086787
H                0.5000000000        0.5719774133        0.2016888248
H                0.5000000000        0.4280225567        0.7983111752
H                0.8219795811        0.7500000008        0.9516904280
H                0.1780203889        0.2499999992        0.0483095720
H                0.6780221176        0.2500000002        0.4516889690
H                0.3219779124        0.7499999998        0.5483110310
H                0.6780221176        0.7499999998        0.5483110310
H                0.3219779124        0.2500000002        0.4516889690
H                0.8219795811        0.2499999992        0.0483095720
H                0.1780203889        0.7500000008        0.9516904280
H                0.5000000000        0.9280225862        0.2016888248
H                0.5000000000        0.0719774438        0.7983111752
H                0.0000000000        0.0719768515        0.7016913217
H                0.0000000000        0.9280231785        0.2983086783



     Writing config-only to output data dir ./iceVIII/iceVIII.save/ :
     XML data file
     NEW-OLD atomic charge density approx. for the potential

     total cpu time spent up to now is       28.0 secs

     per-process dynamical memory:    19.8 Mb

     Self-consistent Calculation

     iteration #  1     ecut=    90.00 Ry     beta= 0.70
     Davidson diagonalization with overlap
     ethr =  1.00E-06,  avg # of iterations = 11.0

     total cpu time spent up to now is       34.4 secs

     total energy              =    -278.48008341 Ry
     estimated scf accuracy    <       0.15941595 Ry

     iteration #  2     ecut=    90.00 Ry     beta= 0.70
     Davidson diagonalization with overlap
     ethr =  2.49E-04,  avg # of iterations =  3.0

     total cpu time spent up to now is       36.7 secs

     total energy              =    -278.52712790 Ry
     estimated scf accuracy    <       0.04849420 Ry

     iteration #  3     ecut=    90.00 Ry     beta= 0.70
     Davidson diagonalization with overlap
     ethr =  7.58E-05,  avg # of iterations =  2.0

     total cpu time spent up to now is       38.5 secs

     total energy              =    -278.53403473 Ry
     estimated scf accuracy    <       0.00125183 Ry

     iteration #  4     ecut=    90.00 Ry     beta= 0.70
     Davidson diagonalization with overlap
     ethr =  1.96E-06,  avg # of iterations =  4.9

     total cpu time spent up to now is       41.5 secs

     total energy              =    -278.53485526 Ry
     estimated scf accuracy    <       0.00119694 Ry

     iteration #  5     ecut=    90.00 Ry     beta= 0.70
     Davidson diagonalization with overlap
     ethr =  1.87E-06,  avg # of iterations =  2.9

     total cpu time spent up to now is       43.7 secs

     total energy              =    -278.53521511 Ry
     estimated scf accuracy    <       0.00004313 Ry

     iteration #  6     ecut=    90.00 Ry     beta= 0.70
     Davidson diagonalization with overlap
     ethr =  6.74E-08,  avg # of iterations =  2.9

     total cpu time spent up to now is       45.7 secs

     total energy              =    -278.53521019 Ry
     estimated scf accuracy    <       0.00002989 Ry

     iteration #  7     ecut=    90.00 Ry     beta= 0.70
     Davidson diagonalization with overlap
     ethr =  4.67E-08,  avg # of iterations =  2.0

     total cpu time spent up to now is       47.8 secs

     End of self-consistent calculation

     Number of k-points >= 100: set verbosity='high' to print the bands.

     highest occupied level (ev):     0.7966

!    total energy              =    -278.53521633 Ry
     estimated scf accuracy    <       0.00000009 Ry

     The total energy is the sum of the following terms:
     one-electron contribution =    -100.60208093 Ry
     hartree contribution      =      81.24997285 Ry
     xc contribution           =     -70.61212521 Ry
     ewald contribution        =    -188.57098305 Ry

     convergence has been achieved in   7 iterations

     Forces acting on atoms (cartesian axes, Ry/au):

     atom    1 type  2   force =    -0.00000000    0.00000004    0.11366394
     atom    2 type  2   force =    -0.00000000   -0.00000004   -0.11366394
     atom    3 type  2   force =    -0.00000000    0.00000004    0.11361133
     atom    4 type  2   force =    -0.00000000   -0.00000004   -0.11361133
     atom    5 type  2   force =     0.00000000    0.00000000    0.11348922
     atom    6 type  2   force =     0.00000000   -0.00000000   -0.11348922
     atom    7 type  2   force =     0.00000000    0.00000000    0.11374516
     atom    8 type  2   force =     0.00000000   -0.00000000   -0.11374516
     atom    9 type  1   force =     0.00000000   -0.02976285   -0.04800365
     atom   10 type  1   force =     0.00000000    0.02976285    0.04800365
     atom   11 type  1   force =     0.00000000    0.02974454   -0.04798487
     atom   12 type  1   force =     0.00000000   -0.02974454    0.04798487
     atom   13 type  1   force =     0.02971728   -0.00000000   -0.04796416
     atom   14 type  1   force =    -0.02971728    0.00000000    0.04796416
     atom   15 type  1   force =    -0.02975928   -0.00000000   -0.04799359
     atom   16 type  1   force =     0.02975928    0.00000000    0.04799359
     atom   17 type  1   force =    -0.02975928    0.00000000    0.04799359
     atom   18 type  1   force =     0.02975928   -0.00000000   -0.04799359
     atom   19 type  1   force =     0.02971728    0.00000000    0.04796416
     atom   20 type  1   force =    -0.02971728   -0.00000000   -0.04796416
     atom   21 type  1   force =     0.00000000   -0.02974457   -0.04798489
     atom   22 type  1   force =     0.00000000    0.02974457    0.04798489
     atom   23 type  1   force =     0.00000000    0.02976283   -0.04800363
     atom   24 type  1   force =     0.00000000   -0.02976283    0.04800363

     Total force =     0.392798     Total SCF correction =     0.000545


     Computing stress (Cartesian axis) and pressure

          total   stress  (Ry/bohr**3)                   (kbar)     P=       11.76
   0.00028200   0.00000000   0.00000000           41.48        0.00        0.00
   0.00000000   0.00028166  -0.00000000            0.00       41.43       -0.00
   0.00000000  -0.00000000  -0.00032383            0.00       -0.00      -47.64

     Energy error            =      6.1E-02 Ry
     Gradient error          =      1.1E-01 Ry/Bohr

     number of scf cycles    =   2
     number of bfgs steps    =   1

     energy             old  =    -278.4745930088 Ry
     energy             new  =    -278.5352163336 Ry

     CASE: energy            _new < energy            _old

     new trust radius        =       0.0719852427 bohr
     new conv_thr            =       0.0000001000 Ry


ATOMIC_POSITIONS (crystal)
O                0.0000000000        0.2499999974        0.6022815332
O                0.0000000000        0.7500000026        0.3977184958
O                0.5000000000        0.7499999967        0.1022823093
O                0.5000000000        0.2500000033        0.8977176617
O                0.0000000000        0.7499999993        0.8522839802
O                0.0000000000        0.2500000007        0.1477160488
O                0.5000000000        0.2499999972        0.3522837160
O                0.5000000000        0.7500000028        0.6477162550
H                0.0000000000        0.4259979941        0.6992231659
H                0.0000000000        0.5740019759        0.3007768341
H                0.5000000000        0.5740011435        0.1992216349
H                0.5000000000        0.4259988265        0.8007783651
H                0.8240012216        0.7500000006        0.9492244007
H                0.1759987484        0.2499999994        0.0507755993
H                0.6759972200        0.2499999999        0.4492213079
H                0.3240028100        0.7500000001        0.5507786921
H                0.6759972200        0.7500000001        0.5507786921
H                0.3240028100        0.2499999999        0.4492213079
H                0.8240012216        0.2499999994        0.0507755993
H                0.1759987484        0.7500000006        0.9492244007
H                0.5000000000        0.9259988535        0.1992216337
H                0.5000000000        0.0740011765        0.8007783663
H                0.0000000000        0.0740020034        0.6992231672
H                0.0000000000        0.9259980266        0.3007768328



     Writing config-only to output data dir ./iceVIII/iceVIII.save/ :
     XML data file
     NEW-OLD atomic charge density approx. for the potential

     total cpu time spent up to now is       49.5 secs

     per-process dynamical memory:    19.7 Mb

     Self-consistent Calculation

     iteration #  1     ecut=    90.00 Ry     beta= 0.70
     Davidson diagonalization with overlap
     ethr =  1.00E-06,  avg # of iterations =  9.0

     total cpu time spent up to now is       54.6 secs

     total energy              =    -278.59456625 Ry
     estimated scf accuracy    <       0.01829392 Ry

     iteration #  2     ecut=    90.00 Ry     beta= 0.70
     Davidson diagonalization with overlap
     ethr =  2.86E-05,  avg # of iterations =  2.4

     total cpu time spent up to now is       56.7 secs

     total energy              =    -278.60022244 Ry
     estimated scf accuracy    <       0.00400264 Ry

     iteration #  3     ecut=    90.00 Ry     beta= 0.70
     Davidson diagonalization with overlap
     ethr =  6.25E-06,  avg # of iterations =  2.0

     total cpu time spent up to now is       58.5 secs

     total energy              =    -278.60060615 Ry
     estimated scf accuracy    <       0.00016912 Ry

     iteration #  4     ecut=    90.00 Ry     beta= 0.70
     Davidson diagonalization with overlap
     ethr =  2.64E-07,  avg # of iterations =  3.4

     total cpu time spent up to now is       60.9 secs

     total energy              =    -278.60067283 Ry
     estimated scf accuracy    <       0.00006972 Ry

     iteration #  5     ecut=    90.00 Ry     beta= 0.70
     Davidson diagonalization with overlap
     ethr =  1.09E-07,  avg # of iterations =  3.0

     total cpu time spent up to now is       63.3 secs

     total energy              =    -278.60069440 Ry
     estimated scf accuracy    <       0.00001445 Ry

     iteration #  6     ecut=    90.00 Ry     beta= 0.70
     Davidson diagonalization with overlap
     ethr =  2.26E-08,  avg # of iterations =  2.0

     total cpu time spent up to now is       65.2 secs

     total energy              =    -278.60069700 Ry
     estimated scf accuracy    <       0.00000010 Ry

     iteration #  7     ecut=    90.00 Ry     beta= 0.70
     Davidson diagonalization with overlap
     ethr =  1.61E-10,  avg # of iterations =  5.1

     total cpu time spent up to now is       68.3 secs

     total energy              =    -278.60069713 Ry
     estimated scf accuracy    <       0.00000016 Ry

     iteration #  8     ecut=    90.00 Ry     beta= 0.70
     Davidson diagonalization with overlap
     ethr =  1.61E-10,  avg # of iterations =  2.0

     total cpu time spent up to now is       70.0 secs

     End of self-consistent calculation

     Number of k-points >= 100: set verbosity='high' to print the bands.

     highest occupied level (ev):     0.7208

!    total energy              =    -278.60069712 Ry
     estimated scf accuracy    <       0.00000003 Ry

     The total energy is the sum of the following terms:
     one-electron contribution =    -103.89233350 Ry
     hartree contribution      =      82.59005899 Ry
     xc contribution           =     -71.04311711 Ry
     ewald contribution        =    -186.25530549 Ry

     convergence has been achieved in   8 iterations

     Forces acting on atoms (cartesian axes, Ry/au):

     atom    1 type  2   force =     0.00000000    0.00000001    0.03974263
     atom    2 type  2   force =     0.00000000   -0.00000001   -0.03974263
     atom    3 type  2   force =    -0.00000000    0.00000001    0.03962047
     atom    4 type  2   force =    -0.00000000   -0.00000001   -0.03962047
     atom    5 type  2   force =     0.00000000    0.00000000    0.03972011
     atom    6 type  2   force =     0.00000000   -0.00000000   -0.03972011
     atom    7 type  2   force =     0.00000000    0.00000000    0.03973426
     atom    8 type  2   force =     0.00000000   -0.00000000   -0.03973426
     atom    9 type  1   force =     0.00000000   -0.00558541   -0.01423111
     atom   10 type  1   force =     0.00000000    0.00558541    0.01423111
     atom   11 type  1   force =     0.00000000    0.00557080   -0.01424185
     atom   12 type  1   force =     0.00000000   -0.00557080    0.01424185
     atom   13 type  1   force =     0.00558282   -0.00000000   -0.01422678
     atom   14 type  1   force =    -0.00558282    0.00000000    0.01422678
     atom   15 type  1   force =    -0.00555433   -0.00000000   -0.01422381
     atom   16 type  1   force =     0.00555433    0.00000000    0.01422381
     atom   17 type  1   force =    -0.00555433    0.00000000    0.01422381
     atom   18 type  1   force =     0.00555433   -0.00000000   -0.01422381
     atom   19 type  1   force =     0.00558282    0.00000000    0.01422678
     atom   20 type  1   force =    -0.00558282   -0.00000000   -0.01422678
     atom   21 type  1   force =     0.00000000   -0.00557081   -0.01424185
     atom   22 type  1   force =     0.00000000    0.00557081    0.01424185
     atom   23 type  1   force =     0.00000000    0.00558540   -0.01423110
     atom   24 type  1   force =     0.00000000   -0.00558540    0.01423110

     Total force =     0.127862     Total SCF correction =     0.000269


     Computing stress (Cartesian axis) and pressure

          total   stress  (Ry/bohr**3)                   (kbar)     P=       88.66
   0.00066770   0.00000000   0.00000000           98.22        0.00        0.00
   0.00000000   0.00066749  -0.00000000            0.00       98.19       -0.00
   0.00000000  -0.00000000   0.00047297            0.00       -0.00       69.58

     Energy error            =      6.5E-02 Ry
     Gradient error          =      4.0E-02 Ry/Bohr

     number of scf cycles    =   3
     number of bfgs steps    =   2

     energy             old  =    -278.5352163336 Ry
     energy             new  =    -278.6006971152 Ry

     CASE: energy            _new < energy            _old

     new trust radius        =       0.0397960697 bohr
     new conv_thr            =       0.0000000397 Ry


ATOMIC_POSITIONS (crystal)
O                0.0000000000        0.2499999985        0.6055471048
O                0.0000000000        0.7500000015        0.3944529242
O                0.5000000000        0.7499999982        0.1055337537
O                0.5000000000        0.2500000018        0.8944662173
O                0.0000000000        0.7499999995        0.8555490848
O                0.0000000000        0.2500000005        0.1444509442
O                0.5000000000        0.2499999977        0.3555472748
O                0.5000000000        0.7500000023        0.6444526962
H                0.0000000000        0.4257562542        0.6981715448
H                0.0000000000        0.5742437158        0.3018284552
H                0.5000000000        0.5742406525        0.1981684481
H                0.5000000000        0.4257593175        0.8018315519
H                0.8242433341        0.7500000004        0.9481728219
H                0.1757566359        0.2499999996        0.0518271781
H                0.6757608363        0.2499999996        0.4481704141
H                0.3242391937        0.7500000004        0.5518295859
H                0.6757608363        0.7500000004        0.5518295859
H                0.3242391937        0.2499999996        0.4481704141
H                0.8242433341        0.2499999996        0.0518271781
H                0.1757566359        0.7500000004        0.9481728219
H                0.5000000000        0.9257593434        0.1981684466
H                0.5000000000        0.0742406866        0.8018315534
H                0.0000000000        0.0742437427        0.6981715462
H                0.0000000000        0.9257562873        0.3018284538



     Writing config-only to output data dir ./iceVIII/iceVIII.save/ :
     XML data file
     NEW-OLD atomic charge density approx. for the potential

     total cpu time spent up to now is       71.7 secs

     per-process dynamical memory:    19.7 Mb

     Self-consistent Calculation

     iteration #  1     ecut=    90.00 Ry     beta= 0.70
     Davidson diagonalization with overlap
     ethr =  1.00E-06,  avg # of iterations =  7.5

     total cpu time spent up to now is       76.0 secs

     total energy              =    -278.60626510 Ry
     estimated scf accuracy    <       0.00467544 Ry

     iteration #  2     ecut=    90.00 Ry     beta= 0.70
     Davidson diagonalization with overlap
     ethr =  7.31E-06,  avg # of iterations =  2.0

     total cpu time spent up to now is       78.0 secs

     total energy              =    -278.60764177 Ry
     estimated scf accuracy    <       0.00090861 Ry

     iteration #  3     ecut=    90.00 Ry     beta= 0.70
     Davidson diagonalization with overlap
     ethr =  1.42E-06,  avg # of iterations =  2.0

     total cpu time spent up to now is       80.0 secs

     total energy              =    -278.60774546 Ry
     estimated scf accuracy    <       0.00003459 Ry

     iteration #  4     ecut=    90.00 Ry     beta= 0.70
     Davidson diagonalization with overlap
     ethr =  5.40E-08,  avg # of iterations =  3.0

     total cpu time spent up to now is       82.3 secs

     total energy              =    -278.60775708 Ry
     estimated scf accuracy    <       0.00001276 Ry

     iteration #  5     ecut=    90.00 Ry     beta= 0.70
     Davidson diagonalization with overlap
     ethr =  1.99E-08,  avg # of iterations =  3.0

     total cpu time spent up to now is       84.8 secs

     total energy              =    -278.60776066 Ry
     estimated scf accuracy    <       0.00000475 Ry

     iteration #  6     ecut=    90.00 Ry     beta= 0.70
     Davidson diagonalization with overlap
     ethr =  7.41E-09,  avg # of iterations =  2.0

     total cpu time spent up to now is       86.9 secs

     End of self-consistent calculation

     Number of k-points >= 100: set verbosity='high' to print the bands.

     highest occupied level (ev):     0.6964

!    total energy              =    -278.60776171 Ry
     estimated scf accuracy    <       0.00000002 Ry

     The total energy is the sum of the following terms:
     one-electron contribution =    -105.46374655 Ry
     hartree contribution      =      83.23941043 Ry
     xc contribution           =     -71.24483930 Ry
     ewald contribution        =    -185.13858629 Ry

     convergence has been achieved in   6 iterations

     Forces acting on atoms (cartesian axes, Ry/au):

     atom    1 type  2   force =    -0.00000000   -0.00000000   -0.00179668
     atom    2 type  2   force =    -0.00000000    0.00000000    0.00179668
     atom    3 type  2   force =     0.00000000   -0.00000001   -0.00175656
     atom    4 type  2   force =     0.00000000    0.00000001    0.00175656
     atom    5 type  2   force =     0.00000000    0.00000000   -0.00175435
     atom    6 type  2   force =     0.00000000   -0.00000000    0.00175435
     atom    7 type  2   force =     0.00000000    0.00000000   -0.00178380
     atom    8 type  2   force =     0.00000000   -0.00000000    0.00178380
     atom    9 type  1   force =     0.00000000    0.00851932    0.00490336
     atom   10 type  1   force =     0.00000000   -0.00851932   -0.00490336
     atom   11 type  1   force =     0.00000000   -0.00846848    0.00482576
     atom   12 type  1   force =     0.00000000    0.00846848   -0.00482576
     atom   13 type  1   force =    -0.00851588   -0.00000000    0.00491087
     atom   14 type  1   force =     0.00851588    0.00000000   -0.00491087
     atom   15 type  1   force =     0.00851107   -0.00000000    0.00487425
     atom   16 type  1   force =    -0.00851107    0.00000000   -0.00487425
     atom   17 type  1   force =     0.00851107    0.00000000   -0.00487425
     atom   18 type  1   force =    -0.00851107   -0.00000000    0.00487425
     atom   19 type  1   force =    -0.00851588    0.00000000   -0.00491087
     atom   20 type  1   force =     0.00851588   -0.00000000    0.00491087
     atom   21 type  1   force =     0.00000000    0.00846848    0.00482577
     atom   22 type  1   force =     0.00000000   -0.00846848   -0.00482577
     atom   23 type  1   force =     0.00000000   -0.00851932    0.00490335
     atom   24 type  1   force =     0.00000000    0.00851932   -0.00490335

     Total force =     0.039535     Total SCF correction =     0.000578


     Computing stress (Cartesian axis) and pressure

          total   stress  (Ry/bohr**3)                   (kbar)     P=      127.80
   0.00087588   0.00000000   0.00000000          128.85        0.00        0.00
   0.00000000   0.00087542   0.00000000            0.00      128.78        0.00
   0.00000000   0.00000000   0.00085495            0.00        0.00      125.77

     Energy error            =      7.1E-03 Ry
     Gradient error          =      8.5E-03 Ry/Bohr

     number of scf cycles    =   4
     number of bfgs steps    =   3

     energy             old  =    -278.6006971152 Ry
     energy             new  =    -278.6077617080 Ry

     CASE: energy            _new < energy            _old

     new trust radius        =       0.0077109217 bohr
     new conv_thr            =       0.0000000085 Ry


ATOMIC_POSITIONS (crystal)
O               -0.0000000000        0.2499999981        0.6057090914
O               -0.0000000000        0.7500000019        0.3942909376
O                0.5000000000        0.7499999976        0.1056984246
O                0.5000000000        0.2500000024        0.8943015464
O                0.0000000000        0.7499999996        0.8557137368
O                0.0000000000        0.2500000004        0.1442862922
O                0.5000000000        0.2499999980        0.3557104075
O                0.5000000000        0.7500000020        0.6442895635
H                0.0000000000        0.4265979812        0.6984155886
H                0.0000000000        0.5734019888        0.3015844114
H                0.5000000000        0.5734042203        0.1984068187
H                0.5000000000        0.4265957497        0.8015931813
H                0.8234018023        0.7500000003        0.9484175253
H                0.1765981677        0.2499999997        0.0515824747
H                0.6766017478        0.2499999995        0.4484123439
H                0.3233982822        0.7500000005        0.5515876561
H                0.6766017478        0.7500000005        0.5515876561
H                0.3233982822        0.2499999995        0.4484123439
H                0.8234018023        0.2499999997        0.0515824747
H                0.1765981677        0.7500000003        0.9484175253
H                0.5000000000        0.9265957764        0.1984068177
H                0.5000000000        0.0734042536        0.8015931823
H                0.0000000000        0.0734020162        0.6984155897
H                0.0000000000        0.9265980138        0.3015844103



     Writing config-only to output data dir ./iceVIII/iceVIII.save/ :
     XML data file
     NEW-OLD atomic charge density approx. for the potential

     total cpu time spent up to now is       88.6 secs

     per-process dynamical memory:    19.7 Mb

     Self-consistent Calculation

     iteration #  1     ecut=    90.00 Ry     beta= 0.70
     Davidson diagonalization with overlap
     ethr =  1.00E-06,  avg # of iterations =  3.0

     Threshold (ethr) on eigenvalues was too large:
     Diagonalizing with lowered threshold

     Davidson diagonalization with overlap
     ethr =  8.99E-08,  avg # of iterations =  2.8

     total cpu time spent up to now is       92.7 secs

     total energy              =    -278.60862699 Ry
     estimated scf accuracy    <       0.00007500 Ry

     iteration #  2     ecut=    90.00 Ry     beta= 0.70
     Davidson diagonalization with overlap
     ethr =  1.17E-07,  avg # of iterations =  3.0

     total cpu time spent up to now is       94.9 secs

     total energy              =    -278.60864919 Ry
     estimated scf accuracy    <       0.00002040 Ry

     iteration #  3     ecut=    90.00 Ry     beta= 0.70
     Davidson diagonalization with overlap
     ethr =  3.19E-08,  avg # of iterations =  2.0

     total cpu time spent up to now is       96.7 secs

     total energy              =    -278.60865128 Ry
     estimated scf accuracy    <       0.00000083 Ry

     iteration #  4     ecut=    90.00 Ry     beta= 0.70
     Davidson diagonalization with overlap
     ethr =  1.29E-09,  avg # of iterations =  4.7

     total cpu time spent up to now is       99.2 secs

     total energy              =    -278.60865174 Ry
     estimated scf accuracy    <       0.00000096 Ry

     iteration #  5     ecut=    90.00 Ry     beta= 0.70
     Davidson diagonalization with overlap
     ethr =  1.29E-09,  avg # of iterations =  2.0

     total cpu time spent up to now is      101.1 secs

     total energy              =    -278.60865178 Ry
     estimated scf accuracy    <       0.00000011 Ry

     iteration #  6     ecut=    90.00 Ry     beta= 0.70
     Davidson diagonalization with overlap
     ethr =  1.65E-10,  avg # of iterations =  3.9

     total cpu time spent up to now is      103.7 secs

     total energy              =    -278.60865184 Ry
     estimated scf accuracy    <       0.00000004 Ry

     iteration #  7     ecut=    90.00 Ry     beta= 0.70
     Davidson diagonalization with overlap
     ethr =  6.54E-11,  avg # of iterations =  2.0

     total cpu time spent up to now is      105.4 secs

     total energy              =    -278.60865184 Ry
     estimated scf accuracy    <          8.7E-09 Ry

     iteration #  8     ecut=    90.00 Ry     beta= 0.70
     Davidson diagonalization with overlap
     ethr =  1.36E-11,  avg # of iterations =  2.1

     total cpu time spent up to now is      107.2 secs

     End of self-consistent calculation

     Number of k-points >= 100: set verbosity='high' to print the bands.

     highest occupied level (ev):     0.7069

!    total energy              =    -278.60865184 Ry
     estimated scf accuracy    <          6.6E-10 Ry

     The total energy is the sum of the following terms:
     one-electron contribution =    -105.08791336 Ry
     hartree contribution      =      83.07993588 Ry
     xc contribution           =     -71.20697771 Ry
     ewald contribution        =    -185.39369664 Ry

     convergence has been achieved in   8 iterations

     Forces acting on atoms (cartesian axes, Ry/au):

     atom    1 type  2   force =     0.00000000    0.00000000    0.00263469
     atom    2 type  2   force =     0.00000000   -0.00000000   -0.00263469
     atom    3 type  2   force =     0.00000000    0.00000001    0.00257276
     atom    4 type  2   force =     0.00000000   -0.00000001   -0.00257276
     atom    5 type  2   force =     0.00000000    0.00000000    0.00265969
     atom    6 type  2   force =     0.00000000   -0.00000000   -0.00265969
     atom    7 type  2   force =     0.00000000    0.00000000    0.00260824
     atom    8 type  2   force =     0.00000000   -0.00000000   -0.00260824
     atom    9 type  1   force =     0.00000000    0.00395287    0.00265893
     atom   10 type  1   force =     0.00000000   -0.00395287   -0.00265893
     atom   11 type  1   force =     0.00000000   -0.00396280    0.00263839
     atom   12 type  1   force =     0.00000000    0.00396280   -0.00263839
     atom   13 type  1   force =    -0.00395857   -0.00000000    0.00267800
     atom   14 type  1   force =     0.00395857    0.00000000   -0.00267800
     atom   15 type  1   force =     0.00395897   -0.00000000    0.00264721
     atom   16 type  1   force =    -0.00395897    0.00000000   -0.00264721
     atom   17 type  1   force =     0.00395897    0.00000000   -0.00264721
     atom   18 type  1   force =    -0.00395897   -0.00000000    0.00264721
     atom   19 type  1   force =    -0.00395857    0.00000000   -0.00267800
     atom   20 type  1   force =     0.00395857   -0.00000000    0.00267800
     atom   21 type  1   force =     0.00000000    0.00396280    0.00263839
     atom   22 type  1   force =     0.00000000   -0.00396280   -0.00263839
     atom   23 type  1   force =     0.00000000   -0.00395287    0.00265893
     atom   24 type  1   force =     0.00000000    0.00395287   -0.00265893

     Total force =     0.020455     Total SCF correction =     0.000028


     Computing stress (Cartesian axis) and pressure

          total   stress  (Ry/bohr**3)                   (kbar)     P=      119.06
   0.00081413   0.00000000   0.00000000          119.76        0.00        0.00
   0.00000000   0.00081393  -0.00000000            0.00      119.73       -0.00
   0.00000000  -0.00000000   0.00079999            0.00       -0.00      117.68

     Energy error            =      8.9E-04 Ry
     Gradient error          =      4.0E-03 Ry/Bohr

     number of scf cycles    =   5
     number of bfgs steps    =   4

     energy             old  =    -278.6077617080 Ry
     energy             new  =    -278.6086518419 Ry

     CASE: energy            _new < energy            _old

     new trust radius        =       0.0084820139 bohr
     new conv_thr            =       0.0000000040 Ry


ATOMIC_POSITIONS (crystal)
O               -0.0000000000        0.2499999987        0.6063351111
O               -0.0000000000        0.7500000013        0.3936649179
O                0.5000000000        0.7499999985        0.1063172599
O                0.5000000000        0.2500000015        0.8936827111
O                0.0000000000        0.7499999998        0.8563432413
O                0.0000000000        0.2500000002        0.1436567877
O                0.5000000000        0.2499999985        0.3563336874
O                0.5000000000        0.7500000015        0.6436662836
H                0.0000000000        0.4275064220        0.6987077011
H                0.0000000000        0.5724935480        0.3012922989
H                0.5000000000        0.5724955255        0.1986947798
H                0.5000000000        0.4275044445        0.8013052202
H                0.8224923735        0.7500000001        0.9487121391
H                0.1775075965        0.2499999999        0.0512878609
H                0.6775112226        0.2499999994        0.4487024865
H                0.3224888074        0.7500000006        0.5512975135
H                0.6775112226        0.7500000006        0.5512975135
H                0.3224888074        0.2499999994        0.4487024865
H                0.8224923735        0.2499999999        0.0512878609
H                0.1775075965        0.7500000001        0.9487121391
H                0.5000000000        0.9275044709        0.1986947789
H                0.5000000000        0.0724955591        0.8013052211
H                0.0000000000        0.0724935754        0.6987077021
H                0.0000000000        0.9275064546        0.3012922979



     Writing config-only to output data dir ./iceVIII/iceVIII.save/ :
     XML data file
     NEW-OLD atomic charge density approx. for the potential

     total cpu time spent up to now is      108.9 secs

     per-process dynamical memory:    19.8 Mb

     Self-consistent Calculation

     iteration #  1     ecut=    90.00 Ry     beta= 0.70
     Davidson diagonalization with overlap
     ethr =  1.00E-06,  avg # of iterations =  4.0

     Threshold (ethr) on eigenvalues was too large:
     Diagonalizing with lowered threshold

     Davidson diagonalization with overlap
     ethr =  9.76E-08,  avg # of iterations =  2.4

     total cpu time spent up to now is      113.5 secs

     total energy              =    -278.60922219 Ry
     estimated scf accuracy    <       0.00007580 Ry

     iteration #  2     ecut=    90.00 Ry     beta= 0.70
     Davidson diagonalization with overlap
     ethr =  1.18E-07,  avg # of iterations =  2.0

     total cpu time spent up to now is      115.4 secs

     total energy              =    -278.60923549 Ry
     estimated scf accuracy    <       0.00000647 Ry

     iteration #  3     ecut=    90.00 Ry     beta= 0.70
     Davidson diagonalization with overlap
     ethr =  1.01E-08,  avg # of iterations =  2.0

     total cpu time spent up to now is      117.5 secs

     total energy              =    -278.60923693 Ry
     estimated scf accuracy    <       0.00000063 Ry

     iteration #  4     ecut=    90.00 Ry     beta= 0.70
     Davidson diagonalization with overlap
     ethr =  9.81E-10,  avg # of iterations =  2.0

     total cpu time spent up to now is      119.1 secs

     total energy              =    -278.60923699 Ry
     estimated scf accuracy    <       0.00000003 Ry

     iteration #  5     ecut=    90.00 Ry     beta= 0.70
     Davidson diagonalization with overlap
     ethr =  4.76E-11,  avg # of iterations =  3.3

     total cpu time spent up to now is      121.4 secs

     End of self-consistent calculation

     Number of k-points >= 100: set verbosity='high' to print the bands.

     highest occupied level (ev):     0.7165

!    total energy              =    -278.60923700 Ry
     estimated scf accuracy    <          3.7E-09 Ry

     The total energy is the sum of the following terms:
     one-electron contribution =    -104.80957488 Ry
     hartree contribution      =      82.95847044 Ry
     xc contribution           =     -71.18432034 Ry
     ewald contribution        =    -185.57381221 Ry

     convergence has been achieved in   5 iterations

     Forces acting on atoms (cartesian axes, Ry/au):

     atom    1 type  2   force =     0.00000000   -0.00000000    0.00308804
     atom    2 type  2   force =     0.00000000    0.00000000   -0.00308804
     atom    3 type  2   force =     0.00000000   -0.00000000    0.00308530
     atom    4 type  2   force =     0.00000000    0.00000000   -0.00308530
     atom    5 type  2   force =     0.00000000    0.00000000    0.00311373
     atom    6 type  2   force =     0.00000000   -0.00000000   -0.00311373
     atom    7 type  2   force =    -0.00000000    0.00000000    0.00307102
     atom    8 type  2   force =    -0.00000000   -0.00000000   -0.00307102
     atom    9 type  1   force =     0.00000000    0.00050930    0.00216097
     atom   10 type  1   force =     0.00000000   -0.00050930   -0.00216097
     atom   11 type  1   force =     0.00000000   -0.00050452    0.00212905
     atom   12 type  1   force =     0.00000000    0.00050452   -0.00212905
     atom   13 type  1   force =    -0.00051404   -0.00000000    0.00218246
     atom   14 type  1   force =     0.00051404    0.00000000   -0.00218246
     atom   15 type  1   force =     0.00050324   -0.00000000    0.00214077
     atom   16 type  1   force =    -0.00050324    0.00000000   -0.00214077
     atom   17 type  1   force =     0.00050324    0.00000000   -0.00214077
     atom   18 type  1   force =    -0.00050324   -0.00000000    0.00214077
     atom   19 type  1   force =    -0.00051404    0.00000000   -0.00218246
     atom   20 type  1   force =     0.00051404   -0.00000000    0.00218246
     atom   21 type  1   force =     0.00000000    0.00050452    0.00212905
     atom   22 type  1   force =     0.00000000   -0.00050452   -0.00212905
     atom   23 type  1   force =     0.00000000   -0.00050930    0.00216097
     atom   24 type  1   force =     0.00000000    0.00050930   -0.00216097

     Total force =     0.012437     Total SCF correction =     0.000019


     Computing stress (Cartesian axis) and pressure

          total   stress  (Ry/bohr**3)                   (kbar)     P=      113.20
   0.00076676   0.00000000   0.00000000          112.79        0.00        0.00
   0.00000000   0.00076650   0.00000000            0.00      112.76        0.00
   0.00000000   0.00000000   0.00077522            0.00        0.00      114.04

     Energy error            =      5.9E-04 Ry
     Gradient error          =      3.1E-03 Ry/Bohr

     number of scf cycles    =   6
     number of bfgs steps    =   5

     energy             old  =    -278.6086518419 Ry
     energy             new  =    -278.6092369995 Ry

     CASE: energy            _new < energy            _old

     new trust radius        =       0.0107255914 bohr
     new conv_thr            =       0.0000000031 Ry


ATOMIC_POSITIONS (crystal)
O               -0.0000000000        0.2499999983        0.6072090177
O               -0.0000000000        0.7500000017        0.3927910113
O                0.5000000000        0.7499999975        0.1071890303
O                0.5000000000        0.2500000025        0.8928109407
O                0.0000000000        0.7500000000        0.8572233580
O                0.0000000000        0.2500000000        0.1427766710
O                0.5000000000        0.2499999992        0.3572045157
O                0.5000000000        0.7500000008        0.6427954553
H                0.0000000000        0.4282886824        0.6992030903
H                0.0000000000        0.5717112876        0.3007969097
H                0.5000000000        0.5717164478        0.1991813869
H                0.5000000000        0.4282835222        0.8008186131
H                0.8217088310        0.7499999999        0.9492119430
H                0.1782911390        0.2500000001        0.0507880570
H                0.6782923250        0.2499999992        0.4491932350
H                0.3217077050        0.7500000008        0.5508067650
H                0.6782923250        0.7500000008        0.5508067650
H                0.3217077050        0.2499999992        0.4491932350
H                0.8217088310        0.2500000001        0.0507880570
H                0.1782911390        0.7499999999        0.9492119430
H                0.5000000000        0.9282835501        0.1991813870
H                0.5000000000        0.0717164799        0.8008186130
H                0.0000000000        0.0717113160        0.6992030906
H                0.0000000000        0.9282887140        0.3007969094



     Writing config-only to output data dir ./iceVIII/iceVIII.save/ :
     XML data file
     NEW-OLD atomic charge density approx. for the potential

     total cpu time spent up to now is      123.1 secs

     per-process dynamical memory:    19.7 Mb

     Self-consistent Calculation

     iteration #  1     ecut=    90.00 Ry     beta= 0.70
     Davidson diagonalization with overlap
     ethr =  1.00E-06,  avg # of iterations =  4.0

     total cpu time spent up to now is      126.1 secs

     total energy              =    -278.60956638 Ry
     estimated scf accuracy    <       0.00010182 Ry

     iteration #  2     ecut=    90.00 Ry     beta= 0.70
     Davidson diagonalization with overlap
     ethr =  1.59E-07,  avg # of iterations =  2.1

     total cpu time spent up to now is      128.0 secs

     total energy              =    -278.60958672 Ry
     estimated scf accuracy    <       0.00000552 Ry

     iteration #  3     ecut=    90.00 Ry     beta= 0.70
     Davidson diagonalization with overlap
     ethr =  8.63E-09,  avg # of iterations =  3.4

     total cpu time spent up to now is      130.3 secs

     total energy              =    -278.60958836 Ry
     estimated scf accuracy    <       0.00000064 Ry

     iteration #  4     ecut=    90.00 Ry     beta= 0.70
     Davidson diagonalization with overlap
     ethr =  9.93E-10,  avg # of iterations =  3.3

     total cpu time spent up to now is      132.5 secs

     total energy              =    -278.60958852 Ry
     estimated scf accuracy    <       0.00000008 Ry

     iteration #  5     ecut=    90.00 Ry     beta= 0.70
     Davidson diagonalization with overlap
     ethr =  1.25E-10,  avg # of iterations =  2.6

     total cpu time spent up to now is      134.5 secs

     total energy              =    -278.60958854 Ry
     estimated scf accuracy    <          4.6E-09 Ry

     iteration #  6     ecut=    90.00 Ry     beta= 0.70
     Davidson diagonalization with overlap
     ethr =  7.14E-12,  avg # of iterations =  3.0

     total cpu time spent up to now is      136.8 secs

     End of self-consistent calculation

     Number of k-points >= 100: set verbosity='high' to print the bands.

     highest occupied level (ev):     0.7263

!    total energy              =    -278.60958854 Ry
     estimated scf accuracy    <          8.5E-10 Ry

     The total energy is the sum of the following terms:
     one-electron contribution =    -104.56680976 Ry
     hartree contribution      =      82.84907977 Ry
     xc contribution           =     -71.16839108 Ry
     ewald contribution        =    -185.72346747 Ry

     convergence has been achieved in   6 iterations

     Forces acting on atoms (cartesian axes, Ry/au):

     atom    1 type  2   force =     0.00000000    0.00000001    0.00232336
     atom    2 type  2   force =     0.00000000   -0.00000001   -0.00232336
     atom    3 type  2   force =     0.00000000    0.00000002    0.00228598
     atom    4 type  2   force =     0.00000000   -0.00000002   -0.00228598
     atom    5 type  2   force =     0.00000000   -0.00000000    0.00234197
     atom    6 type  2   force =     0.00000000    0.00000000   -0.00234197
     atom    7 type  2   force =     0.00000000   -0.00000000    0.00227634
     atom    8 type  2   force =     0.00000000    0.00000000   -0.00227634
     atom    9 type  1   force =     0.00000000   -0.00210554    0.00210992
     atom   10 type  1   force =     0.00000000    0.00210554   -0.00210992
     atom   11 type  1   force =     0.00000000    0.00207134    0.00212305
     atom   12 type  1   force =     0.00000000   -0.00207134   -0.00212305
     atom   13 type  1   force =     0.00210003   -0.00000000    0.00213706
     atom   14 type  1   force =    -0.00210003    0.00000000   -0.00213706
     atom   15 type  1   force =    -0.00210494   -0.00000000    0.00209911
     atom   16 type  1   force =     0.00210494    0.00000000   -0.00209911
     atom   17 type  1   force =    -0.00210494    0.00000000   -0.00209911
     atom   18 type  1   force =     0.00210494   -0.00000000    0.00209911
     atom   19 type  1   force =     0.00210003    0.00000000   -0.00213706
     atom   20 type  1   force =    -0.00210003   -0.00000000    0.00213706
     atom   21 type  1   force =     0.00000000   -0.00207135    0.00212304
     atom   22 type  1   force =     0.00000000    0.00207135   -0.00212304
     atom   23 type  1   force =     0.00000000    0.00210553    0.00210993
     atom   24 type  1   force =     0.00000000   -0.00210553   -0.00210993

     Total force =     0.013586     Total SCF correction =     0.000048


     Computing stress (Cartesian axis) and pressure

          total   stress  (Ry/bohr**3)                   (kbar)     P=      108.66
   0.00072827   0.00000000   0.00000000          107.13        0.00        0.00
   0.00000000   0.00072820  -0.00000000            0.00      107.12       -0.00
   0.00000000  -0.00000000   0.00075952            0.00       -0.00      111.73

     Energy error            =      3.5E-04 Ry
     Gradient error          =      2.3E-03 Ry/Bohr

     number of scf cycles    =   7
     number of bfgs steps    =   6

     energy             old  =    -278.6092369995 Ry
     energy             new  =    -278.6095885383 Ry

     CASE: energy            _new < energy            _old

     new trust radius        =       0.0095638882 bohr
     new conv_thr            =       0.0000000023 Ry


ATOMIC_POSITIONS (crystal)
O               -0.0000000000        0.2499999998        0.6079873490
O               -0.0000000000        0.7500000002        0.3920126800
O                0.5000000000        0.7499999999        0.1079613296
O                0.5000000000        0.2500000001        0.8920386414
O                0.0000000000        0.7500000001        0.8580081481
O                0.0000000000        0.2499999999        0.1419918809
O                0.5000000000        0.2499999996        0.3579753849
O                0.5000000000        0.7500000004        0.6420245861
H                0.0000000000        0.4286149760        0.6998166825
H                0.0000000000        0.5713849940        0.3001833175
H                0.5000000000        0.5713867624        0.1997905327
H                0.5000000000        0.4286132076        0.8002094673
H                0.8213809061        0.7499999997        0.9498314591
H                0.1786190639        0.2500000003        0.0501685409
H                0.6786181541        0.2499999990        0.4498025231
H                0.3213818759        0.7500000010        0.5501974769
H                0.6786181541        0.7500000010        0.5501974769
H                0.3213818759        0.2499999990        0.4498025231
H                0.8213809061        0.2500000003        0.0501685409
H                0.1786190639        0.7499999997        0.9498314591
H                0.5000000000        0.9286132341        0.1997905323
H                0.5000000000        0.0713867959        0.8002094677
H                0.0000000000        0.0713850218        0.6998166829
H                0.0000000000        0.9286150082        0.3001833171



     Writing config-only to output data dir ./iceVIII/iceVIII.save/ :
     XML data file
     NEW-OLD atomic charge density approx. for the potential

     total cpu time spent up to now is      138.5 secs

     per-process dynamical memory:    19.7 Mb

     Self-consistent Calculation

     iteration #  1     ecut=    90.00 Ry     beta= 0.70
     Davidson diagonalization with overlap
     ethr =  1.00E-06,  avg # of iterations =  4.0

     total cpu time spent up to now is      141.4 secs

     total energy              =    -278.60984878 Ry
     estimated scf accuracy    <       0.00007957 Ry

     iteration #  2     ecut=    90.00 Ry     beta= 0.70
     Davidson diagonalization with overlap
     ethr =  1.24E-07,  avg # of iterations =  2.1

     total cpu time spent up to now is      143.4 secs

     total energy              =    -278.60986505 Ry
     estimated scf accuracy    <       0.00000551 Ry

     iteration #  3     ecut=    90.00 Ry     beta= 0.70
     Davidson diagonalization with overlap
     ethr =  8.61E-09,  avg # of iterations =  3.3

     total cpu time spent up to now is      145.5 secs

     total energy              =    -278.60986656 Ry
     estimated scf accuracy    <       0.00000059 Ry

     iteration #  4     ecut=    90.00 Ry     beta= 0.70
     Davidson diagonalization with overlap
     ethr =  9.19E-10,  avg # of iterations =  2.9

     total cpu time spent up to now is      147.6 secs

     total energy              =    -278.60986672 Ry
     estimated scf accuracy    <       0.00000012 Ry

     iteration #  5     ecut=    90.00 Ry     beta= 0.70
     Davidson diagonalization with overlap
     ethr =  1.82E-10,  avg # of iterations =  2.4

     total cpu time spent up to now is      149.6 secs

     total energy              =    -278.60986674 Ry
     estimated scf accuracy    <          4.0E-09 Ry

     iteration #  6     ecut=    90.00 Ry     beta= 0.70
     Davidson diagonalization with overlap
     ethr =  6.19E-12,  avg # of iterations =  4.6

     total cpu time spent up to now is      152.2 secs

     End of self-consistent calculation

     Number of k-points >= 100: set verbosity='high' to print the bands.

     highest occupied level (ev):     0.7327

!    total energy              =    -278.60986674 Ry
     estimated scf accuracy    <          1.4E-09 Ry

     The total energy is the sum of the following terms:
     one-electron contribution =    -104.41545511 Ry
     hartree contribution      =      82.77860715 Ry
     xc contribution           =     -71.16167040 Ry
     ewald contribution        =    -185.81134839 Ry

     convergence has been achieved in   6 iterations

     Forces acting on atoms (cartesian axes, Ry/au):

     atom    1 type  2   force =     0.00000000   -0.00000001    0.00147204
     atom    2 type  2   force =     0.00000000    0.00000001   -0.00147204
     atom    3 type  2   force =     0.00000000   -0.00000002    0.00151223
     atom    4 type  2   force =     0.00000000    0.00000002   -0.00151223
     atom    5 type  2   force =     0.00000000   -0.00000000    0.00149568
     atom    6 type  2   force =     0.00000000    0.00000000   -0.00149568
     atom    7 type  2   force =     0.00000000    0.00000000    0.00145225
     atom    8 type  2   force =     0.00000000   -0.00000000   -0.00145225
     atom    9 type  1   force =     0.00000000   -0.00310275    0.00206872
     atom   10 type  1   force =     0.00000000    0.00310275   -0.00206872
     atom   11 type  1   force =     0.00000000    0.00309381    0.00207169
     atom   12 type  1   force =     0.00000000   -0.00309381   -0.00207169
     atom   13 type  1   force =     0.00310289    0.00000000    0.00209302
     atom   14 type  1   force =    -0.00310289   -0.00000000   -0.00209302
     atom   15 type  1   force =    -0.00311404    0.00000000    0.00204579
     atom   16 type  1   force =     0.00311404   -0.00000000   -0.00204579
     atom   17 type  1   force =    -0.00311404   -0.00000000   -0.00204579
     atom   18 type  1   force =     0.00311404    0.00000000    0.00204579
     atom   19 type  1   force =     0.00310289   -0.00000000   -0.00209302
     atom   20 type  1   force =    -0.00310289    0.00000000    0.00209302
     atom   21 type  1   force =     0.00000000   -0.00309379    0.00207170
     atom   22 type  1   force =     0.00000000    0.00309379   -0.00207170
     atom   23 type  1   force =     0.00000000    0.00310276    0.00206871
     atom   24 type  1   force =     0.00000000   -0.00310276   -0.00206871

     Total force =     0.015500     Total SCF correction =     0.000046


     Computing stress (Cartesian axis) and pressure

          total   stress  (Ry/bohr**3)                   (kbar)     P=      106.78
   0.00071246   0.00000000   0.00000000          104.81        0.00        0.00
   0.00000000   0.00071232   0.00000000            0.00      104.79        0.00
   0.00000000   0.00000000   0.00075289            0.00        0.00      110.75

     Energy error            =      2.8E-04 Ry
     Gradient error          =      3.1E-03 Ry/Bohr

     number of scf cycles    =   8
     number of bfgs steps    =   7

     energy             old  =    -278.6095885383 Ry
     energy             new  =    -278.6098667411 Ry

     CASE: energy            _new < energy            _old

     new trust radius        =       0.0105202771 bohr
     new conv_thr            =       0.0000000028 Ry


ATOMIC_POSITIONS (crystal)
O               -0.0000000000        0.2499999992        0.6088417354
O               -0.0000000000        0.7500000008        0.3911582936
O                0.5000000000        0.7499999988        0.1088153288
O                0.5000000000        0.2500000012        0.8911846422
O                0.0000000000        0.7500000003        0.8588714172
O                0.0000000000        0.2499999997        0.1411286118
O                0.5000000000        0.2500000002        0.3588220176
O                0.5000000000        0.7499999998        0.6411779534
H                0.0000000000        0.4287367440        0.7006352501
H                0.0000000000        0.5712632260        0.2993647499
H                0.5000000000        0.5712629525        0.2006032876
H                0.5000000000        0.4287370175        0.7993967124
H                0.8212577641        0.7499999996        0.9506577136
H                0.1787422059        0.2500000004        0.0493422864
H                0.6787375856        0.2499999990        0.4506143628
H                0.3212624444        0.7500000010        0.5493856372
H                0.6787375856        0.7500000010        0.5493856372
H                0.3212624444        0.2499999990        0.4506143628
H                0.8212577641        0.2500000004        0.0493422864
H                0.1787422059        0.7499999996        0.9506577136
H                0.5000000000        0.9287370459        0.2006032883
H                0.5000000000        0.0712629841        0.7993967117
H                0.0000000000        0.0712632551        0.7006352498
H                0.0000000000        0.9287367749        0.2993647502



     Writing config-only to output data dir ./iceVIII/iceVIII.save/ :
     XML data file
     NEW-OLD atomic charge density approx. for the potential

     total cpu time spent up to now is      154.0 secs

     per-process dynamical memory:    19.7 Mb

     Self-consistent Calculation

     iteration #  1     ecut=    90.00 Ry     beta= 0.70
     Davidson diagonalization with overlap
     ethr =  1.00E-06,  avg # of iterations =  4.0

     total cpu time spent up to now is      157.0 secs

     total energy              =    -278.61019762 Ry
     estimated scf accuracy    <       0.00010439 Ry

     iteration #  2     ecut=    90.00 Ry     beta= 0.70
     Davidson diagonalization with overlap
     ethr =  1.63E-07,  avg # of iterations =  2.5

     total cpu time spent up to now is      159.0 secs

     total energy              =    -278.61021893 Ry
     estimated scf accuracy    <       0.00000665 Ry

     iteration #  3     ecut=    90.00 Ry     beta= 0.70
     Davidson diagonalization with overlap
     ethr =  1.04E-08,  avg # of iterations =  3.8

     total cpu time spent up to now is      161.2 secs

     total energy              =    -278.61022069 Ry
     estimated scf accuracy    <       0.00000046 Ry

     iteration #  4     ecut=    90.00 Ry     beta= 0.70
     Davidson diagonalization with overlap
     ethr =  7.22E-10,  avg # of iterations =  3.4

     total cpu time spent up to now is      163.5 secs

     total energy              =    -278.61022081 Ry
     estimated scf accuracy    <       0.00000006 Ry

     iteration #  5     ecut=    90.00 Ry     beta= 0.70
     Davidson diagonalization with overlap
     ethr =  9.74E-11,  avg # of iterations =  3.6

     total cpu time spent up to now is      165.7 secs

     total energy              =    -278.61022083 Ry
     estimated scf accuracy    <          5.5E-09 Ry

     iteration #  6     ecut=    90.00 Ry     beta= 0.70
     Davidson diagonalization with overlap
     ethr =  8.53E-12,  avg # of iterations =  3.0

     total cpu time spent up to now is      167.9 secs

     End of self-consistent calculation

     Number of k-points >= 100: set verbosity='high' to print the bands.

     highest occupied level (ev):     0.7388

!    total energy              =    -278.61022083 Ry
     estimated scf accuracy    <          9.3E-10 Ry

     The total energy is the sum of the following terms:
     one-electron contribution =    -104.28122288 Ry
     hartree contribution      =      82.71361747 Ry
     xc contribution           =     -71.15761429 Ry
     ewald contribution        =    -185.88500113 Ry

     convergence has been achieved in   6 iterations

     Forces acting on atoms (cartesian axes, Ry/au):

     atom    1 type  2   force =     0.00000000    0.00000000    0.00075919
     atom    2 type  2   force =     0.00000000   -0.00000000   -0.00075919
     atom    3 type  2   force =     0.00000000    0.00000001    0.00081133
     atom    4 type  2   force =     0.00000000   -0.00000001   -0.00081133
     atom    5 type  2   force =     0.00000000   -0.00000000    0.00078573
     atom    6 type  2   force =     0.00000000    0.00000000   -0.00078573
     atom    7 type  2   force =     0.00000000   -0.00000000    0.00074626
     atom    8 type  2   force =     0.00000000    0.00000000   -0.00074626
     atom    9 type  1   force =     0.00000000   -0.00345767    0.00186775
     atom   10 type  1   force =     0.00000000    0.00345767   -0.00186775
     atom   11 type  1   force =     0.00000000    0.00344068    0.00189798
     atom   12 type  1   force =     0.00000000   -0.00344068   -0.00189798
     atom   13 type  1   force =     0.00345905    0.00000000    0.00189268
     atom   14 type  1   force =    -0.00345905   -0.00000000   -0.00189268
     atom   15 type  1   force =    -0.00346290    0.00000000    0.00185141
     atom   16 type  1   force =     0.00346290   -0.00000000   -0.00185141
     atom   17 type  1   force =    -0.00346290   -0.00000000   -0.00185141
     atom   18 type  1   force =     0.00346290    0.00000000    0.00185141
     atom   19 type  1   force =     0.00345905   -0.00000000   -0.00189268
     atom   20 type  1   force =    -0.00345905    0.00000000    0.00189268
     atom   21 type  1   force =     0.00000000   -0.00344068    0.00189797
     atom   22 type  1   force =     0.00000000    0.00344068   -0.00189797
     atom   23 type  1   force =     0.00000000    0.00345767    0.00186776
     atom   24 type  1   force =     0.00000000   -0.00345767   -0.00186776

     Total force =     0.015882     Total SCF correction =     0.000085


     Computing stress (Cartesian axis) and pressure

          total   stress  (Ry/bohr**3)                   (kbar)     P=      105.58
   0.00070359   0.00000000   0.00000000          103.50        0.00        0.00
   0.00000000   0.00070343  -0.00000000            0.00      103.48       -0.00
   0.00000000  -0.00000000   0.00074608            0.00       -0.00      109.75

     Energy error            =      3.5E-04 Ry
     Gradient error          =      3.5E-03 Ry/Bohr

     number of scf cycles    =   9
     number of bfgs steps    =   8

     energy             old  =    -278.6098667411 Ry
     energy             new  =    -278.6102208309 Ry

     CASE: energy            _new < energy            _old

     new trust radius        =       0.0157804156 bohr
     new conv_thr            =       0.0000000035 Ry


ATOMIC_POSITIONS (crystal)
O               -0.0000000000        0.2500000015        0.6100227764
O               -0.0000000000        0.7499999985        0.3899772526
O                0.5000000000        0.7500000024        0.1099972402
O                0.5000000000        0.2499999976        0.8900027308
O                0.0000000000        0.7500000003        0.8600668274
O                0.0000000000        0.2499999997        0.1399332016
O                0.5000000000        0.2500000006        0.3599909833
O                0.5000000000        0.7499999994        0.6400089877
H                0.0000000000        0.4286651303        0.7019167414
H                0.0000000000        0.5713348397        0.2980832586
H                0.5000000000        0.5713282689        0.2018806422
H                0.5000000000        0.4286717011        0.7981193578
H                0.8213274038        0.7499999993        0.9519517166
H                0.1786725662        0.2500000007        0.0480482834
H                0.6786634913        0.2499999989        0.4518862605
H                0.3213365387        0.7500000011        0.5481137395
H                0.6786634913        0.7500000011        0.5481137395
H                0.3213365387        0.2499999989        0.4518862605
H                0.8213274038        0.2500000007        0.0480482834
H                0.1786725662        0.7499999993        0.9519517166
H                0.5000000000        0.9286717276        0.2018806422
H                0.5000000000        0.0713283024        0.7981193578
H                0.0000000000        0.0713348680        0.7019167414
H                0.0000000000        0.9286651620        0.2980832586



     Writing config-only to output data dir ./iceVIII/iceVIII.save/ :
     XML data file
     NEW-OLD atomic charge density approx. for the potential

     total cpu time spent up to now is      169.7 secs

     per-process dynamical memory:    19.7 Mb

     Self-consistent Calculation

     iteration #  1     ecut=    90.00 Ry     beta= 0.70
     Davidson diagonalization with overlap
     ethr =  1.00E-06,  avg # of iterations =  4.3

     total cpu time spent up to now is      173.0 secs

     total energy              =    -278.61067311 Ry
     estimated scf accuracy    <       0.00022147 Ry

     iteration #  2     ecut=    90.00 Ry     beta= 0.70
     Davidson diagonalization with overlap
     ethr =  3.46E-07,  avg # of iterations =  2.0

     total cpu time spent up to now is      174.7 secs

     total energy              =    -278.61070812 Ry
     estimated scf accuracy    <       0.00001318 Ry

     iteration #  3     ecut=    90.00 Ry     beta= 0.70
     Davidson diagonalization with overlap
     ethr =  2.06E-08,  avg # of iterations =  3.5

     total cpu time spent up to now is      177.0 secs

     total energy              =    -278.61071167 Ry
     estimated scf accuracy    <       0.00000103 Ry

     iteration #  4     ecut=    90.00 Ry     beta= 0.70
     Davidson diagonalization with overlap
     ethr =  1.62E-09,  avg # of iterations =  3.1

     total cpu time spent up to now is      179.2 secs

     total energy              =    -278.61071193 Ry
     estimated scf accuracy    <       0.00000018 Ry

     iteration #  5     ecut=    90.00 Ry     beta= 0.70
     Davidson diagonalization with overlap
     ethr =  2.86E-10,  avg # of iterations =  2.1

     total cpu time spent up to now is      181.2 secs

     total energy              =    -278.61071196 Ry
     estimated scf accuracy    <          7.0E-09 Ry

     iteration #  6     ecut=    90.00 Ry     beta= 0.70
     Davidson diagonalization with overlap
     ethr =  1.09E-11,  avg # of iterations =  3.1

     total cpu time spent up to now is      183.7 secs

     total energy              =    -278.61071197 Ry
     estimated scf accuracy    <          6.2E-09 Ry

     iteration #  7     ecut=    90.00 Ry     beta= 0.70
     Davidson diagonalization with overlap
     ethr =  9.64E-12,  avg # of iterations =  2.0

     total cpu time spent up to now is      185.3 secs

     End of self-consistent calculation

     Number of k-points >= 100: set verbosity='high' to print the bands.

     highest occupied level (ev):     0.7462

!    total energy              =    -278.61071197 Ry
     estimated scf accuracy    <          1.2E-09 Ry

     The total energy is the sum of the following terms:
     one-electron contribution =    -104.13235351 Ry
     hartree contribution      =      82.63880252 Ry
     xc contribution           =     -71.15519346 Ry
     ewald contribution        =    -185.96196751 Ry

     convergence has been achieved in   7 iterations

     Forces acting on atoms (cartesian axes, Ry/au):

     atom    1 type  2   force =    -0.00000000   -0.00000002   -0.00000152
     atom    2 type  2   force =    -0.00000000    0.00000002    0.00000152
     atom    3 type  2   force =    -0.00000000   -0.00000004    0.00010405
     atom    4 type  2   force =    -0.00000000    0.00000004   -0.00010405
     atom    5 type  2   force =    -0.00000000   -0.00000000    0.00002757
     atom    6 type  2   force =    -0.00000000    0.00000000   -0.00002757
     atom    7 type  2   force =    -0.00000000   -0.00000000    0.00002394
[...]
     atom   19 type  1   force =     0.00320733   -0.00000000   -0.00144095
     atom   20 type  1   force =    -0.00320733    0.00000000    0.00144095
     atom   21 type  1   force =     0.00000000   -0.00320213    0.00146467
     atom   22 type  1   force =     0.00000000    0.00320213   -0.00146467
     atom   23 type  1   force =     0.00000000    0.00320472    0.00141816
     atom   24 type  1   force =     0.00000000   -0.00320472   -0.00141816

     Total force =     0.014046     Total SCF correction =     0.000071


     Computing stress (Cartesian axis) and pressure

          total   stress  (Ry/bohr**3)                   (kbar)     P=      104.82
   0.00070030   0.00000000   0.00000000          103.02        0.00        0.00
   0.00000000   0.00069994   0.00000000            0.00      102.96        0.00
   0.00000000   0.00000000   0.00073733            0.00        0.00      108.47

     Energy error            =      4.9E-04 Ry
     Gradient error          =      3.2E-03 Ry/Bohr

     number of scf cycles    =  10
     number of bfgs steps    =   9

     energy             old  =    -278.6102208309 Ry
     energy             new  =    -278.6107119665 Ry

     CASE: energy            _new < energy            _old

     new trust radius        =       0.0236706234 bohr
     new conv_thr            =       0.0000000032 Ry


ATOMIC_POSITIONS (crystal)
O               -0.0000000000        0.2499999984        0.6115818830
O               -0.0000000000        0.7500000016        0.3884181460
O                0.5000000000        0.7499999966        0.1115687089
O                0.5000000000        0.2500000034        0.8884312621
O                0.0000000000        0.7500000003        0.8616485593
O                0.0000000000        0.2499999997        0.1383514697
O                0.5000000000        0.2500000014        0.3615378019
O                0.5000000000        0.7499999986        0.6384621691
H                0.0000000000        0.4282494189        0.7038185161
H                0.0000000000        0.5717505511        0.2961814839
H                0.5000000000        0.5717358054        0.2037818297
H                0.5000000000        0.4282641646        0.7962181703
H                0.8217405063        0.7499999992        0.9538728353
H                0.1782594637        0.2500000008        0.0461271647
H                0.6782445523        0.2499999991        0.4537746721
H                0.3217554777        0.7500000009        0.5462253279
H                0.6782445523        0.7500000009        0.5462253279
H                0.3217554777        0.2499999991        0.4537746721
H                0.8217405063        0.2500000008        0.0461271647
H                0.1782594637        0.7499999992        0.9538728353
H                0.5000000000        0.9282641981        0.2037818332
H                0.5000000000        0.0717358319        0.7962181668
H                0.0000000000        0.0717505837        0.7038185139
H                0.0000000000        0.9282494463        0.2961814861



     Writing config-only to output data dir ./iceVIII/iceVIII.save/ :
     XML data file
     NEW-OLD atomic charge density approx. for the potential

     total cpu time spent up to now is      187.0 secs

     per-process dynamical memory:    19.7 Mb

     Self-consistent Calculation

     iteration #  1     ecut=    90.00 Ry     beta= 0.70
     Davidson diagonalization with overlap
     ethr =  1.00E-06,  avg # of iterations =  5.0

     total cpu time spent up to now is      190.6 secs

     total energy              =    -278.61112361 Ry
     estimated scf accuracy    <       0.00043970 Ry

     iteration #  2     ecut=    90.00 Ry     beta= 0.70
     Davidson diagonalization with overlap
     ethr =  6.87E-07,  avg # of iterations =  2.0

     total cpu time spent up to now is      192.3 secs

     total energy              =    -278.61118026 Ry
     estimated scf accuracy    <       0.00002866 Ry

     iteration #  3     ecut=    90.00 Ry     beta= 0.70
     Davidson diagonalization with overlap
     ethr =  4.48E-08,  avg # of iterations =  2.4

     total cpu time spent up to now is      194.4 secs

     total energy              =    -278.61118835 Ry
     estimated scf accuracy    <       0.00000514 Ry

     iteration #  4     ecut=    90.00 Ry     beta= 0.70
     Davidson diagonalization with overlap
     ethr =  8.04E-09,  avg # of iterations =  2.4

     total cpu time spent up to now is      196.5 secs

     total energy              =    -278.61118947 Ry
     estimated scf accuracy    <       0.00000045 Ry

     iteration #  5     ecut=    90.00 Ry     beta= 0.70
     Davidson diagonalization with overlap
     ethr =  7.07E-10,  avg # of iterations =  2.3

     total cpu time spent up to now is      198.5 secs

     total energy              =    -278.61118952 Ry
     estimated scf accuracy    <       0.00000006 Ry

     iteration #  6     ecut=    90.00 Ry     beta= 0.70
     Davidson diagonalization with overlap
     ethr =  9.61E-11,  avg # of iterations =  2.2

     total cpu time spent up to now is      200.6 secs

     End of self-consistent calculation

     Number of k-points >= 100: set verbosity='high' to print the bands.

     highest occupied level (ev):     0.7547

!    total energy              =    -278.61118954 Ry
     estimated scf accuracy    <          1.6E-09 Ry

     The total energy is the sum of the following terms:
     one-electron contribution =    -103.99336332 Ry
     hartree contribution      =      82.56530623 Ry
     xc contribution           =     -71.15652673 Ry
     ewald contribution        =    -186.02660571 Ry

     convergence has been achieved in   6 iterations

     Forces acting on atoms (cartesian axes, Ry/au):

     atom    1 type  2   force =     0.00000000    0.00000004   -0.00054647
     atom    2 type  2   force =     0.00000000   -0.00000004    0.00054647
     atom    3 type  2   force =     0.00000000    0.00000006   -0.00045767
     atom    4 type  2   force =     0.00000000   -0.00000006    0.00045767
     atom    5 type  2   force =     0.00000000   -0.00000000   -0.00052440
     atom    6 type  2   force =     0.00000000    0.00000000    0.00052440
     atom    7 type  2   force =     0.00000000   -0.00000001   -0.00049039
     atom    8 type  2   force =     0.00000000    0.00000001    0.00049039
     atom    9 type  1   force =     0.00000000   -0.00192330    0.00053966
     atom   10 type  1   force =     0.00000000    0.00192330   -0.00053966
     atom   11 type  1   force =     0.00000000    0.00191350    0.00062844
     atom   12 type  1   force =     0.00000000   -0.00191350   -0.00062844
     atom   13 type  1   force =     0.00192191    0.00000000    0.00055926
     atom   14 type  1   force =    -0.00192191   -0.00000000   -0.00055926
     atom   15 type  1   force =    -0.00190464    0.00000000    0.00056227
     atom   16 type  1   force =     0.00190464   -0.00000000   -0.00056227
     atom   17 type  1   force =    -0.00190464   -0.00000000   -0.00056227
     atom   18 type  1   force =     0.00190464    0.00000000    0.00056227
     atom   19 type  1   force =     0.00192191   -0.00000000   -0.00055926
     atom   20 type  1   force =    -0.00192191    0.00000000    0.00055926
     atom   21 type  1   force =     0.00000000   -0.00191356    0.00062840
     atom   22 type  1   force =     0.00000000    0.00191356   -0.00062840
     atom   23 type  1   force =     0.00000000    0.00192327    0.00053969
     atom   24 type  1   force =     0.00000000   -0.00192327   -0.00053969

     Total force =     0.008126     Total SCF correction =     0.000081


     Computing stress (Cartesian axis) and pressure

          total   stress  (Ry/bohr**3)                   (kbar)     P=      105.32
   0.00070985   0.00000000   0.00000000          104.42        0.00        0.00
   0.00000000   0.00070935  -0.00000000            0.00      104.35       -0.00
   0.00000000  -0.00000000   0.00072868            0.00       -0.00      107.19

     Energy error            =      4.8E-04 Ry
     Gradient error          =      1.9E-03 Ry/Bohr

     number of scf cycles    =  11
     number of bfgs steps    =  10

     energy             old  =    -278.6107119665 Ry
     energy             new  =    -278.6111895365 Ry

     CASE: energy            _new < energy            _old

     new trust radius        =       0.0108310061 bohr
     new conv_thr            =       0.0000000019 Ry


ATOMIC_POSITIONS (crystal)
O               -0.0000000000        0.2500000048        0.6121147687
O               -0.0000000000        0.7499999952        0.3878852603
O                0.5000000000        0.7500000080        0.1121131002
O                0.5000000000        0.2499999920        0.8878868708
O                0.0000000000        0.7500000000        0.8621925117
O                0.0000000000        0.2500000000        0.1378075173
O                0.5000000000        0.2500000008        0.3620709712
O                0.5000000000        0.7499999992        0.6379289998
H                0.0000000000        0.4278203866        0.7046465502
H                0.0000000000        0.5721795834        0.2953534498
H                0.5000000000        0.5721587450        0.2046196616
H                0.5000000000        0.4278412250        0.7953803384
H                0.8221679255        0.7499999991        0.9547107334
H                0.1778320445        0.2500000009        0.0452892666
H                0.6778178297        0.2499999992        0.4546004904
H                0.3221822003        0.7500000008        0.5453995096
H                0.6778178297        0.7500000008        0.5453995096
H                0.3221822003        0.2499999992        0.4546004904
H                0.8221679255        0.2500000009        0.0452892666
H                0.1778320445        0.7499999991        0.9547107334
H                0.5000000000        0.9278412491        0.2046196602
H                0.5000000000        0.0721587809        0.7953803398
H                0.0000000000        0.0721796108        0.7046465508
H                0.0000000000        0.9278204192        0.2953534492



     Writing config-only to output data dir ./iceVIII/iceVIII.save/ :
     XML data file
     NEW-OLD atomic charge density approx. for the potential

     total cpu time spent up to now is      202.3 secs

     per-process dynamical memory:    19.7 Mb

     Self-consistent Calculation

     iteration #  1     ecut=    90.00 Ry     beta= 0.70
     Davidson diagonalization with overlap
     ethr =  1.00E-06,  avg # of iterations =  3.0

     Threshold (ethr) on eigenvalues was too large:
     Diagonalizing with lowered threshold

     Davidson diagonalization with overlap
     ethr =  9.30E-08,  avg # of iterations =  2.9

     total cpu time spent up to now is      206.8 secs

     total energy              =    -278.61127962 Ry
     estimated scf accuracy    <       0.00006602 Ry

     iteration #  2     ecut=    90.00 Ry     beta= 0.70
     Davidson diagonalization with overlap
     ethr =  1.03E-07,  avg # of iterations =  2.0

     total cpu time spent up to now is      208.5 secs

     total energy              =    -278.61128772 Ry
     estimated scf accuracy    <       0.00000491 Ry

     iteration #  3     ecut=    90.00 Ry     beta= 0.70
     Davidson diagonalization with overlap
     ethr =  7.67E-09,  avg # of iterations =  2.7

     total cpu time spent up to now is      210.6 secs

     total energy              =    -278.61128906 Ry
     estimated scf accuracy    <       0.00000092 Ry

     iteration #  4     ecut=    90.00 Ry     beta= 0.70
     Davidson diagonalization with overlap
     ethr =  1.44E-09,  avg # of iterations =  2.2

     total cpu time spent up to now is      212.6 secs

     total energy              =    -278.61128924 Ry
     estimated scf accuracy    <       0.00000006 Ry

     iteration #  5     ecut=    90.00 Ry     beta= 0.70
     Davidson diagonalization with overlap
     ethr =  9.83E-11,  avg # of iterations =  3.0

     total cpu time spent up to now is      214.8 secs

     total energy              =    -278.61128925 Ry
     estimated scf accuracy    <       0.00000002 Ry

     iteration #  6     ecut=    90.00 Ry     beta= 0.70
     Davidson diagonalization with overlap
     ethr =  2.39E-11,  avg # of iterations =  2.1

     total cpu time spent up to now is      216.8 secs

     End of self-consistent calculation

     Number of k-points >= 100: set verbosity='high' to print the bands.

     highest occupied level (ev):     0.7563

!    total energy              =    -278.61128926 Ry
     estimated scf accuracy    <          3.3E-10 Ry

     The total energy is the sum of the following terms:
     one-electron contribution =    -103.98355803 Ry
     hartree contribution      =      82.55483690 Ry
     xc contribution           =     -71.16070348 Ry
     ewald contribution        =    -186.02186465 Ry

     convergence has been achieved in   6 iterations

     Forces acting on atoms (cartesian axes, Ry/au):

     atom    1 type  2   force =     0.00000000   -0.00000006   -0.00044412
     atom    2 type  2   force =     0.00000000    0.00000006    0.00044412
     atom    3 type  2   force =    -0.00000000   -0.00000011   -0.00033473
     atom    4 type  2   force =    -0.00000000    0.00000011    0.00033473
     atom    5 type  2   force =    -0.00000000    0.00000000   -0.00042713
     atom    6 type  2   force =    -0.00000000   -0.00000000    0.00042713
     atom    7 type  2   force =    -0.00000000    0.00000000   -0.00037284
     atom    8 type  2   force =    -0.00000000   -0.00000000    0.00037284
     atom    9 type  1   force =     0.00000000   -0.00059887    0.00003530
     atom   10 type  1   force =     0.00000000    0.00059887   -0.00003530
     atom   11 type  1   force =     0.00000000    0.00061122    0.00011187
     atom   12 type  1   force =     0.00000000   -0.00061122   -0.00011187
     atom   13 type  1   force =     0.00059871    0.00000000    0.00004926
     atom   14 type  1   force =    -0.00059871   -0.00000000   -0.00004926
     atom   15 type  1   force =    -0.00058131    0.00000000    0.00006822
     atom   16 type  1   force =     0.00058131   -0.00000000   -0.00006822
     atom   17 type  1   force =    -0.00058131   -0.00000000   -0.00006822
     atom   18 type  1   force =     0.00058131    0.00000000    0.00006822
     atom   19 type  1   force =     0.00059871   -0.00000000   -0.00004926
     atom   20 type  1   force =    -0.00059871    0.00000000    0.00004926
     atom   21 type  1   force =     0.00000000   -0.00061112    0.00011194
     atom   22 type  1   force =     0.00000000    0.00061112   -0.00011194
     atom   23 type  1   force =     0.00000000    0.00059892    0.00003526
     atom   24 type  1   force =     0.00000000   -0.00059892   -0.00003526

     Total force =     0.002657     Total SCF correction =     0.000036


     Computing stress (Cartesian axis) and pressure

          total   stress  (Ry/bohr**3)                   (kbar)     P=      106.56
   0.00072376   0.00000000   0.00000000          106.47        0.00        0.00
   0.00000000   0.00072312   0.00000000            0.00      106.37        0.00
   0.00000000   0.00000000   0.00072635            0.00        0.00      106.85

     Energy error            =      1.0E-04 Ry
     Gradient error          =      6.1E-04 Ry/Bohr

     bfgs converged in  12 scf cycles and  11 bfgs steps
     (criteria: energy <  1.0E-04 Ry, force <  1.0E-03 Ry/Bohr)

     End of BFGS Geometry Optimization

     Final energy             =    -278.6112892553 Ry

     File ./iceVIII/iceVIII.bfgs deleted, as requested
Begin final coordinates

ATOMIC_POSITIONS (crystal)
O               -0.0000000000        0.2500000048        0.6121147687
O               -0.0000000000        0.7499999952        0.3878852603
O                0.5000000000        0.7500000080        0.1121131002
O                0.5000000000        0.2499999920        0.8878868708
O                0.0000000000        0.7500000000        0.8621925117
O                0.0000000000        0.2500000000        0.1378075173
O                0.5000000000        0.2500000008        0.3620709712
O                0.5000000000        0.7499999992        0.6379289998
H                0.0000000000        0.4278203866        0.7046465502
H                0.0000000000        0.5721795834        0.2953534498
H                0.5000000000        0.5721587450        0.2046196616
H                0.5000000000        0.4278412250        0.7953803384
H                0.8221679255        0.7499999991        0.9547107334
H                0.1778320445        0.2500000009        0.0452892666
H                0.6778178297        0.2499999992        0.4546004904
H                0.3221822003        0.7500000008        0.5453995096
H                0.6778178297        0.7500000008        0.5453995096
H                0.3221822003        0.2499999992        0.4546004904
H                0.8221679255        0.2500000009        0.0452892666
H                0.1778320445        0.7499999991        0.9547107334
H                0.5000000000        0.9278412491        0.2046196602
H                0.5000000000        0.0721587809        0.7953803398
H                0.0000000000        0.0721796108        0.7046465508
H                0.0000000000        0.9278204192        0.2953534492
End final coordinates



     Writing all to output data dir ./iceVIII/iceVIII.save/ :
     XML data file, charge density, pseudopotentials, collected wavefunctions

     init_run     :      2.65s CPU      2.73s WALL (       1 calls)
     electrons    :    190.35s CPU    194.97s WALL (      12 calls)
     update_pot   :      0.43s CPU      0.48s WALL (      11 calls)
     forces       :      1.46s CPU      1.48s WALL (      12 calls)
     stress       :     17.73s CPU     17.81s WALL (      12 calls)

     Called by init_run:
     wfcinit      :      0.86s CPU      0.88s WALL (       1 calls)
     potinit      :      1.57s CPU      1.60s WALL (       1 calls)
     hinit0       :      0.18s CPU      0.19s WALL (       1 calls)

     Called by electrons:
     c_bands      :    168.08s CPU    171.66s WALL (      84 calls)
     sum_band     :     19.05s CPU     19.31s WALL (      84 calls)
     v_of_rho     :      4.89s CPU      5.30s WALL (      93 calls)
     newd         :      0.09s CPU      0.14s WALL (      93 calls)
     mix_rho      :      0.08s CPU      0.08s WALL (      84 calls)
     vdW_kernel   :      1.51s CPU      1.52s WALL (       1 calls)

     Called by c_bands:
     init_us_2    :      1.94s CPU      2.01s WALL (    6948 calls)
     cegterg      :    162.55s CPU    164.65s WALL (    3024 calls)

     Called by *egterg:
     cdiaghg      :     20.32s CPU     20.48s WALL (   11907 calls)
     h_psi        :    120.76s CPU    122.52s WALL (   12447 calls)
     s_psi        :      4.29s CPU      4.34s WALL (   12447 calls)
     g_psi        :      0.37s CPU      0.37s WALL (    9387 calls)

     Called by h_psi:
     h_psi:calbec :      5.77s CPU      5.85s WALL (   12447 calls)
     vloc_psi     :    109.95s CPU    111.58s WALL (   12447 calls)
     add_vuspsi   :      4.58s CPU      4.64s WALL (   12447 calls)

     General routines
     calbec       :      8.42s CPU      8.53s WALL (   17631 calls)
     fft          :      2.12s CPU      2.19s WALL (    6311 calls)
     ffts         :      0.03s CPU      0.03s WALL (      84 calls)
     fftw         :    116.76s CPU    118.46s WALL (  732428 calls)

     Parallel routines

     PWSCF        :   3m33.88s CPU   3m41.06s WALL


   This run was terminated on:  14:18:42   1Apr2026            

=------------------------------------------------------------------------------=
   JOB DONE.
=------------------------------------------------------------------------------=
