
     Program PWSCF v.7.3.1 starts on  1Apr2026 at 14:34:44 

     This program is part of the open-source Quantum ESPRESSO suite
     for quantum simulation of materials; please cite
         "P. Giannozzi et al., J. Phys.:Condens. Matter 21 395502 (2009);
         "P. Giannozzi et al., J. Phys.:Condens. Matter 29 465901 (2017);
         "P. Giannozzi et al., J. Chem. Phys. 152 154105 (2020);
          URL http://www.quantum-espresso.org", 
     in publications or presentations arising from this work. More details at
     http://www.quantum-espresso.org/quote

     Parallel version (MPI), running on   128 processors

     MPI processes distributed on     1 nodes
     241890 MiB available memory on the printing compute node when the environment starts

     Waiting for input...
     Reading input from standard input

     Current dimensions of program PWSCF are:
     Max number of different atomic species (ntypx) = 10
     Max number of k-points (npk) =  40000
     Max angular momentum in pseudopotentials (lmaxx) =  4

     IMPORTANT: XC functional enforced from input :
     Exchange-correlation= VDW-DF2
                           (   1   4  13   0   2   0   0)
     Any further DFT definition will be discarded
     Please, verify this is what you really want

     Found identity + ( -0.5000 -0.5000  0.5000) symmetry
     This is a supercell, fractional translations are disabled

     K-points division:     npool     =       4
     R & G space division:  proc/nbgrp/npool/nimage =      32
     Subspace diagonalization in iterative solution of the eigenvalue problem:
     a serial algorithm will be used


     Parallelization info
     --------------------
     sticks:   dense  smooth     PW     G-vecs:    dense   smooth      PW
     Min          65      65     18                 3281     3281     480
     Max          66      66     19                 3290     3290     485
     Sum        2093    2093    593               105095   105095   15407

     Using Slab Decomposition



     bravais-lattice index     =            6
     lattice parameter (alat)  =       8.5831  a.u.
     unit-cell volume          =     911.9316 (a.u.)^3
     number of atoms/cell      =           24
     number of atomic types    =            2
     number of electrons       =        64.00
     number of Kohn-Sham states=           32
     kinetic-energy cutoff     =      90.0000  Ry
     charge density cutoff     =     360.0000  Ry
     scf convergence threshold =      1.0E-07
     mixing beta               =       0.7000
     number of iterations used =            8  plain     mixing
     energy convergence thresh.=      1.0E-04
     force convergence thresh. =      1.0E-03
     Exchange-correlation= VDW-DF2
                           (   1   4  13   0   2   0   0)
     nstep                     =           50


     celldm(1)=   8.583134  celldm(2)=   0.000000  celldm(3)=   1.442197
     celldm(4)=   0.000000  celldm(5)=   0.000000  celldm(6)=   0.000000

     crystal axes: (cart. coord. in units of alat)
               a(1) = (   1.000000   0.000000   0.000000 )  
               a(2) = (   0.000000   1.000000   0.000000 )  
               a(3) = (   0.000000   0.000000   1.442197 )  

     reciprocal axes: (cart. coord. in units 2 pi/alat)
               b(1) = (  1.000000  0.000000  0.000000 )  
               b(2) = (  0.000000  1.000000  0.000000 )  
               b(3) = (  0.000000  0.000000  0.693386 )  


     PseudoPot. # 1 for H  read from file:
     ./H.pbe-van_ak.UPF
     MD5 check sum: 077eb6d537518a38cb46c6de387227b7
     Pseudo is Ultrasoft, Zval =  1.0
     Generated by new atomic code, or converted to UPF format
     Using radial grid of  615 points,  1 beta functions with: 
                l(1) =   0
     Q(r) pseudized with  8 coefficients,  rinner =    0.800

     PseudoPot. # 2 for O  read from file:
     ./O.pbe-van_ak.UPF
     MD5 check sum: 78c19812648e8988a0fe644b0f25305e
     Pseudo is Ultrasoft, Zval =  6.0
     Generated by new atomic code, or converted to UPF format
     Using radial grid of  737 points,  4 beta functions with: 
                l(1) =   0
                l(2) =   0
                l(3) =   1
                l(4) =   1
     Q(r) pseudized with  8 coefficients,  rinner =    0.800   0.800   0.800


     atomic species   valence    mass     pseudopotential
     H                 1.00     1.00800     H ( 1.00)
     O                 6.00    16.00000     O ( 1.00)

      4 Sym. Ops., with inversion, found



   Cartesian axes

     site n.     atom                  positions (alat units)
         1        O      tau(   1) = (   0.0000000   0.2500000   0.8781106  )
         2        O      tau(   2) = (   0.0000000   0.7500000   0.5640866  )
         3        O      tau(   3) = (   0.5000000   0.7500000   0.1570120  )
         4        O      tau(   4) = (   0.5000000   0.2500000   1.2851851  )
         5        O      tau(   5) = (   0.0000000   0.7500000   1.2386599  )
         6        O      tau(   6) = (   0.0000000   0.2500000   0.2035373  )
         7        O      tau(   7) = (   0.5000000   0.2500000   0.5175613  )
         8        O      tau(   8) = (   0.5000000   0.7500000   0.9246358  )
         9        H      tau(   9) = (   0.0000000   0.4142500   1.0027885  )
        10        H      tau(  10) = (   0.0000000   0.5857500   0.4394086  )
        11        H      tau(  11) = (   0.5000000   0.5857500   0.2816900  )
        12        H      tau(  12) = (   0.5000000   0.4142500   1.1605072  )
        13        H      tau(  13) = (   0.8357500   0.7500000   1.3633378  )
        14        H      tau(  14) = (   0.1642500   0.2500000   0.0788593  )
        15        H      tau(  15) = (   0.6642500   0.2500000   0.6422392  )
        16        H      tau(  16) = (   0.3357500   0.7500000   0.7999579  )
        17        H      tau(  17) = (   0.6642500   0.7500000   0.7999579  )
        18        H      tau(  18) = (   0.3357500   0.2500000   0.6422392  )
        19        H      tau(  19) = (   0.8357500   0.2500000   0.0788593  )
        20        H      tau(  20) = (   0.1642500   0.7500000   1.3633378  )
        21        H      tau(  21) = (   0.5000000   0.9142500   0.2816900  )
        22        H      tau(  22) = (   0.5000000   0.0857500   1.1605072  )
        23        H      tau(  23) = (   0.0000000   0.0857500   1.0027885  )
        24        H      tau(  24) = (   0.0000000   0.9142500   0.4394086  )

     number of k points=   144

     Number of k-points >= 100: set verbosity='high' to print them.

     Dense  grid:   105095 G-vectors     FFT dimensions: (  54,  54,  75)

     Estimated max dynamical RAM per process >      12.27 MB

     Estimated total dynamical RAM >       1.46 GB

     Initial potential from superposition of free atoms

     starting charge      63.9998, renormalised to      64.0000


     %%%%%%%%%%%%%%%%%%%%%%%%%%%%%%%%%%%%%%%%%%%%%%%%%%%%%%%%%%%%%%%%%%%%%%%%
     %                                                                      %
     % You are using vdW-DF, which was implemented by the Thonhauser group. %
     % Please cite the following two papers that made this development      %
     % possible and the two reviews that describe the various versions:     %
     %                                                                      %
     %   T. Thonhauser et al., PRL 115, 136402 (2015).                      %
     %   T. Thonhauser et al., PRB 76, 125112 (2007).                       %
     %   K. Berland et al., Rep. Prog. Phys. 78, 066501 (2015).             %
     %   D.C. Langreth et al., J. Phys.: Condens. Matter 21, 084203 (2009). %
     %                                                                      %
     % If you are calculating stress with vdW-DF, please also cite:         %
     %                                                                      %
     %   R. Sabatini et al., J. Phys.: Condens. Matter 24, 424209 (2012).   %
     %                                                                      %
     %%%%%%%%%%%%%%%%%%%%%%%%%%%%%%%%%%%%%%%%%%%%%%%%%%%%%%%%%%%%%%%%%%%%%%%%

     %%%%%%%%%%%%%%%%%%%%%%%%%%%%%%%%%%%%%%%%%%%%%%%%%%%%%%%%%%%%%%%%%%%%%%%%
     %                                                                      %
     %  vdW-DF NEWS:                                                        %
     %                                                                      %
     %  * vdW-DF3 is now available. DOI: 10.1021/acs.jctc.0c00471           %
     %    use with input_dft = 'vdW-DF3-opt1' or 'vdW-DF3-opt2'             %
     %                                                                      %
     %  * Unscreened and range-separated hybrid vdW-DF-cx functionals       %
     %    DOI: 10.1063/1.4986522 and 10.1088/1361-648X/ac2ad2               %
     %    use with input_dft = 'vdW-DF-cx0'    and 'vdW-DF-ahcx'            %
     %  * Unscreened and range-separated hybrid vdW-DF2-b86r functionals    %
     %    DOI: 10.1063/1.4986522 and DOI: 10.1103/PhysRevX.12.041003        %
     %    use with input_dft = 'vdW-DF2-br0' and 'vdW-DF2-ahbr'             %
     %                                                                      %
     %%%%%%%%%%%%%%%%%%%%%%%%%%%%%%%%%%%%%%%%%%%%%%%%%%%%%%%%%%%%%%%%%%%%%%%%


     Starting wfcs are   48 randomized atomic wfcs

     total cpu time spent up to now is        3.0 secs

     per-process dynamical memory:    19.0 Mb

     Self-consistent Calculation

     iteration #  1     ecut=    90.00 Ry     beta= 0.70
     Davidson diagonalization with overlap
     ethr =  1.00E-02,  avg # of iterations =  2.0

     total cpu time spent up to now is        4.9 secs

     total energy              =    -277.12610497 Ry
     estimated scf accuracy    <       3.38174257 Ry

     iteration #  2     ecut=    90.00 Ry     beta= 0.70
     Davidson diagonalization with overlap
     ethr =  5.28E-03,  avg # of iterations =  3.0

     total cpu time spent up to now is        7.4 secs

     total energy              =    -278.29349496 Ry
     estimated scf accuracy    <       1.74786315 Ry

     iteration #  3     ecut=    90.00 Ry     beta= 0.70
     Davidson diagonalization with overlap
     ethr =  2.73E-03,  avg # of iterations =  2.0

     total cpu time spent up to now is        9.3 secs

     total energy              =    -278.49583777 Ry
     estimated scf accuracy    <       0.07781792 Ry

     iteration #  4     ecut=    90.00 Ry     beta= 0.70
     Davidson diagonalization with overlap
     ethr =  1.22E-04,  avg # of iterations =  4.0

     total cpu time spent up to now is       12.1 secs

     total energy              =    -278.55020974 Ry
     estimated scf accuracy    <       0.10666424 Ry

     iteration #  5     ecut=    90.00 Ry     beta= 0.70
     Davidson diagonalization with overlap
     ethr =  1.22E-04,  avg # of iterations =  2.0

     total cpu time spent up to now is       14.0 secs

     total energy              =    -278.55305429 Ry
     estimated scf accuracy    <       0.01556861 Ry

     iteration #  6     ecut=    90.00 Ry     beta= 0.70
     Davidson diagonalization with overlap
     ethr =  2.43E-05,  avg # of iterations =  2.7

     total cpu time spent up to now is       16.1 secs

     total energy              =    -278.55728715 Ry
     estimated scf accuracy    <       0.00015348 Ry

     iteration #  7     ecut=    90.00 Ry     beta= 0.70
     Davidson diagonalization with overlap
     ethr =  2.40E-07,  avg # of iterations =  5.6

     total cpu time spent up to now is       19.5 secs

     total energy              =    -278.55760018 Ry
     estimated scf accuracy    <       0.00033327 Ry

     iteration #  8     ecut=    90.00 Ry     beta= 0.70
     Davidson diagonalization with overlap
     ethr =  2.40E-07,  avg # of iterations =  2.0

     total cpu time spent up to now is       21.6 secs

     total energy              =    -278.55762224 Ry
     estimated scf accuracy    <       0.00002938 Ry

     iteration #  9     ecut=    90.00 Ry     beta= 0.70
     Davidson diagonalization with overlap
     ethr =  4.59E-08,  avg # of iterations =  3.0

     total cpu time spent up to now is       24.1 secs

     total energy              =    -278.55763618 Ry
     estimated scf accuracy    <       0.00000242 Ry

     iteration # 10     ecut=    90.00 Ry     beta= 0.70
     Davidson diagonalization with overlap
     ethr =  3.79E-09,  avg # of iterations =  2.0

     total cpu time spent up to now is       25.9 secs

     total energy              =    -278.55763625 Ry
     estimated scf accuracy    <       0.00000083 Ry

     iteration # 11     ecut=    90.00 Ry     beta= 0.70
     Davidson diagonalization with overlap
     ethr =  1.30E-09,  avg # of iterations =  2.0

     total cpu time spent up to now is       27.6 secs

     total energy              =    -278.55763625 Ry
     estimated scf accuracy    <       0.00000013 Ry

     iteration # 12     ecut=    90.00 Ry     beta= 0.70
     Davidson diagonalization with overlap
     ethr =  2.09E-10,  avg # of iterations =  3.0

     total cpu time spent up to now is       29.8 secs

     End of self-consistent calculation

     Number of k-points >= 100: set verbosity='high' to print the bands.

     highest occupied level (ev):     0.1498

!    total energy              =    -278.55763631 Ry
     estimated scf accuracy    <          8.3E-09 Ry

     The total energy is the sum of the following terms:
     one-electron contribution =    -117.80569153 Ry
     hartree contribution      =      88.03428925 Ry
     xc contribution           =     -71.74519058 Ry
     ewald contribution        =    -177.04104344 Ry

     convergence has been achieved in  12 iterations

     Forces acting on atoms (cartesian axes, Ry/au):

     atom    1 type  2   force =     0.00000000   -0.00000001   -0.11276490
     atom    2 type  2   force =     0.00000000    0.00000001    0.11276490
     atom    3 type  2   force =     0.00000000   -0.00000001   -0.11265991
     atom    4 type  2   force =     0.00000000    0.00000001    0.11265991
     atom    5 type  2   force =    -0.00000000    0.00000002   -0.11258904
     atom    6 type  2   force =    -0.00000000   -0.00000002    0.11258904
     atom    7 type  2   force =     0.00000000    0.00000002   -0.11276122
     atom    8 type  2   force =     0.00000000   -0.00000002    0.11276122
     atom    9 type  1   force =     0.00000000    0.08655083    0.05735762
     atom   10 type  1   force =     0.00000000   -0.08655083   -0.05735762
     atom   11 type  1   force =     0.00000000   -0.08654844    0.05732836
     atom   12 type  1   force =     0.00000000    0.08654844   -0.05732836
     atom   13 type  1   force =    -0.08655167   -0.00000000    0.05734839
     atom   14 type  1   force =     0.08655167    0.00000000   -0.05734839
     atom   15 type  1   force =     0.08655082   -0.00000000    0.05735200
     atom   16 type  1   force =    -0.08655082    0.00000000   -0.05735200
     atom   17 type  1   force =     0.08655082    0.00000000   -0.05735200
     atom   18 type  1   force =    -0.08655082   -0.00000000    0.05735200
     atom   19 type  1   force =    -0.08655167    0.00000000   -0.05734839
     atom   20 type  1   force =     0.08655167   -0.00000000    0.05734839
     atom   21 type  1   force =     0.00000000    0.08654844    0.05732836
     atom   22 type  1   force =     0.00000000   -0.08654844   -0.05732836
     atom   23 type  1   force =     0.00000000   -0.08655083    0.05735762
     atom   24 type  1   force =     0.00000000    0.08655083   -0.05735762

     Total force =     0.523520     Total SCF correction =     0.000137


     Computing stress (Cartesian axis) and pressure

          total   stress  (Ry/bohr**3)                   (kbar)     P=      241.66
   0.00162487   0.00000000   0.00000000          239.03        0.00        0.00
   0.00000000   0.00162522  -0.00000000            0.00      239.08       -0.00
   0.00000000  -0.00000000   0.00167815            0.00       -0.00      246.86


     BFGS Geometry Optimization
     Energy error            =      0.0E+00 Ry
     Gradient error          =      1.1E-01 Ry/Bohr

     number of scf cycles    =   1
     number of bfgs steps    =   0

     energy             new  =    -278.5576363076 Ry

     new trust radius        =       0.1127648960 bohr
     new conv_thr            =       0.0000001000 Ry


ATOMIC_POSITIONS (crystal)
O                0.0000000000        0.2499999990        0.5997603427
O                0.0000000000        0.7500000010        0.4002396863
O                0.5000000000        0.7499999984        0.0997687952
O                0.5000000000        0.2500000016        0.9002311758
O               -0.0000000000        0.7500000024        0.8497745492
O               -0.0000000000        0.2499999976        0.1502254798
O                0.5000000000        0.2500000026        0.3497606105
O                0.5000000000        0.7499999974        0.6502393605
H                0.0000000000        0.4243338121        0.6999536323
H                0.0000000000        0.5756661579        0.3000463677
H                0.5000000000        0.5756664357        0.1999512686
H                0.5000000000        0.4243335343        0.8000487314
H                0.8256660600        0.7499999998        0.9499528867
H                0.1743339100        0.2500000002        0.0500471133
H                0.6743338415        0.2499999999        0.4499531778
H                0.3256661885        0.7500000001        0.5500468222
H                0.6743338415        0.7500000001        0.5500468222
H                0.3256661885        0.2499999999        0.4499531778
H                0.8256660600        0.2500000002        0.0500471133
H                0.1743339100        0.7499999998        0.9499528867
H                0.5000000000        0.9243335637        0.1999512686
H                0.5000000000        0.0756664663        0.8000487314
H                0.0000000000        0.0756661874        0.6999536321
H                0.0000000000        0.9243338426        0.3000463679



     Writing config-only to output data dir ./iceVIII/iceVIII.save/ :
     XML data file
     NEW-OLD atomic charge density approx. for the potential

     total cpu time spent up to now is       31.6 secs

     per-process dynamical memory:    20.2 Mb

     Self-consistent Calculation

     iteration #  1     ecut=    90.00 Ry     beta= 0.70
     Davidson diagonalization with overlap
     ethr =  1.00E-06,  avg # of iterations = 10.0

     total cpu time spent up to now is       37.5 secs

     total energy              =    -278.56664086 Ry
     estimated scf accuracy    <       0.09346836 Ry

     iteration #  2     ecut=    90.00 Ry     beta= 0.70
     Davidson diagonalization with overlap
     ethr =  1.46E-04,  avg # of iterations =  3.0

     total cpu time spent up to now is       39.9 secs

     total energy              =    -278.59387007 Ry
     estimated scf accuracy    <       0.03425644 Ry

     iteration #  3     ecut=    90.00 Ry     beta= 0.70
     Davidson diagonalization with overlap
     ethr =  5.35E-05,  avg # of iterations =  2.0

     total cpu time spent up to now is       41.9 secs

     total energy              =    -278.59919431 Ry
     estimated scf accuracy    <       0.00078799 Ry

     iteration #  4     ecut=    90.00 Ry     beta= 0.70
     Davidson diagonalization with overlap
     ethr =  1.23E-06,  avg # of iterations =  4.1

     total cpu time spent up to now is       44.8 secs

     total energy              =    -278.59985083 Ry
     estimated scf accuracy    <       0.00079084 Ry

     iteration #  5     ecut=    90.00 Ry     beta= 0.70
     Davidson diagonalization with overlap
     ethr =  1.23E-06,  avg # of iterations =  2.1

     total cpu time spent up to now is       46.8 secs

     total energy              =    -278.60003233 Ry
     estimated scf accuracy    <       0.00000543 Ry

     iteration #  6     ecut=    90.00 Ry     beta= 0.70
     Davidson diagonalization with overlap
     ethr =  8.48E-09,  avg # of iterations =  4.5

     total cpu time spent up to now is       50.0 secs

     total energy              =    -278.60002964 Ry
     estimated scf accuracy    <       0.00002415 Ry

     iteration #  7     ecut=    90.00 Ry     beta= 0.70
     Davidson diagonalization with overlap
     ethr =  8.48E-09,  avg # of iterations =  3.1

     total cpu time spent up to now is       52.6 secs

     End of self-consistent calculation

     Number of k-points >= 100: set verbosity='high' to print the bands.

     highest occupied level (ev):     0.3397

!    total energy              =    -278.60003439 Ry
     estimated scf accuracy    <       0.00000004 Ry

     The total energy is the sum of the following terms:
     one-electron contribution =    -108.16869121 Ry
     hartree contribution      =      83.94828770 Ry
     xc contribution           =     -70.64497901 Ry
     ewald contribution        =    -183.73465186 Ry

     convergence has been achieved in   7 iterations

     Forces acting on atoms (cartesian axes, Ry/au):

     atom    1 type  2   force =     0.00000000    0.00000001    0.08331681
     atom    2 type  2   force =     0.00000000   -0.00000001   -0.08331681
     atom    3 type  2   force =    -0.00000000    0.00000001    0.08307691
     atom    4 type  2   force =    -0.00000000   -0.00000001   -0.08307691
     atom    5 type  2   force =    -0.00000000   -0.00000000    0.08330051
     atom    6 type  2   force =    -0.00000000    0.00000000   -0.08330051
     atom    7 type  2   force =     0.00000000   -0.00000000    0.08328726
     atom    8 type  2   force =     0.00000000    0.00000000   -0.08328726
     atom    9 type  1   force =     0.00000000   -0.02267005   -0.03608819
     atom   10 type  1   force =     0.00000000    0.02267005    0.03608819
     atom   11 type  1   force =     0.00000000    0.02264256   -0.03603624
     atom   12 type  1   force =     0.00000000   -0.02264256    0.03603624
     atom   13 type  1   force =     0.02262543    0.00000000   -0.03601607
     atom   14 type  1   force =    -0.02262543   -0.00000000    0.03601607
     atom   15 type  1   force =    -0.02266438    0.00000000   -0.03607718
     atom   16 type  1   force =     0.02266438   -0.00000000    0.03607718
     atom   17 type  1   force =    -0.02266438   -0.00000000    0.03607718
     atom   18 type  1   force =     0.02266438    0.00000000   -0.03607718
     atom   19 type  1   force =     0.02262543   -0.00000000    0.03601607
     atom   20 type  1   force =    -0.02262543    0.00000000   -0.03601607
     atom   21 type  1   force =     0.00000000   -0.02264257   -0.03603624
     atom   22 type  1   force =     0.00000000    0.02264257    0.03603624
     atom   23 type  1   force =     0.00000000    0.02267005   -0.03608818
     atom   24 type  1   force =     0.00000000   -0.02267005    0.03608818

     Total force =     0.290596     Total SCF correction =     0.000366


     Computing stress (Cartesian axis) and pressure

          total   stress  (Ry/bohr**3)                   (kbar)     P=        9.27
   0.00019960   0.00000000   0.00000000           29.36        0.00        0.00
   0.00000000   0.00019941  -0.00000000            0.00       29.33       -0.00
   0.00000000  -0.00000000  -0.00021001            0.00       -0.00      -30.89

     Energy error            =      4.2E-02 Ry
     Gradient error          =      8.3E-02 Ry/Bohr

     number of scf cycles    =   2
     number of bfgs steps    =   1

     energy             old  =    -278.5576363076 Ry
     energy             new  =    -278.6000343885 Ry

     CASE: energy            _new < energy            _old

     new trust radius        =       0.0527847099 bohr
     new conv_thr            =       0.0000000833 Ry


ATOMIC_POSITIONS (crystal)
O                0.0000000000        0.2499999995        0.6040245434
O                0.0000000000        0.7500000005        0.3959754856
O                0.5000000000        0.7499999992        0.1040203349
O                0.5000000000        0.2500000008        0.8959796361
O               -0.0000000000        0.7500000021        0.8540381834
O               -0.0000000000        0.2499999979        0.1459618456
O                0.5000000000        0.2500000022        0.3540232356
O                0.5000000000        0.7499999978        0.6459767354
H                0.0000000000        0.4228006998        0.6981214358
H                0.0000000000        0.5771992702        0.3018785642
H                0.5000000000        0.5771974317        0.1981218026
H                0.5000000000        0.4228025383        0.8018781974
H                0.8271957248        0.7499999999        0.9481245354
H                0.1728042452        0.2500000001        0.0518754646
H                0.6728011666        0.2500000000        0.4481215611
H                0.3271988634        0.7500000000        0.5518784389
H                0.6728011666        0.7500000000        0.5518784389
H                0.3271988634        0.2500000000        0.4481215611
H                0.8271957248        0.2500000001        0.0518754646
H                0.1728042452        0.7499999999        0.9481245354
H                0.5000000000        0.9228025670        0.1981218022
H                0.5000000000        0.0771974630        0.8018781978
H                0.0000000000        0.0771992992        0.6981214359
H                0.0000000000        0.9228007308        0.3018785641



     Writing config-only to output data dir ./iceVIII/iceVIII.save/ :
     XML data file
     NEW-OLD atomic charge density approx. for the potential

     total cpu time spent up to now is       54.3 secs

     per-process dynamical memory:    20.3 Mb

     Self-consistent Calculation

     iteration #  1     ecut=    90.00 Ry     beta= 0.70
     Davidson diagonalization with overlap
     ethr =  1.00E-06,  avg # of iterations =  8.0

     total cpu time spent up to now is       59.0 secs

     total energy              =    -278.63017786 Ry
     estimated scf accuracy    <       0.01100756 Ry

     iteration #  2     ecut=    90.00 Ry     beta= 0.70
     Davidson diagonalization with overlap
     ethr =  1.72E-05,  avg # of iterations =  3.0

     total cpu time spent up to now is       61.3 secs

     total energy              =    -278.63354030 Ry
     estimated scf accuracy    <       0.00302034 Ry

     iteration #  3     ecut=    90.00 Ry     beta= 0.70
     Davidson diagonalization with overlap
     ethr =  4.72E-06,  avg # of iterations =  2.0

     total cpu time spent up to now is       63.1 secs

     total energy              =    -278.63391180 Ry
     estimated scf accuracy    <       0.00009517 Ry

     iteration #  4     ecut=    90.00 Ry     beta= 0.70
     Davidson diagonalization with overlap
     ethr =  1.49E-07,  avg # of iterations =  4.4

     total cpu time spent up to now is       65.9 secs

     total energy              =    -278.63396180 Ry
     estimated scf accuracy    <       0.00006700 Ry

     iteration #  5     ecut=    90.00 Ry     beta= 0.70
     Davidson diagonalization with overlap
     ethr =  1.05E-07,  avg # of iterations =  3.0

     total cpu time spent up to now is       68.2 secs

     total energy              =    -278.63398355 Ry
     estimated scf accuracy    <       0.00000823 Ry

     iteration #  6     ecut=    90.00 Ry     beta= 0.70
     Davidson diagonalization with overlap
     ethr =  1.29E-08,  avg # of iterations =  2.0

     total cpu time spent up to now is       69.9 secs

     total energy              =    -278.63398425 Ry
     estimated scf accuracy    <       0.00000049 Ry

     iteration #  7     ecut=    90.00 Ry     beta= 0.70
     Davidson diagonalization with overlap
     ethr =  7.72E-10,  avg # of iterations =  3.0

     total cpu time spent up to now is       72.3 secs

     End of self-consistent calculation

     Number of k-points >= 100: set verbosity='high' to print the bands.

     highest occupied level (ev):     0.2883

!    total energy              =    -278.63398446 Ry
     estimated scf accuracy    <       0.00000007 Ry

     The total energy is the sum of the following terms:
     one-electron contribution =    -110.90176621 Ry
     hartree contribution      =      85.09422260 Ry
     xc contribution           =     -70.98226311 Ry
     ewald contribution        =    -181.84417774 Ry

     convergence has been achieved in   7 iterations

     Forces acting on atoms (cartesian axes, Ry/au):

     atom    1 type  2   force =     0.00000000    0.00000000    0.02450634
     atom    2 type  2   force =     0.00000000   -0.00000000   -0.02450634
     atom    3 type  2   force =     0.00000000    0.00000000    0.02449331
     atom    4 type  2   force =     0.00000000   -0.00000000   -0.02449331
     atom    5 type  2   force =     0.00000000   -0.00000000    0.02452367
     atom    6 type  2   force =     0.00000000    0.00000000   -0.02452367
     atom    7 type  2   force =     0.00000000   -0.00000000    0.02446532
     atom    8 type  2   force =     0.00000000    0.00000000   -0.02446532
     atom    9 type  1   force =     0.00000000   -0.00089473   -0.00857873
     atom   10 type  1   force =     0.00000000    0.00089473    0.00857873
     atom   11 type  1   force =     0.00000000    0.00091829   -0.00862062
     atom   12 type  1   force =     0.00000000   -0.00091829    0.00862062
     atom   13 type  1   force =     0.00086601    0.00000000   -0.00855006
     atom   14 type  1   force =    -0.00086601   -0.00000000    0.00855006
     atom   15 type  1   force =    -0.00089367    0.00000000   -0.00859027
     atom   16 type  1   force =     0.00089367   -0.00000000    0.00859027
     atom   17 type  1   force =    -0.00089367   -0.00000000    0.00859027
     atom   18 type  1   force =     0.00089367    0.00000000   -0.00859027
     atom   19 type  1   force =     0.00086601   -0.00000000    0.00855006
     atom   20 type  1   force =    -0.00086601    0.00000000   -0.00855006
     atom   21 type  1   force =     0.00000000   -0.00091829   -0.00862062
     atom   22 type  1   force =     0.00000000    0.00091829    0.00862062
     atom   23 type  1   force =     0.00000000    0.00089473   -0.00857873
     atom   24 type  1   force =     0.00000000   -0.00089473    0.00857873

     Total force =     0.077414     Total SCF correction =     0.000280


     Computing stress (Cartesian axis) and pressure

          total   stress  (Ry/bohr**3)                   (kbar)     P=       70.63
   0.00052475   0.00000000   0.00000000           77.19        0.00        0.00
   0.00000000   0.00052458   0.00000000            0.00       77.17        0.00
   0.00000000   0.00000000   0.00039105            0.00        0.00       57.53

     Energy error            =      3.4E-02 Ry
     Gradient error          =      2.5E-02 Ry/Bohr

     number of scf cycles    =   3
     number of bfgs steps    =   2

     energy             old  =    -278.6000343885 Ry
     energy             new  =    -278.6339844581 Ry

     CASE: energy            _new < energy            _old

     new trust radius        =       0.0237445520 bohr
     new conv_thr            =       0.0000000245 Ry


ATOMIC_POSITIONS (crystal)
O                0.0000000000        0.2499999995        0.6059405147
O                0.0000000000        0.7500000005        0.3940595143
O                0.5000000000        0.7499999993        0.1059367711
O                0.5000000000        0.2500000007        0.8940631999
O               -0.0000000000        0.7500000018        0.8559563816
O               -0.0000000000        0.2499999982        0.1440436474
O                0.5000000000        0.2500000018        0.3559349644
O                0.5000000000        0.7499999982        0.6440650066
H                0.0000000000        0.4230566726        0.6975238364
H                0.0000000000        0.5769432974        0.3024761636
H                0.5000000000        0.5769454491        0.1975192291
H                0.5000000000        0.4230545209        0.8024807709
H                0.8269357119        0.7500000000        0.9475295179
H                0.1730642581        0.2500000000        0.0524704821
H                0.6730572476        0.2500000001        0.4475226189
H                0.3269427824        0.7499999999        0.5524773811
H                0.6730572476        0.7499999999        0.5524773811
H                0.3269427824        0.2500000001        0.4475226189
H                0.8269357119        0.2500000000        0.0524704821
H                0.1730642581        0.7500000000        0.9475295179
H                0.5000000000        0.9230545497        0.1975192287
H                0.5000000000        0.0769454803        0.8024807713
H                0.0000000000        0.0769433265        0.6975238365
H                0.0000000000        0.9230567035        0.3024761635



     Writing config-only to output data dir ./iceVIII/iceVIII.save/ :
     XML data file
     NEW-OLD atomic charge density approx. for the potential

     total cpu time spent up to now is       74.0 secs

     per-process dynamical memory:    20.6 Mb

     Self-consistent Calculation

     iteration #  1     ecut=    90.00 Ry     beta= 0.70
     Davidson diagonalization with overlap
     ethr =  1.00E-06,  avg # of iterations =  5.0

     total cpu time spent up to now is       77.6 secs

     total energy              =    -278.63641855 Ry
     estimated scf accuracy    <       0.00150746 Ry

     iteration #  2     ecut=    90.00 Ry     beta= 0.70
     Davidson diagonalization with overlap
     ethr =  2.36E-06,  avg # of iterations =  3.0

     total cpu time spent up to now is       79.9 secs

     total energy              =    -278.63685828 Ry
     estimated scf accuracy    <       0.00038819 Ry

     iteration #  3     ecut=    90.00 Ry     beta= 0.70
     Davidson diagonalization with overlap
     ethr =  6.07E-07,  avg # of iterations =  2.0

     total cpu time spent up to now is       81.9 secs

     total energy              =    -278.63691432 Ry
     estimated scf accuracy    <       0.00001022 Ry

     iteration #  4     ecut=    90.00 Ry     beta= 0.70
     Davidson diagonalization with overlap
     ethr =  1.60E-08,  avg # of iterations =  4.0

     total cpu time spent up to now is       84.6 secs

     total energy              =    -278.63691866 Ry
     estimated scf accuracy    <       0.00000617 Ry

     iteration #  5     ecut=    90.00 Ry     beta= 0.70
     Davidson diagonalization with overlap
     ethr =  9.63E-09,  avg # of iterations =  3.0

     total cpu time spent up to now is       87.0 secs

     total energy              =    -278.63692065 Ry
     estimated scf accuracy    <       0.00000160 Ry

     iteration #  6     ecut=    90.00 Ry     beta= 0.70
     Davidson diagonalization with overlap
     ethr =  2.50E-09,  avg # of iterations =  2.0

     total cpu time spent up to now is       89.0 secs

     End of self-consistent calculation

     Number of k-points >= 100: set verbosity='high' to print the bands.

     highest occupied level (ev):     0.2793

!    total energy              =    -278.63692090 Ry
     estimated scf accuracy    <       0.00000002 Ry

     The total energy is the sum of the following terms:
     one-electron contribution =    -111.73630576 Ry
     hartree contribution      =      85.44333720 Ry
     xc contribution           =     -71.08768808 Ry
     ewald contribution        =    -181.25626426 Ry

     convergence has been achieved in   6 iterations

     Forces acting on atoms (cartesian axes, Ry/au):

     atom    1 type  2   force =     0.00000000    0.00000000    0.00139092
     atom    2 type  2   force =     0.00000000   -0.00000000   -0.00139092
     atom    3 type  2   force =     0.00000000    0.00000000    0.00135982
     atom    4 type  2   force =     0.00000000   -0.00000000   -0.00135982
     atom    5 type  2   force =     0.00000000   -0.00000000    0.00143295
     atom    6 type  2   force =     0.00000000    0.00000000   -0.00143295
     atom    7 type  2   force =     0.00000000   -0.00000000    0.00138774
     atom    8 type  2   force =     0.00000000    0.00000000   -0.00138774
     atom    9 type  1   force =     0.00000000    0.00586891    0.00215277
     atom   10 type  1   force =     0.00000000   -0.00586891   -0.00215277
     atom   11 type  1   force =     0.00000000   -0.00588613    0.00214178
     atom   12 type  1   force =     0.00000000    0.00588613   -0.00214178
     atom   13 type  1   force =    -0.00587308    0.00000000    0.00216455
     atom   14 type  1   force =     0.00587308   -0.00000000   -0.00216455
     atom   15 type  1   force =     0.00585647    0.00000000    0.00212665
     atom   16 type  1   force =    -0.00585647   -0.00000000   -0.00212665
     atom   17 type  1   force =     0.00585647   -0.00000000   -0.00212665
     atom   18 type  1   force =    -0.00585647    0.00000000    0.00212665
     atom   19 type  1   force =    -0.00587308   -0.00000000   -0.00216455
     atom   20 type  1   force =     0.00587308    0.00000000    0.00216455
     atom   21 type  1   force =     0.00000000    0.00588613    0.00214177
     atom   22 type  1   force =     0.00000000   -0.00588613   -0.00214177
     atom   23 type  1   force =     0.00000000   -0.00586891    0.00215277
     atom   24 type  1   force =     0.00000000    0.00586891   -0.00215277

     Total force =     0.025313     Total SCF correction =     0.000418


     Computing stress (Cartesian axis) and pressure

          total   stress  (Ry/bohr**3)                   (kbar)     P=       89.37
   0.00061769   0.00000000   0.00000000           90.87        0.00        0.00
   0.00000000   0.00061814  -0.00000000            0.00       90.93       -0.00
   0.00000000  -0.00000000   0.00058682            0.00       -0.00       86.32

     Energy error            =      2.9E-03 Ry
     Gradient error          =      5.9E-03 Ry/Bohr

     number of scf cycles    =   4
     number of bfgs steps    =   3

     energy             old  =    -278.6339844581 Ry
     energy             new  =    -278.6369208972 Ry

     CASE: energy            _new < energy            _old

     new trust radius        =       0.0061795726 bohr
     new conv_thr            =       0.0000000059 Ry


ATOMIC_POSITIONS (crystal)
O                0.0000000000        0.2499999997        0.6063836245
O                0.0000000000        0.7500000003        0.3936164045
O                0.5000000000        0.7499999994        0.1063767459
O                0.5000000000        0.2500000006        0.8936232251
O               -0.0000000000        0.7500000015        0.8564032652
O               -0.0000000000        0.2499999985        0.1435967638
O                0.5000000000        0.2500000015        0.3563773588
O                0.5000000000        0.7499999985        0.6436226122
H                0.0000000000        0.4237690400        0.6975881260
H                0.0000000000        0.5762309300        0.3024118740
H                0.5000000000        0.5762312468        0.1975822756
H                0.5000000000        0.4237687232        0.8024177244
H                0.8262223169        0.7500000001        0.9475952053
H                0.1737776531        0.2499999999        0.0524047947
H                0.6737681390        0.2500000002        0.4475846213
H                0.3262318910        0.7499999998        0.5524153787
H                0.6737681390        0.7499999998        0.5524153787
H                0.3262318910        0.2500000002        0.4475846213
H                0.8262223169        0.2499999999        0.0524047947
H                0.1737776531        0.7500000001        0.9475952053
H                0.5000000000        0.9237687520        0.1975822752
H                0.5000000000        0.0762312780        0.8024177248
H                0.0000000000        0.0762309591        0.6975881262
H                0.0000000000        0.9237690709        0.3024118738



     Writing config-only to output data dir ./iceVIII/iceVIII.save/ :
     XML data file
     NEW-OLD atomic charge density approx. for the potential

     total cpu time spent up to now is       90.7 secs

     per-process dynamical memory:    19.0 Mb

     Self-consistent Calculation

     iteration #  1     ecut=    90.00 Ry     beta= 0.70
     Davidson diagonalization with overlap
     ethr =  1.00E-06,  avg # of iterations =  3.0

     Threshold (ethr) on eigenvalues was too large:
     Diagonalizing with lowered threshold

     Davidson diagonalization with overlap
     ethr =  4.71E-08,  avg # of iterations =  3.5

     total cpu time spent up to now is       95.4 secs

     total energy              =    -278.63744617 Ry
     estimated scf accuracy    <       0.00003571 Ry

     iteration #  2     ecut=    90.00 Ry     beta= 0.70
     Davidson diagonalization with overlap
     ethr =  5.58E-08,  avg # of iterations =  2.0

     total cpu time spent up to now is       97.3 secs

     total energy              =    -278.63745213 Ry
     estimated scf accuracy    <       0.00000176 Ry

     iteration #  3     ecut=    90.00 Ry     beta= 0.70
     Davidson diagonalization with overlap
     ethr =  2.75E-09,  avg # of iterations =  2.0

     total cpu time spent up to now is       99.3 secs

     total energy              =    -278.63745246 Ry
     estimated scf accuracy    <       0.00000022 Ry

     iteration #  4     ecut=    90.00 Ry     beta= 0.70
     Davidson diagonalization with overlap
     ethr =  3.43E-10,  avg # of iterations =  2.0

     total cpu time spent up to now is      101.2 secs

     total energy              =    -278.63745250 Ry
     estimated scf accuracy    <       0.00000001 Ry

     iteration #  5     ecut=    90.00 Ry     beta= 0.70
     Davidson diagonalization with overlap
     ethr =  1.73E-11,  avg # of iterations =  2.8

     total cpu time spent up to now is      103.2 secs

     End of self-consistent calculation

     Number of k-points >= 100: set verbosity='high' to print the bands.

     highest occupied level (ev):     0.2858

!    total energy              =    -278.63745250 Ry
     estimated scf accuracy    <          7.3E-10 Ry

     The total energy is the sum of the following terms:
     one-electron contribution =    -111.57737727 Ry
     hartree contribution      =      85.37607390 Ry
     xc contribution           =     -71.07548146 Ry
     ewald contribution        =    -181.36066767 Ry

     convergence has been achieved in   5 iterations

     Forces acting on atoms (cartesian axes, Ry/au):

     atom    1 type  2   force =    -0.00000000   -0.00000000    0.00089376
     atom    2 type  2   force =    -0.00000000    0.00000000   -0.00089376
     atom    3 type  2   force =    -0.00000000   -0.00000000    0.00090807
     atom    4 type  2   force =    -0.00000000    0.00000000   -0.00090807
     atom    5 type  2   force =    -0.00000000   -0.00000000    0.00091527
     atom    6 type  2   force =    -0.00000000    0.00000000   -0.00091527
     atom    7 type  2   force =     0.00000000   -0.00000000    0.00087492
     atom    8 type  2   force =     0.00000000    0.00000000   -0.00087492
     atom    9 type  1   force =     0.00000000    0.00340381    0.00223580
     atom   10 type  1   force =     0.00000000   -0.00340381   -0.00223580
     atom   11 type  1   force =     0.00000000   -0.00340440    0.00221054
     atom   12 type  1   force =     0.00000000    0.00340440   -0.00221054
     atom   13 type  1   force =    -0.00341066    0.00000000    0.00225467
     atom   14 type  1   force =     0.00341066   -0.00000000   -0.00225467
     atom   15 type  1   force =     0.00340546    0.00000000    0.00222092
     atom   16 type  1   force =    -0.00340546   -0.00000000   -0.00222092
     atom   17 type  1   force =     0.00340546   -0.00000000   -0.00222092
     atom   18 type  1   force =    -0.00340546    0.00000000    0.00222092
     atom   19 type  1   force =    -0.00341066   -0.00000000   -0.00225467
     atom   20 type  1   force =     0.00341066    0.00000000    0.00225467
     atom   21 type  1   force =     0.00000000    0.00340440    0.00221055
     atom   22 type  1   force =     0.00000000   -0.00340440   -0.00221055
     atom   23 type  1   force =     0.00000000   -0.00340381    0.00223580
     atom   24 type  1   force =     0.00000000    0.00340381   -0.00223580

     Total force =     0.016483     Total SCF correction =     0.000035


     Computing stress (Cartesian axis) and pressure

          total   stress  (Ry/bohr**3)                   (kbar)     P=       86.26
   0.00058935   0.00000000   0.00000000           86.70        0.00        0.00
   0.00000000   0.00058952   0.00000000            0.00       86.72        0.00
   0.00000000   0.00000000   0.00058026            0.00        0.00       85.36

     Energy error            =      5.3E-04 Ry
     Gradient error          =      3.4E-03 Ry/Bohr

     number of scf cycles    =   5
     number of bfgs steps    =   4

     energy             old  =    -278.6369208972 Ry
     energy             new  =    -278.6374524970 Ry

     CASE: energy            _new < energy            _old

     new trust radius        =       0.0067975299 bohr
     new conv_thr            =       0.0000000034 Ry


ATOMIC_POSITIONS (crystal)
O               -0.0000000000        0.2499999995        0.6068890429
O               -0.0000000000        0.7500000005        0.3931109861
O                0.5000000000        0.7499999992        0.1068832645
O                0.5000000000        0.2500000008        0.8931167065
O               -0.0000000000        0.7500000010        0.8569122521
O               -0.0000000000        0.2499999990        0.1430877769
O                0.5000000000        0.2500000010        0.3568796635
O                0.5000000000        0.7499999990        0.6431203075
H                0.0000000000        0.4245069555        0.6977807841
H                0.0000000000        0.5754930145        0.3022192159
H                0.5000000000        0.5754932611        0.1977710281
H                0.5000000000        0.4245067089        0.8022289719
H                0.8254824167        0.7500000002        0.9477910231
H                0.1745175533        0.2499999998        0.0522089769
H                0.6745062718        0.2500000002        0.4477749102
H                0.3254937582        0.7499999998        0.5522250898
H                0.6745062718        0.7499999998        0.5522250898
H                0.3254937582        0.2500000002        0.4477749102
H                0.8254824167        0.2499999998        0.0522089769
H                0.1745175533        0.7500000002        0.9477910231
H                0.5000000000        0.9245067381        0.1977710279
H                0.5000000000        0.0754932919        0.8022289721
H                0.0000000000        0.0754930439        0.6977807842
H                0.0000000000        0.9245069861        0.3022192158



     Writing config-only to output data dir ./iceVIII/iceVIII.save/ :
     XML data file
     NEW-OLD atomic charge density approx. for the potential

     total cpu time spent up to now is      105.0 secs

     per-process dynamical memory:    19.2 Mb

     Self-consistent Calculation

     iteration #  1     ecut=    90.00 Ry     beta= 0.70
     Davidson diagonalization with overlap
     ethr =  1.00E-06,  avg # of iterations =  3.0

     Threshold (ethr) on eigenvalues was too large:
     Diagonalizing with lowered threshold

     Davidson diagonalization with overlap
     ethr =  6.05E-08,  avg # of iterations =  3.7

     total cpu time spent up to now is      109.6 secs

     total energy              =    -278.63777639 Ry
     estimated scf accuracy    <       0.00004956 Ry

     iteration #  2     ecut=    90.00 Ry     beta= 0.70
     Davidson diagonalization with overlap
     ethr =  7.74E-08,  avg # of iterations =  2.0

     total cpu time spent up to now is      111.6 secs

     total energy              =    -278.63778487 Ry
     estimated scf accuracy    <       0.00000392 Ry

     iteration #  3     ecut=    90.00 Ry     beta= 0.70
     Davidson diagonalization with overlap
     ethr =  6.13E-09,  avg # of iterations =  2.0

     total cpu time spent up to now is      113.7 secs

     total energy              =    -278.63778575 Ry
     estimated scf accuracy    <       0.00000045 Ry

     iteration #  4     ecut=    90.00 Ry     beta= 0.70
     Davidson diagonalization with overlap
     ethr =  7.00E-10,  avg # of iterations =  2.0

     total cpu time spent up to now is      115.3 secs

     total energy              =    -278.63778580 Ry
     estimated scf accuracy    <       0.00000002 Ry

     iteration #  5     ecut=    90.00 Ry     beta= 0.70
     Davidson diagonalization with overlap
     ethr =  2.90E-11,  avg # of iterations =  4.1

     total cpu time spent up to now is      117.8 secs

     End of self-consistent calculation

     Number of k-points >= 100: set verbosity='high' to print the bands.

     highest occupied level (ev):     0.2935

!    total energy              =    -278.63778581 Ry
     estimated scf accuracy    <          3.2E-09 Ry

     The total energy is the sum of the following terms:
     one-electron contribution =    -111.36653446 Ry
     hartree contribution      =      85.28435115 Ry
     xc contribution           =     -71.05846971 Ry
     ewald contribution        =    -181.49713278 Ry

     convergence has been achieved in   5 iterations

     Forces acting on atoms (cartesian axes, Ry/au):

     atom    1 type  2   force =     0.00000000    0.00000000    0.00101585
     atom    2 type  2   force =     0.00000000   -0.00000000   -0.00101585
     atom    3 type  2   force =     0.00000000    0.00000000    0.00100186
     atom    4 type  2   force =     0.00000000   -0.00000000   -0.00100186
     atom    5 type  2   force =    -0.00000000    0.00000000    0.00104428
     atom    6 type  2   force =    -0.00000000   -0.00000000   -0.00104428
     atom    7 type  2   force =    -0.00000000    0.00000000    0.00101524
     atom    8 type  2   force =    -0.00000000   -0.00000000   -0.00101524
     atom    9 type  1   force =     0.00000000    0.00063211    0.00197541
     atom   10 type  1   force =     0.00000000   -0.00063211   -0.00197541
     atom   11 type  1   force =     0.00000000   -0.00065246    0.00197321
     atom   12 type  1   force =     0.00000000    0.00065246   -0.00197321
     atom   13 type  1   force =    -0.00062791    0.00000000    0.00198990
     atom   14 type  1   force =     0.00062791   -0.00000000   -0.00198990
     atom   15 type  1   force =     0.00062817    0.00000000    0.00195695
     atom   16 type  1   force =    -0.00062817   -0.00000000   -0.00195695
     atom   17 type  1   force =     0.00062817   -0.00000000   -0.00195695
     atom   18 type  1   force =    -0.00062817    0.00000000    0.00195695
     atom   19 type  1   force =    -0.00062791   -0.00000000   -0.00198990
     atom   20 type  1   force =     0.00062791    0.00000000    0.00198990
     atom   21 type  1   force =     0.00000000    0.00065246    0.00197321
     atom   22 type  1   force =     0.00000000   -0.00065246   -0.00197321
     atom   23 type  1   force =     0.00000000   -0.00063211    0.00197541
     atom   24 type  1   force =     0.00000000    0.00063211   -0.00197541

     Total force =     0.008781     Total SCF correction =     0.000024


     Computing stress (Cartesian axis) and pressure

          total   stress  (Ry/bohr**3)                   (kbar)     P=       81.99
   0.00055352   0.00000000   0.00000000           81.43        0.00        0.00
   0.00000000   0.00055391  -0.00000000            0.00       81.48       -0.00
   0.00000000  -0.00000000   0.00056459            0.00       -0.00       83.05

     Energy error            =      3.3E-04 Ry
     Gradient error          =      2.0E-03 Ry/Bohr

     number of scf cycles    =   6
     number of bfgs steps    =   5

     energy             old  =    -278.6374524970 Ry
     energy             new  =    -278.6377858074 Ry

     CASE: energy            _new < energy            _old

     new trust radius        =       0.0060588297 bohr
     new conv_thr            =       0.0000000020 Ry


ATOMIC_POSITIONS (crystal)
O               -0.0000000000        0.2500000001        0.6073728199
O               -0.0000000000        0.7499999999        0.3926272091
O                0.5000000000        0.7500000000        0.1073648874
O                0.5000000000        0.2500000000        0.8926350836
O               -0.0000000000        0.7500000012        0.8574017132
O               -0.0000000000        0.2499999988        0.1425983158
O                0.5000000000        0.2500000012        0.3573620500
O                0.5000000000        0.7499999988        0.6426379210
H                0.0000000000        0.4249816739        0.6980831262
H                0.0000000000        0.5750182961        0.3019168738
H                0.5000000000        0.5750143602        0.1980714588
H                0.5000000000        0.4249856098        0.8019285412
H                0.8250075237        0.7500000003        0.9480967344
H                0.1749924463        0.2499999997        0.0519032656
H                0.6749800859        0.2500000003        0.4480735818
H                0.3250199441        0.7499999997        0.5519264182
H                0.6749800859        0.7499999997        0.5519264182
H                0.3250199441        0.2500000003        0.4480735818
H                0.8250075237        0.2499999997        0.0519032656
H                0.1749924463        0.7500000003        0.9480967344
H                0.5000000000        0.9249856389        0.1980714583
H                0.5000000000        0.0750143911        0.8019285417
H                0.0000000000        0.0750183254        0.6980831264
H                0.0000000000        0.9249817046        0.3019168736



     Writing config-only to output data dir ./iceVIII/iceVIII.save/ :
     XML data file
     NEW-OLD atomic charge density approx. for the potential

     total cpu time spent up to now is      119.6 secs

     per-process dynamical memory:    19.3 Mb

     Self-consistent Calculation

     iteration #  1     ecut=    90.00 Ry     beta= 0.70
     Davidson diagonalization with overlap
     ethr =  1.00E-06,  avg # of iterations =  3.0

     Threshold (ethr) on eigenvalues was too large:
     Diagonalizing with lowered threshold

     Davidson diagonalization with overlap
     ethr =  4.76E-08,  avg # of iterations =  3.7

     total cpu time spent up to now is      124.3 secs

     total energy              =    -278.63792252 Ry
     estimated scf accuracy    <       0.00003999 Ry

     iteration #  2     ecut=    90.00 Ry     beta= 0.70
     Davidson diagonalization with overlap
     ethr =  6.25E-08,  avg # of iterations =  2.0

     total cpu time spent up to now is      126.1 secs

     total energy              =    -278.63792899 Ry
     estimated scf accuracy    <       0.00000265 Ry

     iteration #  3     ecut=    90.00 Ry     beta= 0.70
     Davidson diagonalization with overlap
     ethr =  4.14E-09,  avg # of iterations =  2.0

     total cpu time spent up to now is      128.2 secs

     total energy              =    -278.63792955 Ry
     estimated scf accuracy    <       0.00000034 Ry

     iteration #  4     ecut=    90.00 Ry     beta= 0.70
     Davidson diagonalization with overlap
     ethr =  5.38E-10,  avg # of iterations =  2.0

     total cpu time spent up to now is      130.0 secs

     total energy              =    -278.63792960 Ry
     estimated scf accuracy    <       0.00000001 Ry

     iteration #  5     ecut=    90.00 Ry     beta= 0.70
     Davidson diagonalization with overlap
     ethr =  2.16E-11,  avg # of iterations =  4.3

     total cpu time spent up to now is      132.4 secs

     total energy              =    -278.63792960 Ry
     estimated scf accuracy    <          2.2E-09 Ry

     iteration #  6     ecut=    90.00 Ry     beta= 0.70
     Davidson diagonalization with overlap
     ethr =  3.43E-12,  avg # of iterations =  2.9

     total cpu time spent up to now is      134.7 secs

     End of self-consistent calculation

     Number of k-points >= 100: set verbosity='high' to print the bands.

     highest occupied level (ev):     0.2997

!    total energy              =    -278.63792961 Ry
     estimated scf accuracy    <          2.1E-10 Ry

     The total energy is the sum of the following terms:
     one-electron contribution =    -111.20053357 Ry
     hartree contribution      =      85.21018548 Ry
     xc contribution           =     -71.04623299 Ry
     ewald contribution        =    -181.60134853 Ry

     convergence has been achieved in   6 iterations

     Forces acting on atoms (cartesian axes, Ry/au):

     atom    1 type  2   force =     0.00000000   -0.00000000    0.00110390
     atom    2 type  2   force =     0.00000000    0.00000000   -0.00110390
     atom    3 type  2   force =     0.00000000   -0.00000001    0.00113490
     atom    4 type  2   force =     0.00000000    0.00000001   -0.00113490
     atom    5 type  2   force =     0.00000000   -0.00000000    0.00110978
     atom    6 type  2   force =     0.00000000    0.00000000   -0.00110978
     atom    7 type  2   force =     0.00000000   -0.00000000    0.00108849
     atom    8 type  2   force =     0.00000000    0.00000000   -0.00108849
     atom    9 type  1   force =     0.00000000   -0.00117956    0.00171261
     atom   10 type  1   force =     0.00000000    0.00117956   -0.00171261
     atom   11 type  1   force =     0.00000000    0.00118131    0.00169752
     atom   12 type  1   force =     0.00000000   -0.00118131   -0.00169752
     atom   13 type  1   force =     0.00117568    0.00000000    0.00173607
     atom   14 type  1   force =    -0.00117568   -0.00000000   -0.00173607
     atom   15 type  1   force =    -0.00116990    0.00000000    0.00170630
     atom   16 type  1   force =     0.00116990   -0.00000000   -0.00170630
     atom   17 type  1   force =    -0.00116990   -0.00000000   -0.00170630
     atom   18 type  1   force =     0.00116990    0.00000000    0.00170630
     atom   19 type  1   force =     0.00117568   -0.00000000   -0.00173607
     atom   20 type  1   force =    -0.00117568    0.00000000    0.00173607
     atom   21 type  1   force =     0.00000000   -0.00118131    0.00169753
     atom   22 type  1   force =     0.00000000    0.00118131   -0.00169753
     atom   23 type  1   force =     0.00000000    0.00117957    0.00171261
     atom   24 type  1   force =     0.00000000   -0.00117957   -0.00171261

     Total force =     0.008886     Total SCF correction =     0.000009


     Computing stress (Cartesian axis) and pressure

          total   stress  (Ry/bohr**3)                   (kbar)     P=       78.84
   0.00052824   0.00000000   0.00000000           77.71        0.00        0.00
   0.00000000   0.00052830   0.00000000            0.00       77.71        0.00
   0.00000000   0.00000000   0.00055134            0.00        0.00       81.11

     Energy error            =      1.4E-04 Ry
     Gradient error          =      1.7E-03 Ry/Bohr

     number of scf cycles    =   7
     number of bfgs steps    =   6

     energy             old  =    -278.6377858074 Ry
     energy             new  =    -278.6379296055 Ry

     CASE: energy            _new < energy            _old

     new trust radius        =       0.0063329433 bohr
     new conv_thr            =       0.0000000014 Ry


ATOMIC_POSITIONS (crystal)
O               -0.0000000000        0.2499999995        0.6078794621
O               -0.0000000000        0.7500000005        0.3921205669
O                0.5000000000        0.7499999993        0.1078739841
O                0.5000000000        0.2500000007        0.8921259869
O               -0.0000000000        0.7500000010        0.8579133186
O               -0.0000000000        0.2499999990        0.1420867104
O                0.5000000000        0.2500000010        0.3578655154
O                0.5000000000        0.7499999990        0.6421344556
H                0.0000000000        0.4252245177        0.6985206837
H                0.0000000000        0.5747754523        0.3014793163
H                0.5000000000        0.5747691335        0.1985053898
H                0.5000000000        0.4252308365        0.8014946102
H                0.8247635372        0.7500000004        0.9485397513
H                0.1752364328        0.2499999996        0.0514602487
H                0.6752239868        0.2500000004        0.4485076126
H                0.3247760432        0.7499999996        0.5514923874
H                0.6752239868        0.7499999996        0.5514923874
H                0.3247760432        0.2500000004        0.4485076126
H                0.8247635372        0.2499999996        0.0514602487
H                0.1752364328        0.7500000004        0.9485397513
H                0.5000000000        0.9252308667        0.1985053898
H                0.5000000000        0.0747691633        0.8014946102
H                0.0000000000        0.0747754825        0.6985206836
H                0.0000000000        0.9252245475        0.3014793164



     Writing config-only to output data dir ./iceVIII/iceVIII.save/ :
     XML data file
     NEW-OLD atomic charge density approx. for the potential

     total cpu time spent up to now is      136.6 secs

     per-process dynamical memory:    20.3 Mb

     Self-consistent Calculation

     iteration #  1     ecut=    90.00 Ry     beta= 0.70
     Davidson diagonalization with overlap
     ethr =  1.00E-06,  avg # of iterations =  3.0

     Threshold (ethr) on eigenvalues was too large:
     Diagonalizing with lowered threshold

     Davidson diagonalization with overlap
     ethr =  5.20E-08,  avg # of iterations =  3.1

     total cpu time spent up to now is      141.2 secs

     total energy              =    -278.63805981 Ry
     estimated scf accuracy    <       0.00004158 Ry

     iteration #  2     ecut=    90.00 Ry     beta= 0.70
     Davidson diagonalization with overlap
     ethr =  6.50E-08,  avg # of iterations =  2.0

     total cpu time spent up to now is      143.0 secs

     total energy              =    -278.63806605 Ry
     estimated scf accuracy    <       0.00000210 Ry

     iteration #  3     ecut=    90.00 Ry     beta= 0.70
     Davidson diagonalization with overlap
     ethr =  3.28E-09,  avg # of iterations =  2.1

     total cpu time spent up to now is      144.9 secs

     total energy              =    -278.63806637 Ry
     estimated scf accuracy    <       0.00000019 Ry

     iteration #  4     ecut=    90.00 Ry     beta= 0.70
     Davidson diagonalization with overlap
     ethr =  2.97E-10,  avg # of iterations =  2.6

     total cpu time spent up to now is      147.0 secs

     total energy              =    -278.63806641 Ry
     estimated scf accuracy    <       0.00000002 Ry

     iteration #  5     ecut=    90.00 Ry     beta= 0.70
     Davidson diagonalization with overlap
     ethr =  2.72E-11,  avg # of iterations =  2.6

     total cpu time spent up to now is      149.1 secs

     End of self-consistent calculation

     Number of k-points >= 100: set verbosity='high' to print the bands.

     highest occupied level (ev):     0.3044

!    total energy              =    -278.63806641 Ry
     estimated scf accuracy    <          2.9E-10 Ry

     The total energy is the sum of the following terms:
     one-electron contribution =    -111.07312653 Ry
     hartree contribution      =      85.15181248 Ry
     xc contribution           =     -71.03881281 Ry
     ewald contribution        =    -181.67793955 Ry

     convergence has been achieved in   5 iterations

     Forces acting on atoms (cartesian axes, Ry/au):

     atom    1 type  2   force =    -0.00000000    0.00000001    0.00108438
     atom    2 type  2   force =    -0.00000000   -0.00000001   -0.00108438
     atom    3 type  2   force =     0.00000000    0.00000001    0.00109038
     atom    4 type  2   force =     0.00000000   -0.00000001   -0.00109038
     atom    5 type  2   force =     0.00000000   -0.00000000    0.00110012
     atom    6 type  2   force =     0.00000000    0.00000000   -0.00110012
     atom    7 type  2   force =     0.00000000   -0.00000000    0.00108232
     atom    8 type  2   force =     0.00000000    0.00000000   -0.00108232
     atom    9 type  1   force =     0.00000000   -0.00214134    0.00144529
     atom   10 type  1   force =     0.00000000    0.00214134   -0.00144529
     atom   11 type  1   force =     0.00000000    0.00213154    0.00145170
     atom   12 type  1   force =     0.00000000   -0.00213154   -0.00145170
     atom   13 type  1   force =     0.00214544   -0.00000000    0.00146249
     atom   14 type  1   force =    -0.00214544    0.00000000   -0.00146249
     atom   15 type  1   force =    -0.00213679   -0.00000000    0.00143742
     atom   16 type  1   force =     0.00213679    0.00000000   -0.00143742
     atom   17 type  1   force =    -0.00213679    0.00000000   -0.00143742
     atom   18 type  1   force =     0.00213679   -0.00000000    0.00143742
     atom   19 type  1   force =     0.00214544    0.00000000   -0.00146249
     atom   20 type  1   force =    -0.00214544   -0.00000000    0.00146249
     atom   21 type  1   force =     0.00000000   -0.00213155    0.00145170
     atom   22 type  1   force =     0.00000000    0.00213155   -0.00145170
     atom   23 type  1   force =     0.00000000    0.00214133    0.00144530
     atom   24 type  1   force =     0.00000000   -0.00214133   -0.00144530

     Total force =     0.010784     Total SCF correction =     0.000019


     Computing stress (Cartesian axis) and pressure

          total   stress  (Ry/bohr**3)                   (kbar)     P=       77.04
   0.00051413   0.00000000   0.00000000           75.63        0.00        0.00
   0.00000000   0.00051434  -0.00000000            0.00       75.66       -0.00
   0.00000000  -0.00000000   0.00054258            0.00       -0.00       79.82

     Energy error            =      1.4E-04 Ry
     Gradient error          =      2.1E-03 Ry/Bohr

     number of scf cycles    =   8
     number of bfgs steps    =   7

     energy             old  =    -278.6379296055 Ry
     energy             new  =    -278.6380664098 Ry

     CASE: energy            _new < energy            _old

     new trust radius        =       0.0069662376 bohr
     new conv_thr            =       0.0000000014 Ry


ATOMIC_POSITIONS (crystal)
O               -0.0000000000        0.2500000003        0.6084295185
O               -0.0000000000        0.7499999997        0.3915705105
O                0.5000000000        0.7500000003        0.1084251119
O                0.5000000000        0.2499999997        0.8915748591
O               -0.0000000000        0.7500000008        0.8584703214
O               -0.0000000000        0.2499999992        0.1415297076
O                0.5000000000        0.2500000007        0.3584129917
O                0.5000000000        0.7499999993        0.6415869793
H                0.0000000000        0.4253246970        0.6990728997
H                0.0000000000        0.5746752730        0.3009271003
H                0.5000000000        0.5746643587        0.1990552689
H                0.5000000000        0.4253356113        0.8009447311
H                0.8246631913        0.7500000005        0.9490981994
H                0.1753367787        0.2499999995        0.0509018006
H                0.6753249229        0.2500000005        0.4490553584
H                0.3246751071        0.7499999995        0.5509446416
H                0.6753249229        0.7499999995        0.5509446416
H                0.3246751071        0.2500000005        0.4490553584
H                0.8246631913        0.2499999995        0.0509018006
H                0.1753367787        0.7500000005        0.9490981994
H                0.5000000000        0.9253356412        0.1990552686
H                0.5000000000        0.0746643888        0.8009447314
H                0.0000000000        0.0746753031        0.6990728999
H                0.0000000000        0.9253247269        0.3009271001



     Writing config-only to output data dir ./iceVIII/iceVIII.save/ :
     XML data file
     NEW-OLD atomic charge density approx. for the potential

     total cpu time spent up to now is      150.8 secs

     per-process dynamical memory:    20.1 Mb

     Self-consistent Calculation

     iteration #  1     ecut=    90.00 Ry     beta= 0.70
     Davidson diagonalization with overlap
     ethr =  1.00E-06,  avg # of iterations =  3.0

     Threshold (ethr) on eigenvalues was too large:
     Diagonalizing with lowered threshold

     Davidson diagonalization with overlap
     ethr =  6.58E-08,  avg # of iterations =  2.7

     total cpu time spent up to now is      155.5 secs

     total energy              =    -278.63822696 Ry
     estimated scf accuracy    <       0.00005041 Ry

     iteration #  2     ecut=    90.00 Ry     beta= 0.70
     Davidson diagonalization with overlap
     ethr =  7.88E-08,  avg # of iterations =  2.0

     total cpu time spent up to now is      157.3 secs

     total energy              =    -278.63823415 Ry
     estimated scf accuracy    <       0.00000255 Ry

     iteration #  3     ecut=    90.00 Ry     beta= 0.70
     Davidson diagonalization with overlap
     ethr =  3.99E-09,  avg # of iterations =  2.5

     total cpu time spent up to now is      159.2 secs

     total energy              =    -278.63823455 Ry
     estimated scf accuracy    <       0.00000015 Ry

     iteration #  4     ecut=    90.00 Ry     beta= 0.70
     Davidson diagonalization with overlap
     ethr =  2.36E-10,  avg # of iterations =  3.6

     total cpu time spent up to now is      161.6 secs

     total energy              =    -278.63823460 Ry
     estimated scf accuracy    <          5.9E-09 Ry

     iteration #  5     ecut=    90.00 Ry     beta= 0.70
     Davidson diagonalization with overlap
     ethr =  9.19E-12,  avg # of iterations =  4.4

     total cpu time spent up to now is      164.3 secs

     total energy              =    -278.63823460 Ry
     estimated scf accuracy    <          1.9E-09 Ry

     iteration #  6     ecut=    90.00 Ry     beta= 0.70
     Davidson diagonalization with overlap
     ethr =  2.92E-12,  avg # of iterations =  2.3

     total cpu time spent up to now is      166.3 secs

     End of self-consistent calculation

     Number of k-points >= 100: set verbosity='high' to print the bands.

     highest occupied level (ev):     0.3086

!    total energy              =    -278.63823460 Ry
     estimated scf accuracy    <          4.8E-11 Ry

     The total energy is the sum of the following terms:
     one-electron contribution =    -110.96611462 Ry
     hartree contribution      =      85.10105748 Ry
     xc contribution           =     -71.03409215 Ry
     ewald contribution        =    -181.73908531 Ry

     convergence has been achieved in   6 iterations

     Forces acting on atoms (cartesian axes, Ry/au):

     atom    1 type  2   force =     0.00000000   -0.00000000    0.00101394
     atom    2 type  2   force =     0.00000000    0.00000000   -0.00101394
     atom    3 type  2   force =    -0.00000000   -0.00000000    0.00103286
     atom    4 type  2   force =    -0.00000000    0.00000000   -0.00103286
     atom    5 type  2   force =     0.00000000   -0.00000000    0.00102212
     atom    6 type  2   force =     0.00000000    0.00000000   -0.00102212
     atom    7 type  2   force =    -0.00000000   -0.00000000    0.00101030
     atom    8 type  2   force =    -0.00000000    0.00000000   -0.00101030
     atom    9 type  1   force =     0.00000000   -0.00258589    0.00116460
     atom   10 type  1   force =     0.00000000    0.00258589   -0.00116460
     atom   11 type  1   force =     0.00000000    0.00258680    0.00117342
     atom   12 type  1   force =     0.00000000   -0.00258680   -0.00117342
     atom   13 type  1   force =     0.00258760    0.00000000    0.00118280
     atom   14 type  1   force =    -0.00258760   -0.00000000   -0.00118280
     atom   15 type  1   force =    -0.00257866    0.00000000    0.00116178
     atom   16 type  1   force =     0.00257866   -0.00000000   -0.00116178
     atom   17 type  1   force =    -0.00257866   -0.00000000   -0.00116178
     atom   18 type  1   force =     0.00257866    0.00000000    0.00116178
     atom   19 type  1   force =     0.00258760   -0.00000000   -0.00118280
     atom   20 type  1   force =    -0.00258760    0.00000000    0.00118280
     atom   21 type  1   force =     0.00000000   -0.00258679    0.00117342
     atom   22 type  1   force =     0.00000000    0.00258679   -0.00117342
     atom   23 type  1   force =     0.00000000    0.00258589    0.00116460
     atom   24 type  1   force =     0.00000000   -0.00258589   -0.00116460

     Total force =     0.011711     Total SCF correction =     0.000004


     Computing stress (Cartesian axis) and pressure

          total   stress  (Ry/bohr**3)                   (kbar)     P=       75.88
   0.00050608   0.00000000   0.00000000           74.45        0.00        0.00
   0.00000000   0.00050615   0.00000000            0.00       74.46        0.00
   0.00000000   0.00000000   0.00053528            0.00        0.00       78.74

     Energy error            =      1.7E-04 Ry
     Gradient error          =      2.6E-03 Ry/Bohr

     number of scf cycles    =   9
     number of bfgs steps    =   8

     energy             old  =    -278.6380664098 Ry
     energy             new  =    -278.6382346015 Ry

     CASE: energy            _new < energy            _old

     new trust radius        =       0.0104493564 bohr
     new conv_thr            =       0.0000000017 Ry


ATOMIC_POSITIONS (crystal)
O               -0.0000000000        0.2499999995        0.6091942053
O               -0.0000000000        0.7500000005        0.3908058237
O                0.5000000000        0.7499999993        0.1091935561
O                0.5000000000        0.2500000007        0.8908064149
O               -0.0000000000        0.7500000001        0.8592444388
O               -0.0000000000        0.2499999999        0.1407555902
O                0.5000000000        0.2500000005        0.3591736022
O                0.5000000000        0.7499999995        0.6408263688
H                0.0000000000        0.4253150046        0.6999073203
H                0.0000000000        0.5746849654        0.3000926797
H                0.5000000000        0.5746690479        0.1998865591
H                0.5000000000        0.4253309221        0.8001134409
H                0.8246723179        0.7500000007        0.9499423245
H                0.1753276521        0.2499999993        0.0500576755
H                0.6753170725        0.2500000007        0.4498837008
H                0.3246829575        0.7499999993        0.5501162992
H                0.6753170725        0.7499999993        0.5501162992
H                0.3246829575        0.2500000007        0.4498837008
H                0.8246723179        0.2499999993        0.0500576755
H                0.1753276521        0.7500000007        0.9499423245
H                0.5000000000        0.9253309537        0.1998865594
H                0.5000000000        0.0746690763        0.8001134406
H                0.0000000000        0.0746849969        0.6999073200
H                0.0000000000        0.9253150331        0.3000926800



     Writing config-only to output data dir ./iceVIII/iceVIII.save/ :
     XML data file
     NEW-OLD atomic charge density approx. for the potential

     total cpu time spent up to now is      168.1 secs

     per-process dynamical memory:    20.0 Mb

     Self-consistent Calculation

     iteration #  1     ecut=    90.00 Ry     beta= 0.70
     Davidson diagonalization with overlap
     ethr =  1.00E-06,  avg # of iterations =  4.0

     total cpu time spent up to now is      171.1 secs

     total energy              =    -278.63845202 Ry
     estimated scf accuracy    <       0.00009003 Ry

     iteration #  2     ecut=    90.00 Ry     beta= 0.70
     Davidson diagonalization with overlap
     ethr =  1.41E-07,  avg # of iterations =  2.3

     total cpu time spent up to now is      173.0 secs

     total energy              =    -278.63846948 Ry
     estimated scf accuracy    <       0.00000657 Ry

     iteration #  3     ecut=    90.00 Ry     beta= 0.70
     Davidson diagonalization with overlap
     ethr =  1.03E-08,  avg # of iterations =  3.5

     total cpu time spent up to now is      175.3 secs

     total energy              =    -278.63847113 Ry
     estimated scf accuracy    <       0.00000041 Ry

     iteration #  4     ecut=    90.00 Ry     beta= 0.70
     Davidson diagonalization with overlap
     ethr =  6.46E-10,  avg # of iterations =  3.2

     total cpu time spent up to now is      177.6 secs

     total energy              =    -278.63847127 Ry
     estimated scf accuracy    <       0.00000009 Ry

     iteration #  5     ecut=    90.00 Ry     beta= 0.70
     Davidson diagonalization with overlap
     ethr =  1.43E-10,  avg # of iterations =  2.5

     total cpu time spent up to now is      179.7 secs

     total energy              =    -278.63847129 Ry
     estimated scf accuracy    <          4.8E-09 Ry

     iteration #  6     ecut=    90.00 Ry     beta= 0.70
     Davidson diagonalization with overlap
     ethr =  7.43E-12,  avg # of iterations =  3.1

     total cpu time spent up to now is      182.1 secs

     End of self-consistent calculation

     Number of k-points >= 100: set verbosity='high' to print the bands.

     highest occupied level (ev):     0.3135

!    total energy              =    -278.63847129 Ry
     estimated scf accuracy    <          1.6E-09 Ry

     The total energy is the sum of the following terms:
     one-electron contribution =    -110.85124872 Ry
     hartree contribution      =      85.04485834 Ry
     xc contribution           =     -71.03089491 Ry
     ewald contribution        =    -181.80118601 Ry

     convergence has been achieved in   6 iterations

     Forces acting on atoms (cartesian axes, Ry/au):

     atom    1 type  2   force =     0.00000000    0.00000001    0.00085356
     atom    2 type  2   force =     0.00000000   -0.00000001   -0.00085356
     atom    3 type  2   force =     0.00000000    0.00000002    0.00086136
     atom    4 type  2   force =     0.00000000   -0.00000002   -0.00086136
     atom    5 type  2   force =     0.00000000   -0.00000000    0.00086752
     atom    6 type  2   force =     0.00000000    0.00000000   -0.00086752
     atom    7 type  2   force =     0.00000000   -0.00000000    0.00085812
     atom    8 type  2   force =     0.00000000    0.00000000   -0.00085812
     atom    9 type  1   force =     0.00000000   -0.00265044    0.00079002
     atom   10 type  1   force =     0.00000000    0.00265044   -0.00079002
     atom   11 type  1   force =     0.00000000    0.00265076    0.00081686
     atom   12 type  1   force =     0.00000000   -0.00265076   -0.00081686
     atom   13 type  1   force =     0.00265432   -0.00000000    0.00080450
     atom   14 type  1   force =    -0.00265432    0.00000000   -0.00080450
     atom   15 type  1   force =    -0.00264604   -0.00000000    0.00079002
     atom   16 type  1   force =     0.00264604    0.00000000   -0.00079002
[...]
     atom   15 type  1   force =    -0.00208149   -0.00000000    0.00030637
     atom   16 type  1   force =     0.00208149    0.00000000   -0.00030637
     atom   17 type  1   force =    -0.00208149    0.00000000   -0.00030637
     atom   18 type  1   force =     0.00208149   -0.00000000    0.00030637
     atom   19 type  1   force =     0.00208708    0.00000000   -0.00031226
     atom   20 type  1   force =    -0.00208708   -0.00000000    0.00031226
     atom   21 type  1   force =     0.00000000   -0.00210197    0.00033329
     atom   22 type  1   force =     0.00000000    0.00210197   -0.00033329
     atom   23 type  1   force =     0.00000000    0.00208581    0.00029786
     atom   24 type  1   force =     0.00000000   -0.00208581   -0.00029786

     Total force =     0.008567     Total SCF correction =     0.000021


     Computing stress (Cartesian axis) and pressure

          total   stress  (Ry/bohr**3)                   (kbar)     P=       75.00
   0.00050417   0.00000000   0.00000000           74.17        0.00        0.00
   0.00000000   0.00050410   0.00000000            0.00       74.16        0.00
   0.00000000   0.00000000   0.00052119            0.00        0.00       76.67

     Energy error            =      2.7E-04 Ry
     Gradient error          =      2.1E-03 Ry/Bohr

     number of scf cycles    =  11
     number of bfgs steps    =  10

     energy             old  =    -278.6384712936 Ry
     energy             new  =    -278.6387402972 Ry

     CASE: energy            _new < energy            _old

     new trust radius        =       0.0157265370 bohr
     new conv_thr            =       0.0000000021 Ry


ATOMIC_POSITIONS (crystal)
O                0.0000000000        0.2499999971        0.6112411802
O                0.0000000000        0.7500000029        0.3887588488
O                0.5000000000        0.7499999964        0.1112519508
O                0.5000000000        0.2500000036        0.8887480202
O               -0.0000000000        0.7499999988        0.8613201420
O               -0.0000000000        0.2500000012        0.1386798870
O                0.5000000000        0.2499999994        0.3612111528
O                0.5000000000        0.7500000006        0.6387888182
H                0.0000000000        0.4247419839        0.7023792519
H                0.0000000000        0.5752579861        0.2976207481
H                0.5000000000        0.5752310158        0.2023591389
H                0.5000000000        0.4247689542        0.7976408611
H                0.8252449088        0.7500000010        0.9524438622
H                0.1747550612        0.2499999990        0.0475561378
H                0.6747496199        0.2500000010        0.4523400859
H                0.3252504101        0.7499999990        0.5476599141
H                0.6747496199        0.7499999990        0.5476599141
H                0.3252504101        0.2500000010        0.4523400859
H                0.8252449088        0.2499999990        0.0475561378
H                0.1747550612        0.7500000010        0.9524438622
H                0.5000000000        0.9247689916        0.2023591416
H                0.5000000000        0.0752310384        0.7976408584
H                0.0000000000        0.0752580218        0.7023792499
H                0.0000000000        0.9247420082        0.2976207501



     Writing config-only to output data dir ./iceVIII/iceVIII.save/ :
     XML data file
     NEW-OLD atomic charge density approx. for the potential

     total cpu time spent up to now is      201.5 secs

     per-process dynamical memory:    19.9 Mb

     Self-consistent Calculation

     iteration #  1     ecut=    90.00 Ry     beta= 0.70
     Davidson diagonalization with overlap
     ethr =  1.00E-06,  avg # of iterations =  4.0

     total cpu time spent up to now is      204.6 secs

     total energy              =    -278.63883947 Ry
     estimated scf accuracy    <       0.00017516 Ry

     iteration #  2     ecut=    90.00 Ry     beta= 0.70
     Davidson diagonalization with overlap
     ethr =  2.74E-07,  avg # of iterations =  2.0

     total cpu time spent up to now is      206.4 secs

     total energy              =    -278.63886632 Ry
     estimated scf accuracy    <       0.00001206 Ry

     iteration #  3     ecut=    90.00 Ry     beta= 0.70
     Davidson diagonalization with overlap
     ethr =  1.89E-08,  avg # of iterations =  3.3

     total cpu time spent up to now is      208.6 secs

     total energy              =    -278.63886946 Ry
     estimated scf accuracy    <       0.00000075 Ry

     iteration #  4     ecut=    90.00 Ry     beta= 0.70
     Davidson diagonalization with overlap
     ethr =  1.17E-09,  avg # of iterations =  3.3

     total cpu time spent up to now is      210.9 secs

     total energy              =    -278.63886970 Ry
     estimated scf accuracy    <       0.00000010 Ry

     iteration #  5     ecut=    90.00 Ry     beta= 0.70
     Davidson diagonalization with overlap
     ethr =  1.54E-10,  avg # of iterations =  3.1

     total cpu time spent up to now is      213.1 secs

     total energy              =    -278.63886972 Ry
     estimated scf accuracy    <          7.3E-09 Ry

     iteration #  6     ecut=    90.00 Ry     beta= 0.70
     Davidson diagonalization with overlap
     ethr =  1.14E-11,  avg # of iterations =  3.0

     total cpu time spent up to now is      215.4 secs

     End of self-consistent calculation

     Number of k-points >= 100: set verbosity='high' to print the bands.

     highest occupied level (ev):     0.3237

!    total energy              =    -278.63886972 Ry
     estimated scf accuracy    <          1.2E-09 Ry

     The total energy is the sum of the following terms:
     one-electron contribution =    -110.68525624 Ry
     hartree contribution      =      84.95434623 Ry
     xc contribution           =     -71.03463821 Ry
     ewald contribution        =    -181.87332151 Ry

     convergence has been achieved in   6 iterations

     Forces acting on atoms (cartesian axes, Ry/au):

     atom    1 type  2   force =     0.00000000    0.00000006    0.00012521
     atom    2 type  2   force =     0.00000000   -0.00000006   -0.00012521
     atom    3 type  2   force =    -0.00000000    0.00000008    0.00013748
     atom    4 type  2   force =    -0.00000000   -0.00000008   -0.00013748
     atom    5 type  2   force =     0.00000000    0.00000000    0.00013625
     atom    6 type  2   force =     0.00000000   -0.00000000   -0.00013625
     atom    7 type  2   force =     0.00000000   -0.00000000    0.00013497
     atom    8 type  2   force =     0.00000000    0.00000000   -0.00013497
     atom    9 type  1   force =     0.00000000   -0.00077589   -0.00013380
     atom   10 type  1   force =     0.00000000    0.00077589    0.00013380
     atom   11 type  1   force =     0.00000000    0.00079325   -0.00008591
     atom   12 type  1   force =     0.00000000   -0.00079325    0.00008591
     atom   13 type  1   force =     0.00078207   -0.00000000   -0.00012788
     atom   14 type  1   force =    -0.00078207    0.00000000    0.00012788
     atom   15 type  1   force =    -0.00078096   -0.00000000   -0.00012339
     atom   16 type  1   force =     0.00078096    0.00000000    0.00012339
     atom   17 type  1   force =    -0.00078096    0.00000000    0.00012339
     atom   18 type  1   force =     0.00078096   -0.00000000   -0.00012339
     atom   19 type  1   force =     0.00078207    0.00000000    0.00012788
     atom   20 type  1   force =    -0.00078207   -0.00000000   -0.00012788
     atom   21 type  1   force =     0.00000000   -0.00079332   -0.00008596
     atom   22 type  1   force =     0.00000000    0.00079332    0.00008596
     atom   23 type  1   force =     0.00000000    0.00077583   -0.00013376
     atom   24 type  1   force =     0.00000000   -0.00077583    0.00013376

     Total force =     0.003191     Total SCF correction =     0.000125


     Computing stress (Cartesian axis) and pressure

          total   stress  (Ry/bohr**3)                   (kbar)     P=       76.13
   0.00051661   0.00000000   0.00000000           76.00        0.00        0.00
   0.00000000   0.00051664  -0.00000000            0.00       76.00       -0.00
   0.00000000  -0.00000000   0.00051932            0.00       -0.00       76.39

     Energy error            =      1.3E-04 Ry
     Gradient error          =      7.9E-04 Ry/Bohr

     number of scf cycles    =  12
     number of bfgs steps    =  11

     energy             old  =    -278.6387402972 Ry
     energy             new  =    -278.6388697241 Ry

     CASE: energy            _new < energy            _old

     new trust radius        =       0.0012129408 bohr
     new conv_thr            =       0.0000000010 Ry


ATOMIC_POSITIONS (crystal)
O                0.0000000000        0.2500000051        0.6112285873
O                0.0000000000        0.7499999949        0.3887714417
O                0.5000000000        0.7500000066        0.1112408652
O                0.5000000000        0.2499999934        0.8887591058
O               -0.0000000000        0.7499999990        0.8613087724
O               -0.0000000000        0.2500000010        0.1386912566
O                0.5000000000        0.2499999993        0.3611993651
O                0.5000000000        0.7500000007        0.6388006059
H                0.0000000000        0.4246154985        0.7024151412
H                0.0000000000        0.5753844715        0.2975848588
H                0.5000000000        0.5753597778        0.2023995054
H                0.5000000000        0.4246401922        0.7976004946
H                0.8253722365        0.7500000008        0.9524806774
H                0.1746277335        0.2499999992        0.0475193226
H                0.6746225983        0.2500000008        0.4523768133
H                0.3253774317        0.7499999992        0.5476231867
H                0.6746225983        0.7499999992        0.5476231867
H                0.3253774317        0.2500000008        0.4523768133
H                0.8253722365        0.2499999992        0.0475193226
H                0.1746277335        0.7500000008        0.9524806774
H                0.5000000000        0.9246402202        0.2023995035
H                0.5000000000        0.0753598098        0.7976004965
H                0.0000000000        0.0753844999        0.7024151428
H                0.0000000000        0.9246155301        0.2975848572



     Writing config-only to output data dir ./iceVIII/iceVIII.save/ :
     XML data file
     NEW-OLD atomic charge density approx. for the potential

     total cpu time spent up to now is      217.2 secs

     per-process dynamical memory:    19.9 Mb

     Self-consistent Calculation

     iteration #  1     ecut=    90.00 Ry     beta= 0.70
     Davidson diagonalization with overlap
     ethr =  1.00E-06,  avg # of iterations =  2.0

     Threshold (ethr) on eigenvalues was too large:
     Diagonalizing with lowered threshold

     Davidson diagonalization with overlap
     ethr =  9.65E-10,  avg # of iterations =  2.5

     total cpu time spent up to now is      220.9 secs

     total energy              =    -278.63887817 Ry
     estimated scf accuracy    <       0.00000068 Ry

     iteration #  2     ecut=    90.00 Ry     beta= 0.70
     Davidson diagonalization with overlap
     ethr =  1.07E-09,  avg # of iterations =  2.0

     total cpu time spent up to now is      223.0 secs

     total energy              =    -278.63887832 Ry
     estimated scf accuracy    <       0.00000011 Ry

     iteration #  3     ecut=    90.00 Ry     beta= 0.70
     Davidson diagonalization with overlap
     ethr =  1.70E-10,  avg # of iterations =  2.0

     total cpu time spent up to now is      224.9 secs

     total energy              =    -278.63887834 Ry
     estimated scf accuracy    <          5.1E-09 Ry

     iteration #  4     ecut=    90.00 Ry     beta= 0.70
     Davidson diagonalization with overlap
     ethr =  7.97E-12,  avg # of iterations =  3.0

     total cpu time spent up to now is      227.1 secs

     total energy              =    -278.63887834 Ry
     estimated scf accuracy    <          1.6E-09 Ry

     iteration #  5     ecut=    90.00 Ry     beta= 0.70
     Davidson diagonalization with overlap
     ethr =  2.53E-12,  avg # of iterations =  2.3

     total cpu time spent up to now is      229.3 secs

     End of self-consistent calculation

     Number of k-points >= 100: set verbosity='high' to print the bands.

     highest occupied level (ev):     0.3227

!    total energy              =    -278.63887834 Ry
     estimated scf accuracy    <          7.1E-11 Ry

     The total energy is the sum of the following terms:
     one-electron contribution =    -110.71460752 Ry
     hartree contribution      =      84.96634871 Ry
     xc contribution           =     -71.03774321 Ry
     ewald contribution        =    -181.85287631 Ry

     convergence has been achieved in   5 iterations

     Forces acting on atoms (cartesian axes, Ry/au):

     atom    1 type  2   force =    -0.00000000   -0.00000007   -0.00001745
     atom    2 type  2   force =    -0.00000000    0.00000007    0.00001745
     atom    3 type  2   force =     0.00000000   -0.00000008    0.00000618
     atom    4 type  2   force =     0.00000000    0.00000008   -0.00000618
     atom    5 type  2   force =     0.00000000    0.00000000   -0.00001102
     atom    6 type  2   force =     0.00000000   -0.00000000    0.00001102
     atom    7 type  2   force =    -0.00000000    0.00000000   -0.00000400
     atom    8 type  2   force =    -0.00000000   -0.00000000    0.00000400
     atom    9 type  1   force =     0.00000000   -0.00028218   -0.00008163
     atom   10 type  1   force =     0.00000000    0.00028218    0.00008163
     atom   11 type  1   force =     0.00000000    0.00029793   -0.00004313
     atom   12 type  1   force =     0.00000000   -0.00029793    0.00004313
     atom   13 type  1   force =     0.00028265    0.00000000   -0.00007267
     atom   14 type  1   force =    -0.00028265   -0.00000000    0.00007267
     atom   15 type  1   force =    -0.00028364    0.00000000   -0.00007003
     atom   16 type  1   force =     0.00028364   -0.00000000    0.00007003
     atom   17 type  1   force =    -0.00028364   -0.00000000    0.00007003
     atom   18 type  1   force =     0.00028364    0.00000000   -0.00007003
     atom   19 type  1   force =     0.00028265   -0.00000000    0.00007267
     atom   20 type  1   force =    -0.00028265    0.00000000   -0.00007267
     atom   21 type  1   force =     0.00000000   -0.00029786   -0.00004307
     atom   22 type  1   force =     0.00000000    0.00029786    0.00004307
     atom   23 type  1   force =     0.00000000    0.00028224   -0.00008167
     atom   24 type  1   force =     0.00000000   -0.00028224    0.00008167

     Total force =     0.001179     Total SCF correction =     0.000005


     Computing stress (Cartesian axis) and pressure

          total   stress  (Ry/bohr**3)                   (kbar)     P=       76.88
   0.00052287   0.00000000   0.00000000           76.92        0.00        0.00
   0.00000000   0.00052279   0.00000000            0.00       76.90        0.00
   0.00000000   0.00000000   0.00052211            0.00        0.00       76.81

     Energy error            =      8.6E-06 Ry
     Gradient error          =      3.0E-04 Ry/Bohr

     bfgs converged in  13 scf cycles and  12 bfgs steps
     (criteria: energy <  1.0E-04 Ry, force <  1.0E-03 Ry/Bohr)

     End of BFGS Geometry Optimization

     Final energy             =    -278.6388783370 Ry

     File ./iceVIII/iceVIII.bfgs deleted, as requested
Begin final coordinates

ATOMIC_POSITIONS (crystal)
O                0.0000000000        0.2500000051        0.6112285873
O                0.0000000000        0.7499999949        0.3887714417
O                0.5000000000        0.7500000066        0.1112408652
O                0.5000000000        0.2499999934        0.8887591058
O               -0.0000000000        0.7499999990        0.8613087724
O               -0.0000000000        0.2500000010        0.1386912566
O                0.5000000000        0.2499999993        0.3611993651
O                0.5000000000        0.7500000007        0.6388006059
H                0.0000000000        0.4246154985        0.7024151412
H                0.0000000000        0.5753844715        0.2975848588
H                0.5000000000        0.5753597778        0.2023995054
H                0.5000000000        0.4246401922        0.7976004946
H                0.8253722365        0.7500000008        0.9524806774
H                0.1746277335        0.2499999992        0.0475193226
H                0.6746225983        0.2500000008        0.4523768133
H                0.3253774317        0.7499999992        0.5476231867
H                0.6746225983        0.7499999992        0.5476231867
H                0.3253774317        0.2500000008        0.4523768133
H                0.8253722365        0.2499999992        0.0475193226
H                0.1746277335        0.7500000008        0.9524806774
H                0.5000000000        0.9246402202        0.2023995035
H                0.5000000000        0.0753598098        0.7976004965
H                0.0000000000        0.0753844999        0.7024151428
H                0.0000000000        0.9246155301        0.2975848572
End final coordinates



     Writing all to output data dir ./iceVIII/iceVIII.save/ :
     XML data file, charge density, pseudopotentials, collected wavefunctions

     init_run     :      2.65s CPU      2.75s WALL (       1 calls)
     electrons    :    200.73s CPU    205.10s WALL (      13 calls)
     update_pot   :      0.46s CPU      0.53s WALL (      12 calls)
     forces       :      1.59s CPU      1.61s WALL (      13 calls)
     stress       :     19.79s CPU     19.87s WALL (      13 calls)

     Called by init_run:
     wfcinit      :      0.87s CPU      0.89s WALL (       1 calls)
     potinit      :      1.55s CPU      1.59s WALL (       1 calls)
     hinit0       :      0.18s CPU      0.20s WALL (       1 calls)

     Called by electrons:
     c_bands      :    176.98s CPU    180.44s WALL (      89 calls)
     sum_band     :     20.41s CPU     20.63s WALL (      89 calls)
     v_of_rho     :      4.98s CPU      5.43s WALL (      96 calls)
     newd         :      0.10s CPU      0.16s WALL (      96 calls)
     mix_rho      :      0.09s CPU      0.09s WALL (      89 calls)
     vdW_kernel   :      1.51s CPU      1.52s WALL (       1 calls)

     Called by c_bands:
     init_us_2    :      2.13s CPU      2.21s WALL (    7380 calls)
     cegterg      :    170.49s CPU    172.58s WALL (    3204 calls)

     Called by *egterg:
     cdiaghg      :     20.92s CPU     21.09s WALL (   12156 calls)
     h_psi        :    126.72s CPU    128.49s WALL (   12840 calls)
     s_psi        :      4.57s CPU      4.62s WALL (   12840 calls)
     g_psi        :      0.39s CPU      0.40s WALL (    9600 calls)

     Called by h_psi:
     h_psi:calbec :      6.18s CPU      6.26s WALL (   12840 calls)
     vloc_psi     :    115.18s CPU    116.80s WALL (   12840 calls)
     add_vuspsi   :      4.88s CPU      4.94s WALL (   12840 calls)

     General routines
     calbec       :      9.03s CPU      9.14s WALL (   18384 calls)
     fft          :      2.18s CPU      2.22s WALL (    6550 calls)
     ffts         :      0.03s CPU      0.03s WALL (      89 calls)
     fftw         :    122.45s CPU    124.11s WALL (  762404 calls)

     Parallel routines

     PWSCF        :   3m46.57s CPU   3m53.26s WALL


   This run was terminated on:  14:38:37   1Apr2026            

=------------------------------------------------------------------------------=
   JOB DONE.
=------------------------------------------------------------------------------=
