
     Program PWSCF v.7.3.1 starts on  1Apr2026 at 14:46:18 

     This program is part of the open-source Quantum ESPRESSO suite
     for quantum simulation of materials; please cite
         "P. Giannozzi et al., J. Phys.:Condens. Matter 21 395502 (2009);
         "P. Giannozzi et al., J. Phys.:Condens. Matter 29 465901 (2017);
         "P. Giannozzi et al., J. Chem. Phys. 152 154105 (2020);
          URL http://www.quantum-espresso.org", 
     in publications or presentations arising from this work. More details at
     http://www.quantum-espresso.org/quote

     Parallel version (MPI), running on   128 processors

     MPI processes distributed on     1 nodes
     241817 MiB available memory on the printing compute node when the environment starts

     Waiting for input...
     Reading input from standard input

     Current dimensions of program PWSCF are:
     Max number of different atomic species (ntypx) = 10
     Max number of k-points (npk) =  40000
     Max angular momentum in pseudopotentials (lmaxx) =  4

     IMPORTANT: XC functional enforced from input :
     Exchange-correlation= VDW-DF2
                           (   1   4  13   0   2   0   0)
     Any further DFT definition will be discarded
     Please, verify this is what you really want

     Found identity + ( -0.5000 -0.5000  0.5000) symmetry
     This is a supercell, fractional translations are disabled

     K-points division:     npool     =       4
     R & G space division:  proc/nbgrp/npool/nimage =      32
     Subspace diagonalization in iterative solution of the eigenvalue problem:
     a serial algorithm will be used


     Parallelization info
     --------------------
     sticks:   dense  smooth     PW     G-vecs:    dense   smooth      PW
     Min          67      67     18                 3375     3375     490
     Max          68      68     19                 3382     3382     497
     Sum        2145    2145    593               108075   108075   15791

     Using Slab Decomposition



     bravais-lattice index     =            6
     lattice parameter (alat)  =       8.6630  a.u.
     unit-cell volume          =     937.6317 (a.u.)^3
     number of atoms/cell      =           24
     number of atomic types    =            2
     number of electrons       =        64.00
     number of Kohn-Sham states=           32
     kinetic-energy cutoff     =      90.0000  Ry
     charge density cutoff     =     360.0000  Ry
     scf convergence threshold =      1.0E-07
     mixing beta               =       0.7000
     number of iterations used =            8  plain     mixing
     energy convergence thresh.=      1.0E-04
     force convergence thresh. =      1.0E-03
     Exchange-correlation= VDW-DF2
                           (   1   4  13   0   2   0   0)
     nstep                     =           50


     celldm(1)=   8.663018  celldm(2)=   0.000000  celldm(3)=   1.442197
     celldm(4)=   0.000000  celldm(5)=   0.000000  celldm(6)=   0.000000

     crystal axes: (cart. coord. in units of alat)
               a(1) = (   1.000000   0.000000   0.000000 )  
               a(2) = (   0.000000   1.000000   0.000000 )  
               a(3) = (   0.000000   0.000000   1.442197 )  

     reciprocal axes: (cart. coord. in units 2 pi/alat)
               b(1) = (  1.000000  0.000000  0.000000 )  
               b(2) = (  0.000000  1.000000  0.000000 )  
               b(3) = (  0.000000  0.000000  0.693386 )  


     PseudoPot. # 1 for H  read from file:
     ./H.pbe-van_ak.UPF
     MD5 check sum: 077eb6d537518a38cb46c6de387227b7
     Pseudo is Ultrasoft, Zval =  1.0
     Generated by new atomic code, or converted to UPF format
     Using radial grid of  615 points,  1 beta functions with: 
                l(1) =   0
     Q(r) pseudized with  8 coefficients,  rinner =    0.800

     PseudoPot. # 2 for O  read from file:
     ./O.pbe-van_ak.UPF
     MD5 check sum: 78c19812648e8988a0fe644b0f25305e
     Pseudo is Ultrasoft, Zval =  6.0
     Generated by new atomic code, or converted to UPF format
     Using radial grid of  737 points,  4 beta functions with: 
                l(1) =   0
                l(2) =   0
                l(3) =   1
                l(4) =   1
     Q(r) pseudized with  8 coefficients,  rinner =    0.800   0.800   0.800


     atomic species   valence    mass     pseudopotential
     H                 1.00     1.00800     H ( 1.00)
     O                 6.00    16.00000     O ( 1.00)

      4 Sym. Ops., with inversion, found



   Cartesian axes

     site n.     atom                  positions (alat units)
         1        O      tau(   1) = (   0.0000000   0.2500000   0.8781106  )
         2        O      tau(   2) = (   0.0000000   0.7500000   0.5640866  )
         3        O      tau(   3) = (   0.5000000   0.7500000   0.1570120  )
         4        O      tau(   4) = (   0.5000000   0.2500000   1.2851851  )
         5        O      tau(   5) = (   0.0000000   0.7500000   1.2386599  )
         6        O      tau(   6) = (   0.0000000   0.2500000   0.2035373  )
         7        O      tau(   7) = (   0.5000000   0.2500000   0.5175613  )
         8        O      tau(   8) = (   0.5000000   0.7500000   0.9246358  )
         9        H      tau(   9) = (   0.0000000   0.4142500   1.0027885  )
        10        H      tau(  10) = (   0.0000000   0.5857500   0.4394086  )
        11        H      tau(  11) = (   0.5000000   0.5857500   0.2816900  )
        12        H      tau(  12) = (   0.5000000   0.4142500   1.1605072  )
        13        H      tau(  13) = (   0.8357500   0.7500000   1.3633378  )
        14        H      tau(  14) = (   0.1642500   0.2500000   0.0788593  )
        15        H      tau(  15) = (   0.6642500   0.2500000   0.6422392  )
        16        H      tau(  16) = (   0.3357500   0.7500000   0.7999579  )
        17        H      tau(  17) = (   0.6642500   0.7500000   0.7999579  )
        18        H      tau(  18) = (   0.3357500   0.2500000   0.6422392  )
        19        H      tau(  19) = (   0.8357500   0.2500000   0.0788593  )
        20        H      tau(  20) = (   0.1642500   0.7500000   1.3633378  )
        21        H      tau(  21) = (   0.5000000   0.9142500   0.2816900  )
        22        H      tau(  22) = (   0.5000000   0.0857500   1.1605072  )
        23        H      tau(  23) = (   0.0000000   0.0857500   1.0027885  )
        24        H      tau(  24) = (   0.0000000   0.9142500   0.4394086  )

     number of k points=   144

     Number of k-points >= 100: set verbosity='high' to print them.

     Dense  grid:   108075 G-vectors     FFT dimensions: (  54,  54,  75)

     Estimated max dynamical RAM per process >      12.58 MB

     Estimated total dynamical RAM >       1.50 GB

     Initial potential from superposition of free atoms

     starting charge      63.9998, renormalised to      64.0000


     %%%%%%%%%%%%%%%%%%%%%%%%%%%%%%%%%%%%%%%%%%%%%%%%%%%%%%%%%%%%%%%%%%%%%%%%
     %                                                                      %
     % You are using vdW-DF, which was implemented by the Thonhauser group. %
     % Please cite the following two papers that made this development      %
     % possible and the two reviews that describe the various versions:     %
     %                                                                      %
     %   T. Thonhauser et al., PRL 115, 136402 (2015).                      %
     %   T. Thonhauser et al., PRB 76, 125112 (2007).                       %
     %   K. Berland et al., Rep. Prog. Phys. 78, 066501 (2015).             %
     %   D.C. Langreth et al., J. Phys.: Condens. Matter 21, 084203 (2009). %
     %                                                                      %
     % If you are calculating stress with vdW-DF, please also cite:         %
     %                                                                      %
     %   R. Sabatini et al., J. Phys.: Condens. Matter 24, 424209 (2012).   %
     %                                                                      %
     %%%%%%%%%%%%%%%%%%%%%%%%%%%%%%%%%%%%%%%%%%%%%%%%%%%%%%%%%%%%%%%%%%%%%%%%

     %%%%%%%%%%%%%%%%%%%%%%%%%%%%%%%%%%%%%%%%%%%%%%%%%%%%%%%%%%%%%%%%%%%%%%%%
     %                                                                      %
     %  vdW-DF NEWS:                                                        %
     %                                                                      %
     %  * vdW-DF3 is now available. DOI: 10.1021/acs.jctc.0c00471           %
     %    use with input_dft = 'vdW-DF3-opt1' or 'vdW-DF3-opt2'             %
     %                                                                      %
     %  * Unscreened and range-separated hybrid vdW-DF-cx functionals       %
     %    DOI: 10.1063/1.4986522 and 10.1088/1361-648X/ac2ad2               %
     %    use with input_dft = 'vdW-DF-cx0'    and 'vdW-DF-ahcx'            %
     %  * Unscreened and range-separated hybrid vdW-DF2-b86r functionals    %
     %    DOI: 10.1063/1.4986522 and DOI: 10.1103/PhysRevX.12.041003        %
     %    use with input_dft = 'vdW-DF2-br0' and 'vdW-DF2-ahbr'             %
     %                                                                      %
     %%%%%%%%%%%%%%%%%%%%%%%%%%%%%%%%%%%%%%%%%%%%%%%%%%%%%%%%%%%%%%%%%%%%%%%%


     Starting wfcs are   48 randomized atomic wfcs

     total cpu time spent up to now is        3.0 secs

     per-process dynamical memory:    19.0 Mb

     Self-consistent Calculation

     iteration #  1     ecut=    90.00 Ry     beta= 0.70
     Davidson diagonalization with overlap
     ethr =  1.00E-02,  avg # of iterations =  2.0

     total cpu time spent up to now is        4.9 secs

     total energy              =    -277.16638825 Ry
     estimated scf accuracy    <       3.34183115 Ry

     iteration #  2     ecut=    90.00 Ry     beta= 0.70
     Davidson diagonalization with overlap
     ethr =  5.22E-03,  avg # of iterations =  3.0

     total cpu time spent up to now is        7.4 secs

     total energy              =    -278.31794994 Ry
     estimated scf accuracy    <       1.82292850 Ry

     iteration #  3     ecut=    90.00 Ry     beta= 0.70
     Davidson diagonalization with overlap
     ethr =  2.85E-03,  avg # of iterations =  2.0

     total cpu time spent up to now is        9.3 secs

     total energy              =    -278.53076609 Ry
     estimated scf accuracy    <       0.08168432 Ry

     iteration #  4     ecut=    90.00 Ry     beta= 0.70
     Davidson diagonalization with overlap
     ethr =  1.28E-04,  avg # of iterations =  4.1

     total cpu time spent up to now is       12.2 secs

     total energy              =    -278.58897667 Ry
     estimated scf accuracy    <       0.11234923 Ry

     iteration #  5     ecut=    90.00 Ry     beta= 0.70
     Davidson diagonalization with overlap
     ethr =  1.28E-04,  avg # of iterations =  2.0

     total cpu time spent up to now is       14.1 secs

     total energy              =    -278.59168876 Ry
     estimated scf accuracy    <       0.01684049 Ry

     iteration #  6     ecut=    90.00 Ry     beta= 0.70
     Davidson diagonalization with overlap
     ethr =  2.63E-05,  avg # of iterations =  2.7

     total cpu time spent up to now is       16.2 secs

     total energy              =    -278.59595767 Ry
     estimated scf accuracy    <       0.00026527 Ry

     iteration #  7     ecut=    90.00 Ry     beta= 0.70
     Davidson diagonalization with overlap
     ethr =  4.14E-07,  avg # of iterations =  4.7

     total cpu time spent up to now is       19.3 secs

     total energy              =    -278.59635751 Ry
     estimated scf accuracy    <       0.00039090 Ry

     iteration #  8     ecut=    90.00 Ry     beta= 0.70
     Davidson diagonalization with overlap
     ethr =  4.14E-07,  avg # of iterations =  2.0

     total cpu time spent up to now is       21.2 secs

     total energy              =    -278.59637471 Ry
     estimated scf accuracy    <       0.00004695 Ry

     iteration #  9     ecut=    90.00 Ry     beta= 0.70
     Davidson diagonalization with overlap
     ethr =  7.34E-08,  avg # of iterations =  3.0

     total cpu time spent up to now is       23.5 secs

     total energy              =    -278.59638889 Ry
     estimated scf accuracy    <       0.00000020 Ry

     iteration # 10     ecut=    90.00 Ry     beta= 0.70
     Davidson diagonalization with overlap
     ethr =  3.19E-10,  avg # of iterations =  5.2

     total cpu time spent up to now is       26.9 secs

     total energy              =    -278.59638951 Ry
     estimated scf accuracy    <       0.00000021 Ry

     iteration # 11     ecut=    90.00 Ry     beta= 0.70
     Davidson diagonalization with overlap
     ethr =  3.19E-10,  avg # of iterations =  2.8

     total cpu time spent up to now is       29.3 secs

     End of self-consistent calculation

     Number of k-points >= 100: set verbosity='high' to print the bands.

     highest occupied level (ev):    -0.0651

!    total energy              =    -278.59638957 Ry
     estimated scf accuracy    <       0.00000002 Ry

     The total energy is the sum of the following terms:
     one-electron contribution =    -120.60796080 Ry
     hartree contribution      =      88.97747381 Ry
     xc contribution           =     -71.55740974 Ry
     ewald contribution        =    -175.40849284 Ry

     convergence has been achieved in  11 iterations

     Forces acting on atoms (cartesian axes, Ry/au):

     atom    1 type  2   force =     0.00000000   -0.00000001   -0.09095855
     atom    2 type  2   force =     0.00000000    0.00000001    0.09095855
     atom    3 type  2   force =     0.00000000   -0.00000002   -0.09065909
     atom    4 type  2   force =     0.00000000    0.00000002    0.09065909
     atom    5 type  2   force =     0.00000000    0.00000000   -0.09073348
     atom    6 type  2   force =     0.00000000   -0.00000000    0.09073348
     atom    7 type  2   force =     0.00000000    0.00000002   -0.09072694
     atom    8 type  2   force =     0.00000000   -0.00000002    0.09072694
     atom    9 type  1   force =     0.00000000    0.07005667    0.04620379
     atom   10 type  1   force =     0.00000000   -0.07005667   -0.04620379
     atom   11 type  1   force =     0.00000000   -0.07006035    0.04617861
     atom   12 type  1   force =     0.00000000    0.07006035   -0.04617861
     atom   13 type  1   force =    -0.07006611   -0.00000000    0.04619231
     atom   14 type  1   force =     0.07006611    0.00000000   -0.04619231
     atom   15 type  1   force =     0.07005860    0.00000000    0.04618254
     atom   16 type  1   force =    -0.07005860   -0.00000000   -0.04618254
     atom   17 type  1   force =     0.07005860   -0.00000000   -0.04618254
     atom   18 type  1   force =    -0.07005860    0.00000000    0.04618254
     atom   19 type  1   force =    -0.07006611    0.00000000   -0.04619231
     atom   20 type  1   force =     0.07006611   -0.00000000    0.04619231
     atom   21 type  1   force =     0.00000000    0.07006035    0.04617862
     atom   22 type  1   force =     0.00000000   -0.07006035   -0.04617862
     atom   23 type  1   force =     0.00000000   -0.07005667    0.04620379
     atom   24 type  1   force =     0.00000000    0.07005667   -0.04620379

     Total force =     0.422592     Total SCF correction =     0.000180


     Computing stress (Cartesian axis) and pressure

          total   stress  (Ry/bohr**3)                   (kbar)     P=      192.82
   0.00129782   0.00000000   0.00000000          190.92        0.00        0.00
   0.00000000   0.00129721  -0.00000000            0.00      190.83       -0.00
   0.00000000  -0.00000000   0.00133728            0.00       -0.00      196.72


     BFGS Geometry Optimization
     Energy error            =      0.0E+00 Ry
     Gradient error          =      9.1E-02 Ry/Bohr

     number of scf cycles    =   1
     number of bfgs steps    =   0

     energy             new  =    -278.5963895670 Ry

     new trust radius        =       0.0909585513 bohr
     new conv_thr            =       0.0000001000 Ry


ATOMIC_POSITIONS (crystal)
O                0.0000000000        0.2499999994        0.6015897221
O                0.0000000000        0.7500000006        0.3984103069
O                0.5000000000        0.7499999975        0.1016136616
O                0.5000000000        0.2500000025        0.8983863094
O                0.0000000000        0.7500000004        0.8516077370
O                0.0000000000        0.2499999996        0.1483922920
O                0.5000000000        0.2500000018        0.3516082309
O                0.5000000000        0.7499999982        0.6483917401
H                0.0000000000        0.4223368524        0.6990181538
H                0.0000000000        0.5776631176        0.3009818462
H                0.5000000000        0.5776626922        0.1990161379
H                0.5000000000        0.4223372778        0.8009838621
H                0.8276620276        0.7499999999        0.9490172347
H                0.1723379424        0.2500000001        0.0509827653
H                0.6723371056        0.2500000001        0.4490164528
H                0.3276629244        0.7499999999        0.5509835472
H                0.6723371056        0.7499999999        0.5509835472
H                0.3276629244        0.2500000001        0.4490164528
H                0.8276620276        0.2500000001        0.0509827653
H                0.1723379424        0.7499999999        0.9490172347
H                0.5000000000        0.9223373078        0.1990161385
H                0.5000000000        0.0776627222        0.8009838615
H                0.0000000000        0.0776631476        0.6990181532
H                0.0000000000        0.9223368824        0.3009818468



     Writing config-only to output data dir ./iceVIII/iceVIII.save/ :
     XML data file
     NEW-OLD atomic charge density approx. for the potential

     total cpu time spent up to now is       31.1 secs

     per-process dynamical memory:    20.3 Mb

     Self-consistent Calculation

     iteration #  1     ecut=    90.00 Ry     beta= 0.70
     Davidson diagonalization with overlap
     ethr =  1.00E-06,  avg # of iterations =  9.2

     total cpu time spent up to now is       36.7 secs

     total energy              =    -278.60515015 Ry
     estimated scf accuracy    <       0.06278389 Ry

     iteration #  2     ecut=    90.00 Ry     beta= 0.70
     Davidson diagonalization with overlap
     ethr =  9.81E-05,  avg # of iterations =  3.0

     total cpu time spent up to now is       39.1 secs

     total energy              =    -278.62343509 Ry
     estimated scf accuracy    <       0.02476537 Ry

     iteration #  3     ecut=    90.00 Ry     beta= 0.70
     Davidson diagonalization with overlap
     ethr =  3.87E-05,  avg # of iterations =  2.0

     total cpu time spent up to now is       41.0 secs

     total energy              =    -278.62732960 Ry
     estimated scf accuracy    <       0.00056853 Ry

     iteration #  4     ecut=    90.00 Ry     beta= 0.70
     Davidson diagonalization with overlap
     ethr =  8.88E-07,  avg # of iterations =  4.0

     total cpu time spent up to now is       43.9 secs

     total energy              =    -278.62780798 Ry
     estimated scf accuracy    <       0.00060757 Ry

     iteration #  5     ecut=    90.00 Ry     beta= 0.70
     Davidson diagonalization with overlap
     ethr =  8.88E-07,  avg # of iterations =  2.0

     total cpu time spent up to now is       46.0 secs

     total energy              =    -278.62794029 Ry
     estimated scf accuracy    <       0.00000279 Ry

     iteration #  6     ecut=    90.00 Ry     beta= 0.70
     Davidson diagonalization with overlap
     ethr =  4.37E-09,  avg # of iterations =  5.5

     total cpu time spent up to now is       49.6 secs

     total energy              =    -278.62793899 Ry
     estimated scf accuracy    <       0.00002163 Ry

     iteration #  7     ecut=    90.00 Ry     beta= 0.70
     Davidson diagonalization with overlap
     ethr =  4.37E-09,  avg # of iterations =  4.0

     total cpu time spent up to now is       52.4 secs

     End of self-consistent calculation

     Number of k-points >= 100: set verbosity='high' to print the bands.

     highest occupied level (ev):     0.0840

!    total energy              =    -278.62794301 Ry
     estimated scf accuracy    <       0.00000004 Ry

     The total energy is the sum of the following terms:
     one-electron contribution =    -112.65628182 Ry
     hartree contribution      =      85.58509278 Ry
     xc contribution           =     -70.66305651 Ry
     ewald contribution        =    -180.89369745 Ry

     convergence has been achieved in   7 iterations

     Forces acting on atoms (cartesian axes, Ry/au):

     atom    1 type  2   force =     0.00000000    0.00000001    0.06625135
     atom    2 type  2   force =     0.00000000   -0.00000001   -0.06625135
     atom    3 type  2   force =     0.00000000    0.00000002    0.06583202
     atom    4 type  2   force =     0.00000000   -0.00000002   -0.06583202
     atom    5 type  2   force =     0.00000000   -0.00000000    0.06612803
     atom    6 type  2   force =     0.00000000    0.00000000   -0.06612803
     atom    7 type  2   force =     0.00000000   -0.00000000    0.06585357
     atom    8 type  2   force =     0.00000000    0.00000000   -0.06585357
     atom    9 type  1   force =     0.00000000   -0.01814064   -0.02901256
     atom   10 type  1   force =     0.00000000    0.01814064    0.02901256
     atom   11 type  1   force =     0.00000000    0.01806865   -0.02890311
     atom   12 type  1   force =     0.00000000   -0.01806865    0.02890311
     atom   13 type  1   force =     0.01808253   -0.00000000   -0.02894192
     atom   14 type  1   force =    -0.01808253    0.00000000    0.02894192
     atom   15 type  1   force =    -0.01808026    0.00000000   -0.02893746
     atom   16 type  1   force =     0.01808026   -0.00000000    0.02893746
     atom   17 type  1   force =    -0.01808026   -0.00000000    0.02893746
     atom   18 type  1   force =     0.01808026    0.00000000   -0.02893746
     atom   19 type  1   force =     0.01808253    0.00000000    0.02894192
     atom   20 type  1   force =    -0.01808253   -0.00000000   -0.02894192
     atom   21 type  1   force =     0.00000000   -0.01806867   -0.02890313
     atom   22 type  1   force =     0.00000000    0.01806867    0.02890313
     atom   23 type  1   force =     0.00000000    0.01814063   -0.02901256
     atom   24 type  1   force =     0.00000000   -0.01814063    0.02901256

     Total force =     0.231326     Total SCF correction =     0.000415


     Computing stress (Cartesian axis) and pressure

          total   stress  (Ry/bohr**3)                   (kbar)     P=       10.37
   0.00017440   0.00000000   0.00000000           25.65        0.00        0.00
   0.00000000   0.00017388  -0.00000000            0.00       25.58       -0.00
   0.00000000  -0.00000000  -0.00013674            0.00       -0.00      -20.12

     Energy error            =      3.2E-02 Ry
     Gradient error          =      6.6E-02 Ry/Bohr

     number of scf cycles    =   2
     number of bfgs steps    =   1

     energy             old  =    -278.5963895670 Ry
     energy             new  =    -278.6279430067 Ry

     CASE: energy            _new < energy            _old

     new trust radius        =       0.0421852627 bohr
     new conv_thr            =       0.0000000663 Ry


ATOMIC_POSITIONS (crystal)
O                0.0000000000        0.2499999999        0.6049662233
O                0.0000000000        0.7500000001        0.3950338057
O                0.5000000000        0.7499999993        0.1049683231
O                0.5000000000        0.2500000007        0.8950316479
O                0.0000000000        0.7500000004        0.8549780478
O                0.0000000000        0.2499999996        0.1450219812
O                0.5000000000        0.2500000016        0.3549639255
O                0.5000000000        0.7499999984        0.6450360455
H                0.0000000000        0.4211140325        0.6975503447
H                0.0000000000        0.5788859375        0.3024496553
H                0.5000000000        0.5788799699        0.1975541192
H                0.5000000000        0.4211200001        0.8024458808
H                0.8288803582        0.7499999999        0.9475531710
H                0.1711196118        0.2500000001        0.0524468290
H                0.6711189311        0.2500000002        0.4475526103
H                0.3288810989        0.7499999998        0.5524473897
H                0.6711189311        0.7499999998        0.5524473897
H                0.3288810989        0.2500000002        0.4475526103
H                0.8288803582        0.2500000001        0.0524468290
H                0.1711196118        0.7499999999        0.9475531710
H                0.5000000000        0.9211200285        0.1975541191
H                0.5000000000        0.0788800015        0.8024458809
H                0.0000000000        0.0788859670        0.6975503444
H                0.0000000000        0.9211140630        0.3024496556



     Writing config-only to output data dir ./iceVIII/iceVIII.save/ :
     XML data file
     NEW-OLD atomic charge density approx. for the potential

     total cpu time spent up to now is       54.2 secs

     per-process dynamical memory:    20.3 Mb

     Self-consistent Calculation

     iteration #  1     ecut=    90.00 Ry     beta= 0.70
     Davidson diagonalization with overlap
     ethr =  1.00E-06,  avg # of iterations =  8.0

     total cpu time spent up to now is       58.7 secs

     total energy              =    -278.64637418 Ry
     estimated scf accuracy    <       0.00724572 Ry

     iteration #  2     ecut=    90.00 Ry     beta= 0.70
     Davidson diagonalization with overlap
     ethr =  1.13E-05,  avg # of iterations =  3.0

     total cpu time spent up to now is       61.0 secs

     total energy              =    -278.64858198 Ry
     estimated scf accuracy    <       0.00211774 Ry

     iteration #  3     ecut=    90.00 Ry     beta= 0.70
     Davidson diagonalization with overlap
     ethr =  3.31E-06,  avg # of iterations =  2.0

     total cpu time spent up to now is       62.9 secs

     total energy              =    -278.64885054 Ry
     estimated scf accuracy    <       0.00006426 Ry

     iteration #  4     ecut=    90.00 Ry     beta= 0.70
     Davidson diagonalization with overlap
     ethr =  1.00E-07,  avg # of iterations =  4.6

     total cpu time spent up to now is       65.8 secs

     total energy              =    -278.64888367 Ry
     estimated scf accuracy    <       0.00005227 Ry

     iteration #  5     ecut=    90.00 Ry     beta= 0.70
     Davidson diagonalization with overlap
     ethr =  8.17E-08,  avg # of iterations =  3.0

     total cpu time spent up to now is       68.1 secs

     total energy              =    -278.64890091 Ry
     estimated scf accuracy    <       0.00000628 Ry

     iteration #  6     ecut=    90.00 Ry     beta= 0.70
     Davidson diagonalization with overlap
     ethr =  9.81E-09,  avg # of iterations =  2.0

     total cpu time spent up to now is       69.9 secs

     total energy              =    -278.64890138 Ry
     estimated scf accuracy    <       0.00000051 Ry

     iteration #  7     ecut=    90.00 Ry     beta= 0.70
     Davidson diagonalization with overlap
     ethr =  7.90E-10,  avg # of iterations =  3.0

     total cpu time spent up to now is       72.1 secs

     End of self-consistent calculation

     Number of k-points >= 100: set verbosity='high' to print the bands.

     highest occupied level (ev):     0.0451

!    total energy              =    -278.64890153 Ry
     estimated scf accuracy    <          4.7E-09 Ry

     The total energy is the sum of the following terms:
     one-electron contribution =    -114.95508994 Ry
     hartree contribution      =      86.55729434 Ry
     xc contribution           =     -70.93806948 Ry
     ewald contribution        =    -179.31303645 Ry

     convergence has been achieved in   7 iterations

     Forces acting on atoms (cartesian axes, Ry/au):

     atom    1 type  2   force =     0.00000000    0.00000000    0.01741806
     atom    2 type  2   force =     0.00000000   -0.00000000   -0.01741806
     atom    3 type  2   force =     0.00000000    0.00000000    0.01758905
     atom    4 type  2   force =     0.00000000   -0.00000000   -0.01758905
     atom    5 type  2   force =     0.00000000   -0.00000000    0.01750880
     atom    6 type  2   force =     0.00000000    0.00000000   -0.01750880
     atom    7 type  2   force =     0.00000000   -0.00000000    0.01748994
     atom    8 type  2   force =     0.00000000    0.00000000   -0.01748994
     atom    9 type  1   force =     0.00000000    0.00085861   -0.00600285
     atom   10 type  1   force =     0.00000000   -0.00085861    0.00600285
     atom   11 type  1   force =     0.00000000   -0.00082761   -0.00603939
     atom   12 type  1   force =     0.00000000    0.00082761    0.00603939
     atom   13 type  1   force =    -0.00087626    0.00000000   -0.00599209
     atom   14 type  1   force =     0.00087626   -0.00000000    0.00599209
     atom   15 type  1   force =     0.00082439    0.00000000   -0.00605167
     atom   16 type  1   force =    -0.00082439   -0.00000000    0.00605167
     atom   17 type  1   force =     0.00082439   -0.00000000    0.00605167
     atom   18 type  1   force =    -0.00082439    0.00000000   -0.00605167
     atom   19 type  1   force =    -0.00087626   -0.00000000    0.00599209
     atom   20 type  1   force =     0.00087626    0.00000000   -0.00599209
     atom   21 type  1   force =     0.00000000    0.00082761   -0.00603939
     atom   22 type  1   force =     0.00000000   -0.00082761    0.00603939
     atom   23 type  1   force =     0.00000000   -0.00085861   -0.00600285
     atom   24 type  1   force =     0.00000000    0.00085861    0.00600285

     Total force =     0.055155     Total SCF correction =     0.000145


     Computing stress (Cartesian axis) and pressure

          total   stress  (Ry/bohr**3)                   (kbar)     P=       59.38
   0.00043848   0.00000000   0.00000000           64.50        0.00        0.00
   0.00000000   0.00043796   0.00000000            0.00       64.43        0.00
   0.00000000   0.00000000   0.00033454            0.00        0.00       49.21

     Energy error            =      2.1E-02 Ry
     Gradient error          =      1.8E-02 Ry/Bohr

     number of scf cycles    =   3
     number of bfgs steps    =   2

     energy             old  =    -278.6279430067 Ry
     energy             new  =    -278.6489015344 Ry

     CASE: energy            _new < energy            _old

     new trust radius        =       0.0171080761 bohr
     new conv_thr            =       0.0000000176 Ry


ATOMIC_POSITIONS (crystal)
O                0.0000000000        0.2499999999        0.6063154823
O                0.0000000000        0.7500000001        0.3936845467
O                0.5000000000        0.7499999991        0.1063376506
O                0.5000000000        0.2500000009        0.8936623204
O                0.0000000000        0.7500000003        0.8563375433
O                0.0000000000        0.2499999997        0.1436624857
O                0.5000000000        0.2500000014        0.3563228579
O                0.5000000000        0.7499999986        0.6436771131
H                0.0000000000        0.4214977097        0.6971346648
H                0.0000000000        0.5785022603        0.3028653352
H                0.5000000000        0.5785014071        0.1971341005
H                0.5000000000        0.4214985629        0.8028658995
H                0.8284944619        0.7499999999        0.9471382320
H                0.1715055081        0.2500000001        0.0528617680
H                0.6714970971        0.2500000003        0.4471315040
H                0.3285029329        0.7499999997        0.5528684960
H                0.6714970971        0.7499999997        0.5528684960
H                0.3285029329        0.2500000003        0.4471315040
H                0.8284944619        0.2500000001        0.0528617680
H                0.1715055081        0.7499999999        0.9471382320
H                0.5000000000        0.9214985916        0.1971341004
H                0.5000000000        0.0785014384        0.8028658996
H                0.0000000000        0.0785022899        0.6971346645
H                0.0000000000        0.9214977401        0.3028653355



     Writing config-only to output data dir ./iceVIII/iceVIII.save/ :
     XML data file
     NEW-OLD atomic charge density approx. for the potential

     total cpu time spent up to now is       74.0 secs

     per-process dynamical memory:    20.3 Mb

     Self-consistent Calculation

     iteration #  1     ecut=    90.00 Ry     beta= 0.70
     Davidson diagonalization with overlap
     ethr =  1.00E-06,  avg # of iterations =  5.0

     total cpu time spent up to now is       77.3 secs

     total energy              =    -278.65034927 Ry
     estimated scf accuracy    <       0.00068096 Ry

     iteration #  2     ecut=    90.00 Ry     beta= 0.70
     Davidson diagonalization with overlap
     ethr =  1.06E-06,  avg # of iterations =  3.0

     total cpu time spent up to now is       79.6 secs

     total energy              =    -278.65054190 Ry
     estimated scf accuracy    <       0.00016714 Ry

     iteration #  3     ecut=    90.00 Ry     beta= 0.70
     Davidson diagonalization with overlap
     ethr =  2.61E-07,  avg # of iterations =  2.0

     total cpu time spent up to now is       81.6 secs

     total energy              =    -278.65056879 Ry
     estimated scf accuracy    <       0.00000445 Ry

     iteration #  4     ecut=    90.00 Ry     beta= 0.70
     Davidson diagonalization with overlap
     ethr =  6.95E-09,  avg # of iterations =  4.0

     total cpu time spent up to now is       84.4 secs

     total energy              =    -278.65056996 Ry
     estimated scf accuracy    <       0.00000316 Ry

     iteration #  5     ecut=    90.00 Ry     beta= 0.70
     Davidson diagonalization with overlap
     ethr =  4.94E-09,  avg # of iterations =  3.0

     total cpu time spent up to now is       86.8 secs

     total energy              =    -278.65057098 Ry
     estimated scf accuracy    <       0.00000123 Ry

     iteration #  6     ecut=    90.00 Ry     beta= 0.70
     Davidson diagonalization with overlap
     ethr =  1.92E-09,  avg # of iterations =  2.0

     total cpu time spent up to now is       88.8 secs

     End of self-consistent calculation

     Number of k-points >= 100: set verbosity='high' to print the bands.

     highest occupied level (ev):     0.0409

!    total energy              =    -278.65057118 Ry
     estimated scf accuracy    <       0.00000001 Ry

     The total energy is the sum of the following terms:
     one-electron contribution =    -115.49139354 Ry
     hartree contribution      =      86.78483999 Ry
     xc contribution           =     -71.00596288 Ry
     ewald contribution        =    -178.93805476 Ry

     convergence has been achieved in   6 iterations

     Forces acting on atoms (cartesian axes, Ry/au):

     atom    1 type  2   force =     0.00000000    0.00000000    0.00195878
     atom    2 type  2   force =     0.00000000   -0.00000000   -0.00195878
     atom    3 type  2   force =     0.00000000    0.00000000    0.00195103
     atom    4 type  2   force =     0.00000000   -0.00000000   -0.00195103
     atom    5 type  2   force =     0.00000000   -0.00000000    0.00198228
     atom    6 type  2   force =     0.00000000    0.00000000   -0.00198228
     atom    7 type  2   force =     0.00000000   -0.00000000    0.00193853
     atom    8 type  2   force =     0.00000000    0.00000000   -0.00193853
     atom    9 type  1   force =     0.00000000    0.00470206    0.00120271
     atom   10 type  1   force =     0.00000000   -0.00470206   -0.00120271
     atom   11 type  1   force =     0.00000000   -0.00479525    0.00129406
     atom   12 type  1   force =     0.00000000    0.00479525   -0.00129406
     atom   13 type  1   force =    -0.00474452    0.00000000    0.00125191
     atom   14 type  1   force =     0.00474452   -0.00000000   -0.00125191
     atom   15 type  1   force =     0.00475610    0.00000000    0.00123919
     atom   16 type  1   force =    -0.00475610   -0.00000000   -0.00123919
     atom   17 type  1   force =     0.00475610   -0.00000000   -0.00123919
     atom   18 type  1   force =    -0.00475610    0.00000000    0.00123919
     atom   19 type  1   force =    -0.00474452   -0.00000000   -0.00125191
     atom   20 type  1   force =     0.00474452    0.00000000    0.00125191
     atom   21 type  1   force =     0.00000000    0.00479525    0.00129406
     atom   22 type  1   force =     0.00000000   -0.00479525   -0.00129406
     atom   23 type  1   force =     0.00000000   -0.00470206    0.00120271
     atom   24 type  1   force =     0.00000000    0.00470206   -0.00120271

     Total force =     0.020408     Total SCF correction =     0.000280


     Computing stress (Cartesian axis) and pressure

          total   stress  (Ry/bohr**3)                   (kbar)     P=       71.04
   0.00049335   0.00000000   0.00000000           72.58        0.00        0.00
   0.00000000   0.00049292  -0.00000000            0.00       72.51       -0.00
   0.00000000  -0.00000000   0.00046247            0.00       -0.00       68.03

     Energy error            =      1.7E-03 Ry
     Gradient error          =      4.8E-03 Ry/Bohr

     number of scf cycles    =   4
     number of bfgs steps    =   3

     energy             old  =    -278.6489015344 Ry
     energy             new  =    -278.6505711812 Ry

     CASE: energy            _new < energy            _old

     new trust radius        =       0.0063781685 bohr
     new conv_thr            =       0.0000000048 Ry


ATOMIC_POSITIONS (crystal)
O                0.0000000000        0.2500000000        0.6068224874
O                0.0000000000        0.7500000000        0.3931775416
O                0.5000000000        0.7499999996        0.1068459362
O                0.5000000000        0.2500000004        0.8931540348
O                0.0000000000        0.7500000003        0.8568480508
O                0.0000000000        0.2499999997        0.1431519782
O                0.5000000000        0.2500000011        0.3568284607
O                0.5000000000        0.7499999989        0.6431715103
H                0.0000000000        0.4221765472        0.6971344140
H                0.0000000000        0.5778234228        0.3028655860
H                0.5000000000        0.5778105133        0.1971420060
H                0.5000000000        0.4221894567        0.8028579940
H                0.8278093529        0.7500000000        0.9471428618
H                0.1721906171        0.2500000000        0.0528571382
H                0.6721826227        0.2500000003        0.4471340435
H                0.3278174073        0.7499999997        0.5528659565
H                0.6721826227        0.7499999997        0.5528659565
H                0.3278174073        0.2500000003        0.4471340435
H                0.8278093529        0.2500000000        0.0528571382
H                0.1721906171        0.7500000000        0.9471428618
H                0.5000000000        0.9221894851        0.1971420057
H                0.5000000000        0.0778105449        0.8028579943
H                0.0000000000        0.0778234522        0.6971344138
H                0.0000000000        0.9221765778        0.3028655862



     Writing config-only to output data dir ./iceVIII/iceVIII.save/ :
     XML data file
     NEW-OLD atomic charge density approx. for the potential

     total cpu time spent up to now is       90.6 secs

     per-process dynamical memory:    20.3 Mb

     Self-consistent Calculation

     iteration #  1     ecut=    90.00 Ry     beta= 0.70
     Davidson diagonalization with overlap
     ethr =  1.00E-06,  avg # of iterations =  3.0

     Threshold (ethr) on eigenvalues was too large:
     Diagonalizing with lowered threshold

     Davidson diagonalization with overlap
     ethr =  6.30E-08,  avg # of iterations =  2.8

     total cpu time spent up to now is       94.9 secs

     total energy              =    -278.65097714 Ry
     estimated scf accuracy    <       0.00004323 Ry

     iteration #  2     ecut=    90.00 Ry     beta= 0.70
     Davidson diagonalization with overlap
     ethr =  6.75E-08,  avg # of iterations =  2.0

     total cpu time spent up to now is       96.9 secs

     total energy              =    -278.65098466 Ry
     estimated scf accuracy    <       0.00000196 Ry

     iteration #  3     ecut=    90.00 Ry     beta= 0.70
     Davidson diagonalization with overlap
     ethr =  3.07E-09,  avg # of iterations =  2.0

     total cpu time spent up to now is       98.8 secs

     total energy              =    -278.65098503 Ry
     estimated scf accuracy    <       0.00000031 Ry

     iteration #  4     ecut=    90.00 Ry     beta= 0.70
     Davidson diagonalization with overlap
     ethr =  4.82E-10,  avg # of iterations =  2.0

     total cpu time spent up to now is      100.9 secs

     total energy              =    -278.65098511 Ry
     estimated scf accuracy    <       0.00000003 Ry

     iteration #  5     ecut=    90.00 Ry     beta= 0.70
     Davidson diagonalization with overlap
     ethr =  5.16E-11,  avg # of iterations =  2.1

     total cpu time spent up to now is      102.6 secs

     End of self-consistent calculation

     Number of k-points >= 100: set verbosity='high' to print the bands.

     highest occupied level (ev):     0.0466

!    total energy              =    -278.65098511 Ry
     estimated scf accuracy    <          3.2E-09 Ry

     The total energy is the sum of the following terms:
     one-electron contribution =    -115.39380982 Ry
     hartree contribution      =      86.74361000 Ry
     xc contribution           =     -71.00043490 Ry
     ewald contribution        =    -179.00035038 Ry

     convergence has been achieved in   5 iterations

     Forces acting on atoms (cartesian axes, Ry/au):

     atom    1 type  2   force =     0.00000000   -0.00000000    0.00008546
     atom    2 type  2   force =     0.00000000    0.00000000   -0.00008546
     atom    3 type  2   force =     0.00000000   -0.00000000    0.00023428
     atom    4 type  2   force =     0.00000000    0.00000000   -0.00023428
     atom    5 type  2   force =     0.00000000   -0.00000000    0.00015733
     atom    6 type  2   force =     0.00000000    0.00000000   -0.00015733
     atom    7 type  2   force =     0.00000000   -0.00000000    0.00018218
     atom    8 type  2   force =     0.00000000    0.00000000   -0.00018218
     atom    9 type  1   force =     0.00000000    0.00281842    0.00194730
     atom   10 type  1   force =     0.00000000   -0.00281842   -0.00194730
     atom   11 type  1   force =     0.00000000   -0.00281883    0.00196927
     atom   12 type  1   force =     0.00000000    0.00281883   -0.00196927
     atom   13 type  1   force =    -0.00281950    0.00000000    0.00197135
     atom   14 type  1   force =     0.00281950   -0.00000000   -0.00197135
     atom   15 type  1   force =     0.00281890    0.00000000    0.00194348
     atom   16 type  1   force =    -0.00281890   -0.00000000   -0.00194348
     atom   17 type  1   force =     0.00281890   -0.00000000   -0.00194348
     atom   18 type  1   force =    -0.00281890    0.00000000    0.00194348
     atom   19 type  1   force =    -0.00281950   -0.00000000   -0.00197135
     atom   20 type  1   force =     0.00281950    0.00000000    0.00197135
     atom   21 type  1   force =     0.00000000    0.00281883    0.00196927
     atom   22 type  1   force =     0.00000000   -0.00281883   -0.00196927
     atom   23 type  1   force =     0.00000000   -0.00281842    0.00194730
     atom   24 type  1   force =     0.00000000    0.00281842   -0.00194730

     Total force =     0.013737     Total SCF correction =     0.000158


     Computing stress (Cartesian axis) and pressure

          total   stress  (Ry/bohr**3)                   (kbar)     P=       69.18
   0.00047196   0.00000000   0.00000000           69.43        0.00        0.00
   0.00000000   0.00047150   0.00000000            0.00       69.36        0.00
   0.00000000   0.00000000   0.00046739            0.00        0.00       68.76

     Energy error            =      4.1E-04 Ry
     Gradient error          =      2.8E-03 Ry/Bohr

     number of scf cycles    =   5
     number of bfgs steps    =   4

     energy             old  =    -278.6505711812 Ry
     energy             new  =    -278.6509851108 Ry

     CASE: energy            _new < energy            _old

     new trust radius        =       0.0070159853 bohr
     new conv_thr            =       0.0000000028 Ry


ATOMIC_POSITIONS (crystal)
O                0.0000000000        0.2499999997        0.6072977433
O                0.0000000000        0.7500000003        0.3927022857
O                0.5000000000        0.7499999988        0.1073458339
O                0.5000000000        0.2500000012        0.8926541371
O                0.0000000000        0.7500000002        0.8573361527
O                0.0000000000        0.2499999998        0.1426638763
O                0.5000000000        0.2500000008        0.3573184455
O                0.5000000000        0.7499999992        0.6426815255
H                0.0000000000        0.4229442483        0.6973039372
H                0.0000000000        0.5770557217        0.3026960628
H                0.5000000000        0.5770406647        0.1973163664
H                0.5000000000        0.4229593053        0.8026836336
H                0.8270396141        0.7500000000        0.9473174209
H                0.1729603559        0.2500000000        0.0526825791
H                0.6729513410        0.2500000004        0.4473030848
H                0.3270486890        0.7499999996        0.5526969152
H                0.6729513410        0.7499999996        0.5526969152
H                0.3270486890        0.2500000004        0.4473030848
H                0.8270396141        0.2500000000        0.0526825791
H                0.1729603559        0.7500000000        0.9473174209
H                0.5000000000        0.9229593347        0.1973163666
H                0.5000000000        0.0770406953        0.8026836334
H                0.0000000000        0.0770557514        0.6973039369
H                0.0000000000        0.9229442786        0.3026960631



     Writing config-only to output data dir ./iceVIII/iceVIII.save/ :
     XML data file
     NEW-OLD atomic charge density approx. for the potential

     total cpu time spent up to now is      104.4 secs

     per-process dynamical memory:    20.3 Mb

     Self-consistent Calculation

     iteration #  1     ecut=    90.00 Ry     beta= 0.70
     Davidson diagonalization with overlap
     ethr =  1.00E-06,  avg # of iterations =  3.0

     Threshold (ethr) on eigenvalues was too large:
     Diagonalizing with lowered threshold

     Davidson diagonalization with overlap
     ethr =  6.04E-08,  avg # of iterations =  3.7

     total cpu time spent up to now is      109.0 secs

     total energy              =    -278.65119563 Ry
     estimated scf accuracy    <       0.00004934 Ry

     iteration #  2     ecut=    90.00 Ry     beta= 0.70
     Davidson diagonalization with overlap
     ethr =  7.71E-08,  avg # of iterations =  2.0

     total cpu time spent up to now is      111.0 secs

     total energy              =    -278.65120402 Ry
     estimated scf accuracy    <       0.00000423 Ry

     iteration #  3     ecut=    90.00 Ry     beta= 0.70
     Davidson diagonalization with overlap
     ethr =  6.61E-09,  avg # of iterations =  2.0

     total cpu time spent up to now is      113.0 secs

     total energy              =    -278.65120497 Ry
     estimated scf accuracy    <       0.00000046 Ry

     iteration #  4     ecut=    90.00 Ry     beta= 0.70
     Davidson diagonalization with overlap
     ethr =  7.21E-10,  avg # of iterations =  2.0

     total cpu time spent up to now is      114.7 secs

     total energy              =    -278.65120502 Ry
     estimated scf accuracy    <       0.00000002 Ry

     iteration #  5     ecut=    90.00 Ry     beta= 0.70
     Davidson diagonalization with overlap
     ethr =  2.94E-11,  avg # of iterations =  4.3

     total cpu time spent up to now is      117.2 secs

     total energy              =    -278.65120502 Ry
     estimated scf accuracy    <          3.4E-09 Ry

     iteration #  6     ecut=    90.00 Ry     beta= 0.70
     Davidson diagonalization with overlap
     ethr =  5.37E-12,  avg # of iterations =  2.6

     total cpu time spent up to now is      119.4 secs

     End of self-consistent calculation

     Number of k-points >= 100: set verbosity='high' to print the bands.

     highest occupied level (ev):     0.0546

!    total energy              =    -278.65120502 Ry
     estimated scf accuracy    <          1.9E-10 Ry

     The total energy is the sum of the following terms:
     one-electron contribution =    -115.17140327 Ry
     hartree contribution      =      86.64741292 Ry
     xc contribution           =     -70.98194649 Ry
     ewald contribution        =    -179.14526818 Ry

     convergence has been achieved in   6 iterations

     Forces acting on atoms (cartesian axes, Ry/au):

     atom    1 type  2   force =     0.00000000    0.00000000    0.00053337
     atom    2 type  2   force =     0.00000000   -0.00000000   -0.00053337
     atom    3 type  2   force =     0.00000000    0.00000001    0.00050257
     atom    4 type  2   force =     0.00000000   -0.00000001   -0.00050257
     atom    5 type  2   force =     0.00000000   -0.00000000    0.00053534
     atom    6 type  2   force =     0.00000000    0.00000000   -0.00053534
     atom    7 type  2   force =     0.00000000   -0.00000000    0.00051046
     atom    8 type  2   force =     0.00000000    0.00000000   -0.00051046
     atom    9 type  1   force =     0.00000000   -0.00019890    0.00156496
     atom   10 type  1   force =     0.00000000    0.00019890   -0.00156496
     atom   11 type  1   force =     0.00000000    0.00013095    0.00167466
     atom   12 type  1   force =     0.00000000   -0.00013095   -0.00167466
     atom   13 type  1   force =     0.00017895   -0.00000000    0.00162153
     atom   14 type  1   force =    -0.00017895    0.00000000   -0.00162153
     atom   15 type  1   force =    -0.00014493   -0.00000000    0.00162963
     atom   16 type  1   force =     0.00014493    0.00000000   -0.00162963
     atom   17 type  1   force =    -0.00014493    0.00000000   -0.00162963
     atom   18 type  1   force =     0.00014493   -0.00000000    0.00162963
     atom   19 type  1   force =     0.00017895    0.00000000   -0.00162153
     atom   20 type  1   force =    -0.00017895   -0.00000000    0.00162153
     atom   21 type  1   force =     0.00000000   -0.00013096    0.00167466
     atom   22 type  1   force =     0.00000000    0.00013096   -0.00167466
     atom   23 type  1   force =     0.00000000    0.00019890    0.00156496
     atom   24 type  1   force =     0.00000000   -0.00019890   -0.00156496

     Total force =     0.006690     Total SCF correction =     0.000013


     Computing stress (Cartesian axis) and pressure

          total   stress  (Ry/bohr**3)                   (kbar)     P=       64.73
   0.00043486   0.00000000   0.00000000           63.97        0.00        0.00
   0.00000000   0.00043435  -0.00000000            0.00       63.90       -0.00
   0.00000000  -0.00000000   0.00045093            0.00       -0.00       66.33

     Energy error            =      2.2E-04 Ry
     Gradient error          =      1.7E-03 Ry/Bohr

     number of scf cycles    =   6
     number of bfgs steps    =   5

     energy             old  =    -278.6509851108 Ry
     energy             new  =    -278.6512050247 Ry

     CASE: energy            _new < energy            _old

     new trust radius        =       0.0025655765 bohr
     new conv_thr            =       0.0000000017 Ry


ATOMIC_POSITIONS (crystal)
O                0.0000000000        0.2500000001        0.6074895551
O                0.0000000000        0.7499999999        0.3925104739
O                0.5000000000        0.7500000002        0.1075385394
O                0.5000000000        0.2499999998        0.8924614316
O                0.0000000000        0.7500000002        0.8575304192
O                0.0000000000        0.2499999998        0.1424696098
O                0.5000000000        0.2500000006        0.3575101314
O                0.5000000000        0.7499999994        0.6424898396
H                0.0000000000        0.4230815530        0.6974697982
H                0.0000000000        0.5769184170        0.3025302018
H                0.5000000000        0.5768926055        0.1974942101
H                0.5000000000        0.4231073645        0.8025057899
H                0.8268986815        0.7500000000        0.9474899238
H                0.1731012885        0.2500000000        0.0525100762
H                0.6730968409        0.2500000004        0.4474753232
H                0.3269031891        0.7499999996        0.5525246768
H                0.6730968409        0.7499999996        0.5525246768
H                0.3269031891        0.2500000004        0.4474753232
H                0.8268986815        0.2500000000        0.0525100762
H                0.1731012885        0.7500000000        0.9474899238
H                0.5000000000        0.9231073927        0.1974942097
H                0.5000000000        0.0768926373        0.8025057903
H                0.0000000000        0.0769184464        0.6974697981
H                0.0000000000        0.9230815836        0.3025302019



     Writing config-only to output data dir ./iceVIII/iceVIII.save/ :
     XML data file
     NEW-OLD atomic charge density approx. for the potential

     total cpu time spent up to now is      121.3 secs

     per-process dynamical memory:    20.3 Mb

     Self-consistent Calculation

     iteration #  1     ecut=    90.00 Ry     beta= 0.70
     Davidson diagonalization with overlap
     ethr =  1.00E-06,  avg # of iterations =  2.0

     Threshold (ethr) on eigenvalues was too large:
     Diagonalizing with lowered threshold

     Davidson diagonalization with overlap
     ethr =  6.53E-09,  avg # of iterations =  4.0

     total cpu time spent up to now is      126.1 secs

     total energy              =    -278.65125860 Ry
     estimated scf accuracy    <       0.00000698 Ry

     iteration #  2     ecut=    90.00 Ry     beta= 0.70
     Davidson diagonalization with overlap
     ethr =  1.09E-08,  avg # of iterations =  2.0

     total cpu time spent up to now is      128.0 secs

     total energy              =    -278.65125975 Ry
     estimated scf accuracy    <       0.00000066 Ry

     iteration #  3     ecut=    90.00 Ry     beta= 0.70
     Davidson diagonalization with overlap
     ethr =  1.03E-09,  avg # of iterations =  2.0

     total cpu time spent up to now is      130.1 secs

     total energy              =    -278.65125989 Ry
     estimated scf accuracy    <       0.00000007 Ry

     iteration #  4     ecut=    90.00 Ry     beta= 0.70
     Davidson diagonalization with overlap
     ethr =  1.11E-10,  avg # of iterations =  2.0

     total cpu time spent up to now is      131.8 secs

     total energy              =    -278.65125990 Ry
     estimated scf accuracy    <          3.0E-09 Ry

     iteration #  5     ecut=    90.00 Ry     beta= 0.70
     Davidson diagonalization with overlap
     ethr =  4.66E-12,  avg # of iterations =  3.6

     total cpu time spent up to now is      134.3 secs

     End of self-consistent calculation

     Number of k-points >= 100: set verbosity='high' to print the bands.

     highest occupied level (ev):     0.0569

!    total energy              =    -278.65125990 Ry
     estimated scf accuracy    <          4.1E-10 Ry

     The total energy is the sum of the following terms:
     one-electron contribution =    -115.09905433 Ry
     hartree contribution      =      86.61511712 Ry
     xc contribution           =     -70.97666678 Ry
     ewald contribution        =    -179.19065592 Ry

     convergence has been achieved in   5 iterations

     Forces acting on atoms (cartesian axes, Ry/au):

     atom    1 type  2   force =     0.00000000   -0.00000000    0.00075763
     atom    2 type  2   force =     0.00000000    0.00000000   -0.00075763
     atom    3 type  2   force =     0.00000000   -0.00000001    0.00089364
     atom    4 type  2   force =     0.00000000    0.00000001   -0.00089364
     atom    5 type  2   force =     0.00000000   -0.00000000    0.00081600
     atom    6 type  2   force =     0.00000000    0.00000000   -0.00081600
     atom    7 type  2   force =    -0.00000000   -0.00000000    0.00085296
     atom    8 type  2   force =    -0.00000000    0.00000000   -0.00085296
     atom    9 type  1   force =     0.00000000   -0.00080971    0.00136143
     atom   10 type  1   force =     0.00000000    0.00080971   -0.00136143
     atom   11 type  1   force =     0.00000000    0.00084109    0.00138677
     atom   12 type  1   force =     0.00000000   -0.00084109   -0.00138677
     atom   13 type  1   force =     0.00082535    0.00000000    0.00138718
     atom   14 type  1   force =    -0.00082535   -0.00000000   -0.00138718
     atom   15 type  1   force =    -0.00082495    0.00000000    0.00137136
     atom   16 type  1   force =     0.00082495   -0.00000000   -0.00137136
     atom   17 type  1   force =    -0.00082495   -0.00000000   -0.00137136
     atom   18 type  1   force =     0.00082495    0.00000000    0.00137136
     atom   19 type  1   force =     0.00082535   -0.00000000   -0.00138718
     atom   20 type  1   force =    -0.00082535    0.00000000    0.00138718
     atom   21 type  1   force =     0.00000000   -0.00084108    0.00138678
     atom   22 type  1   force =     0.00000000    0.00084108   -0.00138678
     atom   23 type  1   force =     0.00000000    0.00080971    0.00136142
     atom   24 type  1   force =     0.00000000   -0.00080971   -0.00136142

     Total force =     0.006838     Total SCF correction =     0.000009


     Computing stress (Cartesian axis) and pressure

          total   stress  (Ry/bohr**3)                   (kbar)     P=       63.58
   0.00042616   0.00000000   0.00000000           62.69        0.00        0.00
   0.00000000   0.00042567   0.00000000            0.00       62.62        0.00
   0.00000000   0.00000000   0.00044470            0.00        0.00       65.42

     Energy error            =      5.5E-05 Ry
     Gradient error          =      1.4E-03 Ry/Bohr

     number of scf cycles    =   7
     number of bfgs steps    =   6

     energy             old  =    -278.6512050247 Ry
     energy             new  =    -278.6512598991 Ry

     CASE: energy            _new < energy            _old

     new trust radius        =       0.0028221341 bohr
     new conv_thr            =       0.0000000010 Ry


ATOMIC_POSITIONS (crystal)
O                0.0000000000        0.2500000000        0.6076942857
O                0.0000000000        0.7500000000        0.3923057433
O                0.5000000000        0.7499999997        0.1077550765
O                0.5000000000        0.2500000003        0.8922448945
O                0.0000000000        0.7500000001        0.8577416790
O                0.0000000000        0.2499999999        0.1422583500
O                0.5000000000        0.2500000004        0.3577224808
O                0.5000000000        0.7499999996        0.6422774902
H                0.0000000000        0.4231520502        0.6976802095
H                0.0000000000        0.5768479198        0.3023197905
H                0.5000000000        0.5768183723        0.1977141502
H                0.5000000000        0.4231815977        0.8022858498
H                0.8268272965        0.7500000000        0.9477065982
H                0.1731726735        0.2500000000        0.0522934018
H                0.6731709330        0.2500000004        0.4476903100
H                0.3268290970        0.7499999996        0.5523096900
H                0.6731709330        0.7499999996        0.5523096900
H                0.3268290970        0.2500000004        0.4476903100
H                0.8268272965        0.2500000000        0.0522934018
H                0.1731726735        0.7500000000        0.9477065982
H                0.5000000000        0.9231816265        0.1977141501
H                0.5000000000        0.0768184035        0.8022858499
H                0.0000000000        0.0768479493        0.6976802094
H                0.0000000000        0.9231520807        0.3023197906



     Writing config-only to output data dir ./iceVIII/iceVIII.save/ :
     XML data file
     NEW-OLD atomic charge density approx. for the potential

     total cpu time spent up to now is      136.1 secs

     per-process dynamical memory:    20.3 Mb

     Self-consistent Calculation

     iteration #  1     ecut=    90.00 Ry     beta= 0.70
     Davidson diagonalization with overlap
     ethr =  1.00E-06,  avg # of iterations =  2.0

     Threshold (ethr) on eigenvalues was too large:
     Diagonalizing with lowered threshold

     Davidson diagonalization with overlap
     ethr =  7.53E-09,  avg # of iterations =  4.0

     total cpu time spent up to now is      141.0 secs

     total energy              =    -278.65132305 Ry
     estimated scf accuracy    <       0.00000792 Ry

     iteration #  2     ecut=    90.00 Ry     beta= 0.70
     Davidson diagonalization with overlap
     ethr =  1.24E-08,  avg # of iterations =  2.0

     total cpu time spent up to now is      142.8 secs

     total energy              =    -278.65132420 Ry
     estimated scf accuracy    <       0.00000057 Ry

     iteration #  3     ecut=    90.00 Ry     beta= 0.70
     Davidson diagonalization with overlap
     ethr =  8.88E-10,  avg # of iterations =  2.0

     total cpu time spent up to now is      144.9 secs

     total energy              =    -278.65132432 Ry
     estimated scf accuracy    <       0.00000008 Ry

     iteration #  4     ecut=    90.00 Ry     beta= 0.70
     Davidson diagonalization with overlap
     ethr =  1.31E-10,  avg # of iterations =  2.0

     total cpu time spent up to now is      146.9 secs

     total energy              =    -278.65132434 Ry
     estimated scf accuracy    <          3.8E-09 Ry

     iteration #  5     ecut=    90.00 Ry     beta= 0.70
     Davidson diagonalization with overlap
     ethr =  5.98E-12,  avg # of iterations =  3.1

     total cpu time spent up to now is      149.1 secs

     End of self-consistent calculation

     Number of k-points >= 100: set verbosity='high' to print the bands.

     highest occupied level (ev):     0.0588

!    total energy              =    -278.65132434 Ry
     estimated scf accuracy    <          4.3E-10 Ry

     The total energy is the sum of the following terms:
     one-electron contribution =    -115.04139212 Ry
     hartree contribution      =      86.58849296 Ry
     xc contribution           =     -70.97319375 Ry
     ewald contribution        =    -179.22523142 Ry

     convergence has been achieved in   5 iterations

     Forces acting on atoms (cartesian axes, Ry/au):

     atom    1 type  2   force =     0.00000000   -0.00000000    0.00094898
     atom    2 type  2   force =     0.00000000    0.00000000   -0.00094898
     atom    3 type  2   force =     0.00000000   -0.00000000    0.00107965
     atom    4 type  2   force =     0.00000000    0.00000000   -0.00107965
     atom    5 type  2   force =     0.00000000   -0.00000000    0.00100417
     atom    6 type  2   force =     0.00000000    0.00000000   -0.00100417
     atom    7 type  2   force =     0.00000000   -0.00000000    0.00104148
     atom    8 type  2   force =     0.00000000    0.00000000   -0.00104148
     atom    9 type  1   force =     0.00000000   -0.00117318    0.00115800
     atom   10 type  1   force =     0.00000000    0.00117318   -0.00115800
     atom   11 type  1   force =     0.00000000    0.00121365    0.00118254
     atom   12 type  1   force =     0.00000000   -0.00121365   -0.00118254
     atom   13 type  1   force =     0.00119179    0.00000000    0.00118232
     atom   14 type  1   force =    -0.00119179   -0.00000000   -0.00118232
     atom   15 type  1   force =    -0.00119553   -0.00000000    0.00117110
     atom   16 type  1   force =     0.00119553    0.00000000   -0.00117110
     atom   17 type  1   force =    -0.00119553    0.00000000   -0.00117110
     atom   18 type  1   force =     0.00119553   -0.00000000    0.00117110
     atom   19 type  1   force =     0.00119179   -0.00000000   -0.00118232
     atom   20 type  1   force =    -0.00119179    0.00000000    0.00118232
     atom   21 type  1   force =     0.00000000   -0.00121364    0.00118254
     atom   22 type  1   force =     0.00000000    0.00121364   -0.00118254
     atom   23 type  1   force =     0.00000000    0.00117318    0.00115799
     atom   24 type  1   force =     0.00000000   -0.00117318   -0.00115799

     Total force =     0.007290     Total SCF correction =     0.000020


     Computing stress (Cartesian axis) and pressure

          total   stress  (Ry/bohr**3)                   (kbar)     P=       62.79
   0.00042063   0.00000000   0.00000000           61.88        0.00        0.00
   0.00000000   0.00042013   0.00000000            0.00       61.80        0.00
   0.00000000   0.00000000   0.00043983            0.00        0.00       64.70

     Energy error            =      6.4E-05 Ry
     Gradient error          =      1.2E-03 Ry/Bohr

     number of scf cycles    =   8
     number of bfgs steps    =   7

     energy             old  =    -278.6512598991 Ry
     energy             new  =    -278.6513243408 Ry

     CASE: energy            _new < energy            _old

     new trust radius        =       0.0042332011 bohr
     new conv_thr            =       0.0000000010 Ry


ATOMIC_POSITIONS (crystal)
O                0.0000000000        0.2500000003        0.6079952659
O                0.0000000000        0.7499999997        0.3920047631
O                0.5000000000        0.7500000010        0.1080703606
O                0.5000000000        0.2499999990        0.8919296104
O                0.0000000000        0.7500000001        0.8580511920
O                0.0000000000        0.2499999999        0.1419488370
O                0.5000000000        0.2500000001        0.3580326687
O                0.5000000000        0.7499999999        0.6419673023
H                0.0000000000        0.4231943914        0.6980008307
H                0.0000000000        0.5768055786        0.3019991693
H                0.5000000000        0.5767689777        0.1980512394
H                0.5000000000        0.4232309923        0.8019487606
H                0.8267831982        0.7500000000        0.9480374088
H                0.1732167718        0.2500000000        0.0519625912
H                0.6732196897        0.2500000004        0.4480196040
H                0.3267803403        0.7499999996        0.5519803960
H                0.6732196897        0.7499999996        0.5519803960
H                0.3267803403        0.2500000004        0.4480196040
H                0.8267831982        0.2500000000        0.0519625912
H                0.1732167718        0.7500000000        0.9480374088
H                0.5000000000        0.9232310202        0.1980512388
H                0.5000000000        0.0767690098        0.8019487612
H                0.0000000000        0.0768056079        0.6980008307
H                0.0000000000        0.9231944221        0.3019991693



     Writing config-only to output data dir ./iceVIII/iceVIII.save/ :
     XML data file
     NEW-OLD atomic charge density approx. for the potential

     total cpu time spent up to now is      150.9 secs

     per-process dynamical memory:    20.6 Mb

     Self-consistent Calculation

     iteration #  1     ecut=    90.00 Ry     beta= 0.70
     Davidson diagonalization with overlap
     ethr =  1.00E-06,  avg # of iterations =  3.0

     Threshold (ethr) on eigenvalues was too large:
     Diagonalizing with lowered threshold

     Davidson diagonalization with overlap
     ethr =  1.87E-08,  avg # of iterations =  3.6

     total cpu time spent up to now is      155.7 secs

     total energy              =    -278.65141683 Ry
     estimated scf accuracy    <       0.00001649 Ry

     iteration #  2     ecut=    90.00 Ry     beta= 0.70
     Davidson diagonalization with overlap
     ethr =  2.58E-08,  avg # of iterations =  2.0

     total cpu time spent up to now is      157.5 secs

     total energy              =    -278.65141914 Ry
     estimated scf accuracy    <       0.00000091 Ry

     iteration #  3     ecut=    90.00 Ry     beta= 0.70
     Davidson diagonalization with overlap
     ethr =  1.43E-09,  avg # of iterations =  2.4

     total cpu time spent up to now is      159.5 secs

     total energy              =    -278.65141930 Ry
     estimated scf accuracy    <       0.00000007 Ry

     iteration #  4     ecut=    90.00 Ry     beta= 0.70
     Davidson diagonalization with overlap
     ethr =  1.02E-10,  avg # of iterations =  2.9

     total cpu time spent up to now is      161.7 secs

     total energy              =    -278.65141931 Ry
     estimated scf accuracy    <          8.2E-09 Ry

     iteration #  5     ecut=    90.00 Ry     beta= 0.70
     Davidson diagonalization with overlap
     ethr =  1.28E-11,  avg # of iterations =  2.7

     total cpu time spent up to now is      163.8 secs

     End of self-consistent calculation

     Number of k-points >= 100: set verbosity='high' to print the bands.

     highest occupied level (ev):     0.0612

!    total energy              =    -278.65141932 Ry
     estimated scf accuracy    <          1.9E-10 Ry

     The total energy is the sum of the following terms:
     one-electron contribution =    -114.97543678 Ry
     hartree contribution      =      86.55718227 Ry
     xc contribution           =     -70.97000655 Ry
     ewald contribution        =    -179.26315825 Ry

     convergence has been achieved in   5 iterations

     Forces acting on atoms (cartesian axes, Ry/au):

     atom    1 type  2   force =     0.00000000   -0.00000001    0.00105291
     atom    2 type  2   force =     0.00000000    0.00000001   -0.00105291
     atom    3 type  2   force =     0.00000000   -0.00000002    0.00123582
     atom    4 type  2   force =     0.00000000    0.00000002   -0.00123582
     atom    5 type  2   force =     0.00000000   -0.00000000    0.00112545
     atom    6 type  2   force =     0.00000000    0.00000000   -0.00112545
     atom    7 type  2   force =     0.00000000    0.00000000    0.00118398
     atom    8 type  2   force =     0.00000000   -0.00000000   -0.00118398
     atom    9 type  1   force =     0.00000000   -0.00142044    0.00094555
     atom   10 type  1   force =     0.00000000    0.00142044   -0.00094555
     atom   11 type  1   force =     0.00000000    0.00150388    0.00093814
     atom   12 type  1   force =     0.00000000   -0.00150388   -0.00093814
     atom   13 type  1   force =     0.00145375    0.00000000    0.00095675
     atom   14 type  1   force =    -0.00145375   -0.00000000   -0.00095675
     atom   15 type  1   force =    -0.00147425   -0.00000000    0.00094145
     atom   16 type  1   force =     0.00147425    0.00000000   -0.00094145
     atom   17 type  1   force =    -0.00147425    0.00000000   -0.00094145
     atom   18 type  1   force =     0.00147425   -0.00000000    0.00094145
     atom   19 type  1   force =     0.00145375   -0.00000000   -0.00095675
     atom   20 type  1   force =    -0.00145375    0.00000000    0.00095675
     atom   21 type  1   force =     0.00000000   -0.00150386    0.00093815
     atom   22 type  1   force =     0.00000000    0.00150386   -0.00093815
     atom   23 type  1   force =     0.00000000    0.00142045    0.00094555
     atom   24 type  1   force =     0.00000000   -0.00142045   -0.00094555

     Total force =     0.007693     Total SCF correction =     0.000016


     Computing stress (Cartesian axis) and pressure

          total   stress  (Ry/bohr**3)                   (kbar)     P=       62.05
   0.00041571   0.00000000   0.00000000           61.15        0.00        0.00
   0.00000000   0.00041522   0.00000000            0.00       61.08        0.00
   0.00000000   0.00000000   0.00043459            0.00        0.00       63.93

     Energy error            =      9.5E-05 Ry
     Gradient error          =      1.5E-03 Ry/Bohr

     number of scf cycles    =   9
     number of bfgs steps    =   8

     energy             old  =    -278.6513243408 Ry
     energy             new  =    -278.6514193168 Ry

     CASE: energy            _new < energy            _old

     new trust radius        =       0.0063498017 bohr
     new conv_thr            =       0.0000000010 Ry


ATOMIC_POSITIONS (crystal)
O                0.0000000000        0.2499999999        0.6084373371
O                0.0000000000        0.7500000001        0.3915626919
O                0.5000000000        0.7499999998        0.1085385117
O                0.5000000000        0.2500000002        0.8914614593
O                0.0000000000        0.7500000000        0.8585076793
O                0.0000000000        0.2500000000        0.1414923497
O                0.5000000000        0.2499999998        0.3584920928
O                0.5000000000        0.7500000002        0.6415078782
H                0.0000000000        0.4232055008        0.6984861288
H                0.0000000000        0.5767944692        0.3015138712
H                0.5000000000        0.5767526064        0.1985593490
H                0.5000000000        0.4232473636        0.8014406510
H                0.8267713856        0.7500000000        0.9485373031
H                0.1732285844        0.2500000000        0.0514626969
H                0.6732366123        0.2500000004        0.4485170753
H                0.3267634177        0.7499999996        0.5514829247
H                0.6732366123        0.7499999996        0.5514829247
H                0.3267634177        0.2500000004        0.4485170753
H                0.8267713856        0.2500000000        0.0514626969
H                0.1732285844        0.7500000000        0.9485373031
H                0.5000000000        0.9232473930        0.1985593491
H                0.5000000000        0.0767526370        0.8014406509
H                0.0000000000        0.0767944988        0.6984861287
H                0.0000000000        0.9232055312        0.3015138713



     Writing config-only to output data dir ./iceVIII/iceVIII.save/ :
     XML data file
     NEW-OLD atomic charge density approx. for the potential

     total cpu time spent up to now is      165.7 secs

     per-process dynamical memory:    20.6 Mb

     Self-consistent Calculation

     iteration #  1     ecut=    90.00 Ry     beta= 0.70
     Davidson diagonalization with overlap
     ethr =  1.00E-06,  avg # of iterations =  3.0

     Threshold (ethr) on eigenvalues was too large:
     Diagonalizing with lowered threshold

     Davidson diagonalization with overlap
     ethr =  4.81E-08,  avg # of iterations =  2.6

     total cpu time spent up to now is      170.3 secs

     total energy              =    -278.65154533 Ry
     estimated scf accuracy    <       0.00003644 Ry

     iteration #  2     ecut=    90.00 Ry     beta= 0.70
     Davidson diagonalization with overlap
     ethr =  5.69E-08,  avg # of iterations =  2.0

     total cpu time spent up to now is      172.1 secs

     total energy              =    -278.65155037 Ry
     estimated scf accuracy    <       0.00000199 Ry

     iteration #  3     ecut=    90.00 Ry     beta= 0.70
     Davidson diagonalization with overlap
     ethr =  3.12E-09,  avg # of iterations =  2.5

     total cpu time spent up to now is      174.1 secs

     total energy              =    -278.65155072 Ry
     estimated scf accuracy    <       0.00000016 Ry

     iteration #  4     ecut=    90.00 Ry     beta= 0.70
     Davidson diagonalization with overlap
     ethr =  2.51E-10,  avg # of iterations =  3.0

     total cpu time spent up to now is      176.4 secs

     total energy              =    -278.65155076 Ry
     estimated scf accuracy    <       0.00000004 Ry

     iteration #  5     ecut=    90.00 Ry     beta= 0.70
     Davidson diagonalization with overlap
     ethr =  5.69E-11,  avg # of iterations =  2.1

     total cpu time spent up to now is      178.5 secs

     End of self-consistent calculation

     Number of k-points >= 100: set verbosity='high' to print the bands.

     highest occupied level (ev):     0.0642

!    total energy              =    -278.65155077 Ry
     estimated scf accuracy    <          8.4E-10 Ry

     The total energy is the sum of the following terms:
     one-electron contribution =    -114.89672979 Ry
     hartree contribution      =      86.51889447 Ry
     xc contribution           =     -70.96713767 Ry
     ewald contribution        =    -179.30657777 Ry

     convergence has been achieved in   5 iterations

     Forces acting on atoms (cartesian axes, Ry/au):

     atom    1 type  2   force =     0.00000000    0.00000000    0.00110476
     atom    2 type  2   force =     0.00000000   -0.00000000   -0.00110476
     atom    3 type  2   force =     0.00000000    0.00000000    0.00127106
     atom    4 type  2   force =     0.00000000   -0.00000000   -0.00127106
     atom    5 type  2   force =     0.00000000    0.00000000    0.00117010
     atom    6 type  2   force =     0.00000000   -0.00000000   -0.00117010
     atom    7 type  2   force =     0.00000000    0.00000000    0.00122717
     atom    8 type  2   force =     0.00000000   -0.00000000   -0.00122717
     atom    9 type  1   force =     0.00000000   -0.00156185    0.00067991
     atom   10 type  1   force =     0.00000000    0.00156185   -0.00067991
     atom   11 type  1   force =     0.00000000    0.00165599    0.00067159
     atom   12 type  1   force =     0.00000000   -0.00165599   -0.00067159
     atom   13 type  1   force =     0.00159840   -0.00000000    0.00068882
     atom   14 type  1   force =    -0.00159840    0.00000000   -0.00068882
     atom   15 type  1   force =    -0.00162492   -0.00000000    0.00068176
     atom   16 type  1   force =     0.00162492    0.00000000   -0.00068176
     atom   17 type  1   force =    -0.00162492    0.00000000   -0.00068176
     atom   18 type  1   force =     0.00162492   -0.00000000    0.00068176
     atom   19 type  1   force =     0.00159840    0.00000000   -0.00068882
     atom   20 type  1   force =    -0.00159840   -0.00000000    0.00068882
     atom   21 type  1   force =     0.00000000   -0.00165599    0.00067160
     atom   22 type  1   force =     0.00000000    0.00165599   -0.00067160
     atom   23 type  1   force =     0.00000000    0.00156185    0.00067991
     atom   24 type  1   force =     0.00000000   -0.00156185   -0.00067991

     Total force =     0.007768     Total SCF correction =     0.000047


     Computing stress (Cartesian axis) and pressure

          total   stress  (Ry/bohr**3)                   (kbar)     P=       61.38
[...]
     atom   17 type  1   force =    -0.00159308    0.00000000   -0.00036497
     atom   18 type  1   force =     0.00159308   -0.00000000    0.00036497
     atom   19 type  1   force =     0.00155316   -0.00000000   -0.00036787
     atom   20 type  1   force =    -0.00155316    0.00000000    0.00036787
     atom   21 type  1   force =     0.00000000   -0.00162987    0.00033991
     atom   22 type  1   force =     0.00000000    0.00162987   -0.00033991
     atom   23 type  1   force =     0.00000000    0.00150679    0.00037018
     atom   24 type  1   force =     0.00000000   -0.00150679   -0.00037018

     Total force =     0.007165     Total SCF correction =     0.000036


     Computing stress (Cartesian axis) and pressure

          total   stress  (Ry/bohr**3)                   (kbar)     P=       60.93
   0.00040974   0.00000000   0.00000000           60.27        0.00        0.00
   0.00000000   0.00040918   0.00000000            0.00       60.19        0.00
   0.00000000   0.00000000   0.00042361            0.00        0.00       62.32

     Energy error            =      1.6E-04 Ry
     Gradient error          =      1.6E-03 Ry/Bohr

     number of scf cycles    =  11
     number of bfgs steps    =  10

     energy             old  =    -278.6515507710 Ry
     energy             new  =    -278.6517135274 Ry

     CASE: energy            _new < energy            _old

     new trust radius        =       0.0142870539 bohr
     new conv_thr            =       0.0000000016 Ry


ATOMIC_POSITIONS (crystal)
O                0.0000000000        0.2499999992        0.6100527871
O                0.0000000000        0.7500000008        0.3899472419
O                0.5000000000        0.7499999974        0.1102472440
O                0.5000000000        0.2500000026        0.8897527270
O                0.0000000000        0.7499999997        0.8601758100
O                0.0000000000        0.2500000003        0.1398242190
O                0.5000000000        0.2499999989        0.3601714560
O                0.5000000000        0.7500000011        0.6398285150
H                0.0000000000        0.4230331309        0.7003001041
H                0.0000000000        0.5769668391        0.2996998959
H                0.5000000000        0.5769165203        0.2004613122
H                0.5000000000        0.4230834497        0.7995386878
H                0.8269454850        0.7500000001        0.9504068019
H                0.1730544850        0.2499999999        0.0495931981
H                0.6730772984        0.2500000003        0.4503820829
H                0.3269227316        0.7499999997        0.5496179171
H                0.6730772984        0.7499999997        0.5496179171
H                0.3269227316        0.2500000003        0.4503820829
H                0.8269454850        0.2499999999        0.0495931981
H                0.1730544850        0.7500000001        0.9504068019
H                0.5000000000        0.9230834826        0.2004613138
H                0.5000000000        0.0769165474        0.7995386862
H                0.0000000000        0.0769668696        0.7003001037
H                0.0000000000        0.9230331604        0.2996998963



     Writing config-only to output data dir ./iceVIII/iceVIII.save/ :
     XML data file
     NEW-OLD atomic charge density approx. for the potential

     total cpu time spent up to now is      195.4 secs

     per-process dynamical memory:    20.6 Mb

     Self-consistent Calculation

     iteration #  1     ecut=    90.00 Ry     beta= 0.70
     Davidson diagonalization with overlap
     ethr =  1.00E-06,  avg # of iterations =  4.3

     total cpu time spent up to now is      198.6 secs

     total energy              =    -278.65183872 Ry
     estimated scf accuracy    <       0.00016565 Ry

     iteration #  2     ecut=    90.00 Ry     beta= 0.70
     Davidson diagonalization with overlap
     ethr =  2.59E-07,  avg # of iterations =  2.2

     total cpu time spent up to now is      200.5 secs

     total energy              =    -278.65186586 Ry
     estimated scf accuracy    <       0.00001104 Ry

     iteration #  3     ecut=    90.00 Ry     beta= 0.70
     Davidson diagonalization with overlap
     ethr =  1.72E-08,  avg # of iterations =  3.6

     total cpu time spent up to now is      202.7 secs

     total energy              =    -278.65186886 Ry
     estimated scf accuracy    <       0.00000074 Ry

     iteration #  4     ecut=    90.00 Ry     beta= 0.70
     Davidson diagonalization with overlap
     ethr =  1.15E-09,  avg # of iterations =  3.1

     total cpu time spent up to now is      205.0 secs

     total energy              =    -278.65186907 Ry
     estimated scf accuracy    <       0.00000012 Ry

     iteration #  5     ecut=    90.00 Ry     beta= 0.70
     Davidson diagonalization with overlap
     ethr =  1.85E-10,  avg # of iterations =  3.1

     total cpu time spent up to now is      207.3 secs

     total energy              =    -278.65186910 Ry
     estimated scf accuracy    <       0.00000001 Ry

     iteration #  6     ecut=    90.00 Ry     beta= 0.70
     Davidson diagonalization with overlap
     ethr =  1.75E-11,  avg # of iterations =  2.5

     total cpu time spent up to now is      209.4 secs

     End of self-consistent calculation

     Number of k-points >= 100: set verbosity='high' to print the bands.

     highest occupied level (ev):     0.0739

!    total energy              =    -278.65186910 Ry
     estimated scf accuracy    <          1.1E-09 Ry

     The total energy is the sum of the following terms:
     one-electron contribution =    -114.69911653 Ry
     hartree contribution      =      86.41946970 Ry
     xc contribution           =     -70.96456702 Ry
     ewald contribution        =    -179.40765525 Ry

     convergence has been achieved in   6 iterations

     Forces acting on atoms (cartesian axes, Ry/au):

     atom    1 type  2   force =     0.00000000    0.00000001    0.00074870
     atom    2 type  2   force =     0.00000000   -0.00000001   -0.00074870
     atom    3 type  2   force =     0.00000000    0.00000005    0.00081433
     atom    4 type  2   force =     0.00000000   -0.00000005   -0.00081433
     atom    5 type  2   force =     0.00000000    0.00000000    0.00076510
     atom    6 type  2   force =     0.00000000   -0.00000000   -0.00076510
     atom    7 type  2   force =     0.00000000    0.00000000    0.00079871
     atom    8 type  2   force =     0.00000000   -0.00000000   -0.00079871
     atom    9 type  1   force =     0.00000000   -0.00110822   -0.00001339
     atom   10 type  1   force =     0.00000000    0.00110822    0.00001339
     atom   11 type  1   force =     0.00000000    0.00121795   -0.00003571
     atom   12 type  1   force =     0.00000000   -0.00121795    0.00003571
     atom   13 type  1   force =     0.00114811   -0.00000000   -0.00001678
     atom   14 type  1   force =    -0.00114811    0.00000000    0.00001678
     atom   15 type  1   force =    -0.00118783   -0.00000000   -0.00000397
     atom   16 type  1   force =     0.00118783    0.00000000    0.00000397
     atom   17 type  1   force =    -0.00118783    0.00000000    0.00000397
     atom   18 type  1   force =     0.00118783   -0.00000000   -0.00000397
     atom   19 type  1   force =     0.00114811    0.00000000    0.00001678
     atom   20 type  1   force =    -0.00114811   -0.00000000   -0.00001678
     atom   21 type  1   force =     0.00000000   -0.00121799   -0.00003574
     atom   22 type  1   force =     0.00000000    0.00121799    0.00003574
     atom   23 type  1   force =     0.00000000    0.00110821   -0.00001338
     atom   24 type  1   force =     0.00000000   -0.00110821    0.00001338

     Total force =     0.005164     Total SCF correction =     0.000114


     Computing stress (Cartesian axis) and pressure

          total   stress  (Ry/bohr**3)                   (kbar)     P=       60.86
   0.00041145   0.00000000   0.00000000           60.53        0.00        0.00
   0.00000000   0.00041084  -0.00000000            0.00       60.44       -0.00
   0.00000000  -0.00000000   0.00041885            0.00       -0.00       61.61

     Energy error            =      1.6E-04 Ry
     Gradient error          =      1.2E-03 Ry/Bohr

     number of scf cycles    =  12
     number of bfgs steps    =  11

     energy             old  =    -278.6517135274 Ry
     energy             new  =    -278.6518691001 Ry

     CASE: energy            _new < energy            _old

     new trust radius        =       0.0105843984 bohr
     new conv_thr            =       0.0000000012 Ry


ATOMIC_POSITIONS (crystal)
O                0.0000000000        0.2500000019        0.6107537875
O                0.0000000000        0.7499999981        0.3892462415
O                0.5000000000        0.7500000074        0.1109839026
O                0.5000000000        0.2499999926        0.8890160684
O                0.0000000000        0.7499999997        0.8608968336
O                0.0000000000        0.2500000003        0.1391031954
O                0.5000000000        0.2499999985        0.3608971383
O                0.5000000000        0.7500000015        0.6391028327
H                0.0000000000        0.4228631591        0.7010988409
H                0.0000000000        0.5771368109        0.2989011591
H                0.5000000000        0.5770921647        0.2012996857
H                0.5000000000        0.4229078053        0.7987003143
H                0.8271196713        0.7500000000        0.9512304382
H                0.1728802987        0.2500000000        0.0487695618
H                0.6729058865        0.2500000001        0.4512067914
H                0.3270941435        0.7499999999        0.5487932086
H                0.6729058865        0.7499999999        0.5487932086
H                0.3270941435        0.2500000001        0.4512067914
H                0.8271196713        0.2500000000        0.0487695618
H                0.1728802987        0.7500000000        0.9512304382
H                0.5000000000        0.9229078295        0.2012996830
H                0.5000000000        0.0770922005        0.7987003170
H                0.0000000000        0.0771368391        0.7010988417
H                0.0000000000        0.9228631909        0.2989011583



     Writing config-only to output data dir ./iceVIII/iceVIII.save/ :
     XML data file
     NEW-OLD atomic charge density approx. for the potential

     total cpu time spent up to now is      211.2 secs

     per-process dynamical memory:    20.6 Mb

     Self-consistent Calculation

     iteration #  1     ecut=    90.00 Ry     beta= 0.70
     Davidson diagonalization with overlap
     ethr =  1.00E-06,  avg # of iterations =  4.0

     total cpu time spent up to now is      214.1 secs

     total energy              =    -278.65189248 Ry
     estimated scf accuracy    <       0.00008836 Ry

     iteration #  2     ecut=    90.00 Ry     beta= 0.70
     Davidson diagonalization with overlap
     ethr =  1.38E-07,  avg # of iterations =  2.1

     total cpu time spent up to now is      216.1 secs

     total energy              =    -278.65190907 Ry
     estimated scf accuracy    <       0.00000871 Ry

     iteration #  3     ecut=    90.00 Ry     beta= 0.70
     Davidson diagonalization with overlap
     ethr =  1.36E-08,  avg # of iterations =  2.6

     total cpu time spent up to now is      218.2 secs

     total energy              =    -278.65191114 Ry
     estimated scf accuracy    <       0.00000130 Ry

     iteration #  4     ecut=    90.00 Ry     beta= 0.70
     Davidson diagonalization with overlap
     ethr =  2.04E-09,  avg # of iterations =  2.0

     total cpu time spent up to now is      220.2 secs

     total energy              =    -278.65191141 Ry
     estimated scf accuracy    <       0.00000007 Ry

     iteration #  5     ecut=    90.00 Ry     beta= 0.70
     Davidson diagonalization with overlap
     ethr =  1.14E-10,  avg # of iterations =  3.2

     total cpu time spent up to now is      222.4 secs

     total energy              =    -278.65191142 Ry
     estimated scf accuracy    <       0.00000001 Ry

     iteration #  6     ecut=    90.00 Ry     beta= 0.70
     Davidson diagonalization with overlap
     ethr =  2.27E-11,  avg # of iterations =  2.4

     total cpu time spent up to now is      224.5 secs

     End of self-consistent calculation

     Number of k-points >= 100: set verbosity='high' to print the bands.

     highest occupied level (ev):     0.0774

!    total energy              =    -278.65191143 Ry
     estimated scf accuracy    <          1.8E-10 Ry

     The total energy is the sum of the following terms:
     one-electron contribution =    -114.65721145 Ry
     hartree contribution      =      86.39541647 Ry
     xc contribution           =     -70.96706423 Ry
     ewald contribution        =    -179.42305222 Ry

     convergence has been achieved in   6 iterations

     Forces acting on atoms (cartesian axes, Ry/au):

     atom    1 type  2   force =     0.00000000   -0.00000003    0.00027494
     atom    2 type  2   force =     0.00000000    0.00000003   -0.00027494
     atom    3 type  2   force =    -0.00000000   -0.00000012    0.00030891
     atom    4 type  2   force =    -0.00000000    0.00000012   -0.00030891
     atom    5 type  2   force =     0.00000000    0.00000000    0.00028636
     atom    6 type  2   force =     0.00000000   -0.00000000   -0.00028636
     atom    7 type  2   force =     0.00000000    0.00000001    0.00030869
     atom    8 type  2   force =     0.00000000   -0.00000001   -0.00030869
     atom    9 type  1   force =     0.00000000   -0.00045233   -0.00015869
     atom   10 type  1   force =     0.00000000    0.00045233    0.00015869
     atom   11 type  1   force =     0.00000000    0.00054243   -0.00019259
     atom   12 type  1   force =     0.00000000   -0.00054243    0.00019259
     atom   13 type  1   force =     0.00048954    0.00000000   -0.00017747
     atom   14 type  1   force =    -0.00048954   -0.00000000    0.00017747
     atom   15 type  1   force =    -0.00052536    0.00000000   -0.00015986
     atom   16 type  1   force =     0.00052536   -0.00000000    0.00015986
     atom   17 type  1   force =    -0.00052536   -0.00000000    0.00015986
     atom   18 type  1   force =     0.00052536    0.00000000   -0.00015986
     atom   19 type  1   force =     0.00048954   -0.00000000    0.00017747
     atom   20 type  1   force =    -0.00048954    0.00000000   -0.00017747
     atom   21 type  1   force =     0.00000000   -0.00054233   -0.00019251
     atom   22 type  1   force =     0.00000000    0.00054233    0.00019251
     atom   23 type  1   force =     0.00000000    0.00045236   -0.00015871
     atom   24 type  1   force =     0.00000000   -0.00045236    0.00015871

     Total force =     0.002287     Total SCF correction =     0.000005


     Computing stress (Cartesian axis) and pressure

          total   stress  (Ry/bohr**3)                   (kbar)     P=       61.41
   0.00041717   0.00000000   0.00000000           61.37        0.00        0.00
   0.00000000   0.00041657   0.00000000            0.00       61.28        0.00
   0.00000000   0.00000000   0.00041859            0.00        0.00       61.58

     Energy error            =      4.2E-05 Ry
     Gradient error          =      5.4E-04 Ry/Bohr

     bfgs converged in  13 scf cycles and  12 bfgs steps
     (criteria: energy <  1.0E-04 Ry, force <  1.0E-03 Ry/Bohr)

     End of BFGS Geometry Optimization

     Final energy             =    -278.6519114278 Ry

     File ./iceVIII/iceVIII.bfgs deleted, as requested
Begin final coordinates

ATOMIC_POSITIONS (crystal)
O                0.0000000000        0.2500000019        0.6107537875
O                0.0000000000        0.7499999981        0.3892462415
O                0.5000000000        0.7500000074        0.1109839026
O                0.5000000000        0.2499999926        0.8890160684
O                0.0000000000        0.7499999997        0.8608968336
O                0.0000000000        0.2500000003        0.1391031954
O                0.5000000000        0.2499999985        0.3608971383
O                0.5000000000        0.7500000015        0.6391028327
H                0.0000000000        0.4228631591        0.7010988409
H                0.0000000000        0.5771368109        0.2989011591
H                0.5000000000        0.5770921647        0.2012996857
H                0.5000000000        0.4229078053        0.7987003143
H                0.8271196713        0.7500000000        0.9512304382
H                0.1728802987        0.2500000000        0.0487695618
H                0.6729058865        0.2500000001        0.4512067914
H                0.3270941435        0.7499999999        0.5487932086
H                0.6729058865        0.7499999999        0.5487932086
H                0.3270941435        0.2500000001        0.4512067914
H                0.8271196713        0.2500000000        0.0487695618
H                0.1728802987        0.7500000000        0.9512304382
H                0.5000000000        0.9229078295        0.2012996830
H                0.5000000000        0.0770922005        0.7987003170
H                0.0000000000        0.0771368391        0.7010988417
H                0.0000000000        0.9228631909        0.2989011583
End final coordinates



     Writing all to output data dir ./iceVIII/iceVIII.save/ :
     XML data file, charge density, pseudopotentials, collected wavefunctions

     init_run     :      2.66s CPU      2.72s WALL (       1 calls)
     electrons    :    195.47s CPU    199.81s WALL (      13 calls)
     update_pot   :      0.45s CPU      0.53s WALL (      12 calls)
     forces       :      1.68s CPU      1.69s WALL (      13 calls)
     stress       :     20.35s CPU     20.45s WALL (      13 calls)

     Called by init_run:
     wfcinit      :      0.85s CPU      0.87s WALL (       1 calls)
     potinit      :      1.56s CPU      1.59s WALL (       1 calls)
     hinit0       :      0.19s CPU      0.20s WALL (       1 calls)

     Called by electrons:
     c_bands      :    172.49s CPU    175.94s WALL (      86 calls)
     sum_band     :     19.68s CPU     19.98s WALL (      86 calls)
     v_of_rho     :      4.93s CPU      5.32s WALL (      93 calls)
     newd         :      0.09s CPU      0.15s WALL (      93 calls)
     mix_rho      :      0.08s CPU      0.08s WALL (      86 calls)
     vdW_kernel   :      1.52s CPU      1.52s WALL (       1 calls)

     Called by c_bands:
     init_us_2    :      2.07s CPU      2.15s WALL (    7164 calls)
     cegterg      :    165.97s CPU    167.99s WALL (    3096 calls)

     Called by *egterg:
     cdiaghg      :     20.20s CPU     20.35s WALL (   11698 calls)
     h_psi        :    122.84s CPU    124.55s WALL (   12382 calls)
     s_psi        :      4.38s CPU      4.43s WALL (   12382 calls)
     g_psi        :      0.39s CPU      0.40s WALL (    9250 calls)

     Called by h_psi:
     h_psi:calbec :      6.21s CPU      6.28s WALL (   12382 calls)
     vloc_psi     :    111.34s CPU    112.93s WALL (   12382 calls)
     add_vuspsi   :      4.76s CPU      4.82s WALL (   12382 calls)

     General routines
     calbec       :      9.30s CPU      9.41s WALL (   17818 calls)
     fft          :      2.16s CPU      2.22s WALL (    6367 calls)
     ffts         :      0.03s CPU      0.03s WALL (      86 calls)
     fftw         :    118.48s CPU    120.16s WALL (  740788 calls)

     Parallel routines

     PWSCF        :   3m42.31s CPU   3m48.64s WALL


   This run was terminated on:  14:50: 7   1Apr2026            

=------------------------------------------------------------------------------=
   JOB DONE.
=------------------------------------------------------------------------------=
