
     Program PWSCF v.7.3.1 starts on  1Apr2026 at 14:50:13 

     This program is part of the open-source Quantum ESPRESSO suite
     for quantum simulation of materials; please cite
         "P. Giannozzi et al., J. Phys.:Condens. Matter 21 395502 (2009);
         "P. Giannozzi et al., J. Phys.:Condens. Matter 29 465901 (2017);
         "P. Giannozzi et al., J. Chem. Phys. 152 154105 (2020);
          URL http://www.quantum-espresso.org", 
     in publications or presentations arising from this work. More details at
     http://www.quantum-espresso.org/quote

     Parallel version (MPI), running on   128 processors

     MPI processes distributed on     1 nodes
     241809 MiB available memory on the printing compute node when the environment starts

     Waiting for input...
     Reading input from standard input

     Current dimensions of program PWSCF are:
     Max number of different atomic species (ntypx) = 10
     Max number of k-points (npk) =  40000
     Max angular momentum in pseudopotentials (lmaxx) =  4

     IMPORTANT: XC functional enforced from input :
     Exchange-correlation= VDW-DF2
                           (   1   4  13   0   2   0   0)
     Any further DFT definition will be discarded
     Please, verify this is what you really want

     Found identity + ( -0.5000 -0.5000  0.5000) symmetry
     This is a supercell, fractional translations are disabled

     K-points division:     npool     =       4
     R & G space division:  proc/nbgrp/npool/nimage =      32
     Subspace diagonalization in iterative solution of the eigenvalue problem:
     a serial algorithm will be used


     Parallelization info
     --------------------
     sticks:   dense  smooth     PW     G-vecs:    dense   smooth      PW
     Min          67      67     18                 3407     3407     494
     Max          68      68     19                 3416     3416     501
     Sum        2161    2161    593               109131   109131   15911

     Using Slab Decomposition



     bravais-lattice index     =            6
     lattice parameter (alat)  =       8.6896  a.u.
     unit-cell volume          =     946.3045 (a.u.)^3
     number of atoms/cell      =           24
     number of atomic types    =            2
     number of electrons       =        64.00
     number of Kohn-Sham states=           32
     kinetic-energy cutoff     =      90.0000  Ry
     charge density cutoff     =     360.0000  Ry
     scf convergence threshold =      1.0E-07
     mixing beta               =       0.7000
     number of iterations used =            8  plain     mixing
     energy convergence thresh.=      1.0E-04
     force convergence thresh. =      1.0E-03
     Exchange-correlation= VDW-DF2
                           (   1   4  13   0   2   0   0)
     nstep                     =           50


     celldm(1)=   8.689646  celldm(2)=   0.000000  celldm(3)=   1.442197
     celldm(4)=   0.000000  celldm(5)=   0.000000  celldm(6)=   0.000000

     crystal axes: (cart. coord. in units of alat)
               a(1) = (   1.000000   0.000000   0.000000 )  
               a(2) = (   0.000000   1.000000   0.000000 )  
               a(3) = (   0.000000   0.000000   1.442197 )  

     reciprocal axes: (cart. coord. in units 2 pi/alat)
               b(1) = (  1.000000  0.000000  0.000000 )  
               b(2) = (  0.000000  1.000000  0.000000 )  
               b(3) = (  0.000000  0.000000  0.693386 )  


     PseudoPot. # 1 for H  read from file:
     ./H.pbe-van_ak.UPF
     MD5 check sum: 077eb6d537518a38cb46c6de387227b7
     Pseudo is Ultrasoft, Zval =  1.0
     Generated by new atomic code, or converted to UPF format
     Using radial grid of  615 points,  1 beta functions with: 
                l(1) =   0
     Q(r) pseudized with  8 coefficients,  rinner =    0.800

     PseudoPot. # 2 for O  read from file:
     ./O.pbe-van_ak.UPF
     MD5 check sum: 78c19812648e8988a0fe644b0f25305e
     Pseudo is Ultrasoft, Zval =  6.0
     Generated by new atomic code, or converted to UPF format
     Using radial grid of  737 points,  4 beta functions with: 
                l(1) =   0
                l(2) =   0
                l(3) =   1
                l(4) =   1
     Q(r) pseudized with  8 coefficients,  rinner =    0.800   0.800   0.800


     atomic species   valence    mass     pseudopotential
     H                 1.00     1.00800     H ( 1.00)
     O                 6.00    16.00000     O ( 1.00)

      4 Sym. Ops., with inversion, found



   Cartesian axes

     site n.     atom                  positions (alat units)
         1        O      tau(   1) = (   0.0000000   0.2500000   0.8781106  )
         2        O      tau(   2) = (   0.0000000   0.7500000   0.5640866  )
         3        O      tau(   3) = (   0.5000000   0.7500000   0.1570120  )
         4        O      tau(   4) = (   0.5000000   0.2500000   1.2851851  )
         5        O      tau(   5) = (   0.0000000   0.7500000   1.2386599  )
         6        O      tau(   6) = (   0.0000000   0.2500000   0.2035373  )
         7        O      tau(   7) = (   0.5000000   0.2500000   0.5175613  )
         8        O      tau(   8) = (   0.5000000   0.7500000   0.9246358  )
         9        H      tau(   9) = (   0.0000000   0.4142500   1.0027885  )
        10        H      tau(  10) = (   0.0000000   0.5857500   0.4394086  )
        11        H      tau(  11) = (   0.5000000   0.5857500   0.2816900  )
        12        H      tau(  12) = (   0.5000000   0.4142500   1.1605072  )
        13        H      tau(  13) = (   0.8357500   0.7500000   1.3633378  )
        14        H      tau(  14) = (   0.1642500   0.2500000   0.0788593  )
        15        H      tau(  15) = (   0.6642500   0.2500000   0.6422392  )
        16        H      tau(  16) = (   0.3357500   0.7500000   0.7999579  )
        17        H      tau(  17) = (   0.6642500   0.7500000   0.7999579  )
        18        H      tau(  18) = (   0.3357500   0.2500000   0.6422392  )
        19        H      tau(  19) = (   0.8357500   0.2500000   0.0788593  )
        20        H      tau(  20) = (   0.1642500   0.7500000   1.3633378  )
        21        H      tau(  21) = (   0.5000000   0.9142500   0.2816900  )
        22        H      tau(  22) = (   0.5000000   0.0857500   1.1605072  )
        23        H      tau(  23) = (   0.0000000   0.0857500   1.0027885  )
        24        H      tau(  24) = (   0.0000000   0.9142500   0.4394086  )

     number of k points=   144

     Number of k-points >= 100: set verbosity='high' to print them.

     Dense  grid:   109131 G-vectors     FFT dimensions: (  54,  54,  75)

     Estimated max dynamical RAM per process >      12.68 MB

     Estimated total dynamical RAM >       1.51 GB

     Initial potential from superposition of free atoms

     starting charge      63.9998, renormalised to      64.0000


     %%%%%%%%%%%%%%%%%%%%%%%%%%%%%%%%%%%%%%%%%%%%%%%%%%%%%%%%%%%%%%%%%%%%%%%%
     %                                                                      %
     % You are using vdW-DF, which was implemented by the Thonhauser group. %
     % Please cite the following two papers that made this development      %
     % possible and the two reviews that describe the various versions:     %
     %                                                                      %
     %   T. Thonhauser et al., PRL 115, 136402 (2015).                      %
     %   T. Thonhauser et al., PRB 76, 125112 (2007).                       %
     %   K. Berland et al., Rep. Prog. Phys. 78, 066501 (2015).             %
     %   D.C. Langreth et al., J. Phys.: Condens. Matter 21, 084203 (2009). %
     %                                                                      %
     % If you are calculating stress with vdW-DF, please also cite:         %
     %                                                                      %
     %   R. Sabatini et al., J. Phys.: Condens. Matter 24, 424209 (2012).   %
     %                                                                      %
     %%%%%%%%%%%%%%%%%%%%%%%%%%%%%%%%%%%%%%%%%%%%%%%%%%%%%%%%%%%%%%%%%%%%%%%%

     %%%%%%%%%%%%%%%%%%%%%%%%%%%%%%%%%%%%%%%%%%%%%%%%%%%%%%%%%%%%%%%%%%%%%%%%
     %                                                                      %
     %  vdW-DF NEWS:                                                        %
     %                                                                      %
     %  * vdW-DF3 is now available. DOI: 10.1021/acs.jctc.0c00471           %
     %    use with input_dft = 'vdW-DF3-opt1' or 'vdW-DF3-opt2'             %
     %                                                                      %
     %  * Unscreened and range-separated hybrid vdW-DF-cx functionals       %
     %    DOI: 10.1063/1.4986522 and 10.1088/1361-648X/ac2ad2               %
     %    use with input_dft = 'vdW-DF-cx0'    and 'vdW-DF-ahcx'            %
     %  * Unscreened and range-separated hybrid vdW-DF2-b86r functionals    %
     %    DOI: 10.1063/1.4986522 and DOI: 10.1103/PhysRevX.12.041003        %
     %    use with input_dft = 'vdW-DF2-br0' and 'vdW-DF2-ahbr'             %
     %                                                                      %
     %%%%%%%%%%%%%%%%%%%%%%%%%%%%%%%%%%%%%%%%%%%%%%%%%%%%%%%%%%%%%%%%%%%%%%%%


     Starting wfcs are   48 randomized atomic wfcs

     total cpu time spent up to now is        2.9 secs

     per-process dynamical memory:    19.2 Mb

     Self-consistent Calculation

     iteration #  1     ecut=    90.00 Ry     beta= 0.70
     Davidson diagonalization with overlap
     ethr =  1.00E-02,  avg # of iterations =  2.0

     total cpu time spent up to now is        5.0 secs

     total energy              =    -277.17772533 Ry
     estimated scf accuracy    <       3.32949736 Ry

     iteration #  2     ecut=    90.00 Ry     beta= 0.70
     Davidson diagonalization with overlap
     ethr =  5.20E-03,  avg # of iterations =  3.0

     total cpu time spent up to now is        7.5 secs

     total energy              =    -278.32387588 Ry
     estimated scf accuracy    <       1.84982356 Ry

     iteration #  3     ecut=    90.00 Ry     beta= 0.70
     Davidson diagonalization with overlap
     ethr =  2.89E-03,  avg # of iterations =  2.0

     total cpu time spent up to now is        9.3 secs

     total energy              =    -278.54066426 Ry
     estimated scf accuracy    <       0.08300523 Ry

     iteration #  4     ecut=    90.00 Ry     beta= 0.70
     Davidson diagonalization with overlap
     ethr =  1.30E-04,  avg # of iterations =  4.1

     total cpu time spent up to now is       12.2 secs

     total energy              =    -278.60050383 Ry
     estimated scf accuracy    <       0.11298412 Ry

     iteration #  5     ecut=    90.00 Ry     beta= 0.70
     Davidson diagonalization with overlap
     ethr =  1.30E-04,  avg # of iterations =  2.0

     total cpu time spent up to now is       14.0 secs

     total energy              =    -278.60289421 Ry
     estimated scf accuracy    <       0.01721773 Ry

     iteration #  6     ecut=    90.00 Ry     beta= 0.70
     Davidson diagonalization with overlap
     ethr =  2.69E-05,  avg # of iterations =  2.6

     total cpu time spent up to now is       16.1 secs

     total energy              =    -278.60711849 Ry
     estimated scf accuracy    <       0.00031123 Ry

     iteration #  7     ecut=    90.00 Ry     beta= 0.70
     Davidson diagonalization with overlap
     ethr =  4.86E-07,  avg # of iterations =  4.6

     total cpu time spent up to now is       19.2 secs

     total energy              =    -278.60752757 Ry
     estimated scf accuracy    <       0.00037663 Ry

     iteration #  8     ecut=    90.00 Ry     beta= 0.70
     Davidson diagonalization with overlap
     ethr =  4.86E-07,  avg # of iterations =  2.0

     total cpu time spent up to now is       21.0 secs

     total energy              =    -278.60754642 Ry
     estimated scf accuracy    <       0.00004161 Ry

     iteration #  9     ecut=    90.00 Ry     beta= 0.70
     Davidson diagonalization with overlap
     ethr =  6.50E-08,  avg # of iterations =  3.0

     total cpu time spent up to now is       23.3 secs

     total energy              =    -278.60756067 Ry
     estimated scf accuracy    <       0.00000021 Ry

     iteration # 10     ecut=    90.00 Ry     beta= 0.70
     Davidson diagonalization with overlap
     ethr =  3.29E-10,  avg # of iterations =  5.0

     total cpu time spent up to now is       26.5 secs

     End of self-consistent calculation

     Number of k-points >= 100: set verbosity='high' to print the bands.

     highest occupied level (ev):    -0.1354

!    total energy              =    -278.60756117 Ry
     estimated scf accuracy    <       0.00000003 Ry

     The total energy is the sum of the following terms:
     one-electron contribution =    -121.53218524 Ry
     hartree contribution      =      89.29186452 Ry
     xc contribution           =     -71.49626087 Ry
     ewald contribution        =    -174.87097958 Ry

     convergence has been achieved in  10 iterations

     Forces acting on atoms (cartesian axes, Ry/au):

     atom    1 type  2   force =     0.00000000   -0.00000001   -0.08399456
     atom    2 type  2   force =     0.00000000    0.00000001    0.08399456
     atom    3 type  2   force =     0.00000000   -0.00000000   -0.08354481
     atom    4 type  2   force =     0.00000000    0.00000000    0.08354481
     atom    5 type  2   force =    -0.00000000    0.00000004   -0.08369510
     atom    6 type  2   force =    -0.00000000   -0.00000004    0.08369510
     atom    7 type  2   force =    -0.00000000    0.00000002   -0.08368990
     atom    8 type  2   force =    -0.00000000   -0.00000002    0.08368990
     atom    9 type  1   force =     0.00000000    0.06475589    0.04268060
     atom   10 type  1   force =     0.00000000   -0.06475589   -0.04268060
     atom   11 type  1   force =     0.00000000   -0.06475663    0.04265903
     atom   12 type  1   force =     0.00000000    0.06475663   -0.04265903
     atom   13 type  1   force =    -0.06477481   -0.00000000    0.04265862
     atom   14 type  1   force =     0.06477481    0.00000000   -0.04265862
     atom   15 type  1   force =     0.06477083   -0.00000001    0.04266815
     atom   16 type  1   force =    -0.06477083    0.00000001   -0.04266815
     atom   17 type  1   force =     0.06477083    0.00000001   -0.04266815
     atom   18 type  1   force =    -0.06477083   -0.00000001    0.04266815
     atom   19 type  1   force =    -0.06477481    0.00000000   -0.04265862
     atom   20 type  1   force =     0.06477481   -0.00000000    0.04265862
     atom   21 type  1   force =     0.00000000    0.06475664    0.04265902
     atom   22 type  1   force =     0.00000000   -0.06475664   -0.04265902
     atom   23 type  1   force =     0.00000000   -0.06475589    0.04268061
     atom   24 type  1   force =     0.00000000    0.06475589   -0.04268061

     Total force =     0.390289     Total SCF correction =     0.000262


     Computing stress (Cartesian axis) and pressure

          total   stress  (Ry/bohr**3)                   (kbar)     P=      177.97
   0.00119829   0.00000000   0.00000000          176.28        0.00        0.00
   0.00000000   0.00119772   0.00000000            0.00      176.19        0.00
   0.00000000   0.00000000   0.00123345            0.00        0.00      181.45


     BFGS Geometry Optimization
     Energy error            =      0.0E+00 Ry
     Gradient error          =      8.4E-02 Ry/Bohr

     number of scf cycles    =   1
     number of bfgs steps    =   0

     energy             new  =    -278.6075611670 Ry

     new trust radius        =       0.0839945627 bohr
     new conv_thr            =       0.0000001000 Ry


ATOMIC_POSITIONS (crystal)
O                0.0000000000        0.2499999984        0.6021677199
O                0.0000000000        0.7500000016        0.3978323091
O                0.5000000000        0.7499999994        0.1022035789
O                0.5000000000        0.2500000006        0.8977963921
O               -0.0000000000        0.7500000046        0.8521916158
O               -0.0000000000        0.2499999954        0.1478084132
O                0.5000000000        0.2500000026        0.3521920016
O                0.5000000000        0.7499999974        0.6478079694
H                0.0000000000        0.4217020608        0.6987256893
H                0.0000000000        0.5782979092        0.3012743107
H                0.5000000000        0.5782978239        0.1987239681
H                0.5000000000        0.4217021461        0.8012760319
H                0.8282957319        0.7499999998        0.9487239358
H                0.1717042381        0.2500000002        0.0512760642
H                0.6717038099        0.2499999993        0.4487246965
H                0.3282962201        0.7500000007        0.5512753035
H                0.6717038099        0.7500000007        0.5512753035
H                0.3282962201        0.2499999993        0.4487246965
H                0.8282957319        0.2500000002        0.0512760642
H                0.1717042381        0.7499999998        0.9487239358
H                0.5000000000        0.9217021764        0.1987239674
H                0.5000000000        0.0782978536        0.8012760326
H                0.0000000000        0.0782979398        0.6987256901
H                0.0000000000        0.9217020902        0.3012743099



     Writing config-only to output data dir ./iceVIII/iceVIII.save/ :
     XML data file
     NEW-OLD atomic charge density approx. for the potential

     total cpu time spent up to now is       28.4 secs

     per-process dynamical memory:    19.5 Mb

     Self-consistent Calculation

     iteration #  1     ecut=    90.00 Ry     beta= 0.70
     Davidson diagonalization with overlap
     ethr =  1.00E-06,  avg # of iterations =  9.0

     total cpu time spent up to now is       33.8 secs

     total energy              =    -278.61589286 Ry
     estimated scf accuracy    <       0.05416205 Ry

     iteration #  2     ecut=    90.00 Ry     beta= 0.70
     Davidson diagonalization with overlap
     ethr =  8.46E-05,  avg # of iterations =  3.0

     total cpu time spent up to now is       36.2 secs

     total energy              =    -278.63167162 Ry
     estimated scf accuracy    <       0.02191816 Ry

     iteration #  3     ecut=    90.00 Ry     beta= 0.70
     Davidson diagonalization with overlap
     ethr =  3.42E-05,  avg # of iterations =  2.0

     total cpu time spent up to now is       38.1 secs

     total energy              =    -278.63513202 Ry
     estimated scf accuracy    <       0.00050320 Ry

     iteration #  4     ecut=    90.00 Ry     beta= 0.70
     Davidson diagonalization with overlap
     ethr =  7.86E-07,  avg # of iterations =  4.0

     total cpu time spent up to now is       41.2 secs

     total energy              =    -278.63555616 Ry
     estimated scf accuracy    <       0.00054569 Ry

     iteration #  5     ecut=    90.00 Ry     beta= 0.70
     Davidson diagonalization with overlap
     ethr =  7.86E-07,  avg # of iterations =  2.0

     total cpu time spent up to now is       43.2 secs

     total energy              =    -278.63567247 Ry
     estimated scf accuracy    <       0.00000232 Ry

     iteration #  6     ecut=    90.00 Ry     beta= 0.70
     Davidson diagonalization with overlap
     ethr =  3.63E-09,  avg # of iterations =  5.1

     total cpu time spent up to now is       46.8 secs

     total energy              =    -278.63567171 Ry
     estimated scf accuracy    <       0.00002007 Ry

     iteration #  7     ecut=    90.00 Ry     beta= 0.70
     Davidson diagonalization with overlap
     ethr =  3.63E-09,  avg # of iterations =  4.0

     total cpu time spent up to now is       49.7 secs

     End of self-consistent calculation

     Number of k-points >= 100: set verbosity='high' to print the bands.

     highest occupied level (ev):     0.0020

!    total energy              =    -278.63567530 Ry
     estimated scf accuracy    <       0.00000008 Ry

     The total energy is the sum of the following terms:
     one-electron contribution =    -114.13826923 Ry
     hartree contribution      =      86.13044514 Ry
     xc contribution           =     -70.66840116 Ry
     ewald contribution        =    -179.95945005 Ry

     convergence has been achieved in   7 iterations

     Forces acting on atoms (cartesian axes, Ry/au):

     atom    1 type  2   force =     0.00000000    0.00000002    0.06085505
     atom    2 type  2   force =     0.00000000   -0.00000002   -0.06085505
     atom    3 type  2   force =     0.00000000    0.00000000    0.06036020
     atom    4 type  2   force =     0.00000000   -0.00000000   -0.06036020
     atom    5 type  2   force =     0.00000000   -0.00000001    0.06065833
     atom    6 type  2   force =     0.00000000    0.00000001   -0.06065833
     atom    7 type  2   force =     0.00000000   -0.00000000    0.06038432
     atom    8 type  2   force =     0.00000000    0.00000000   -0.06038432
     atom    9 type  1   force =     0.00000000   -0.01661768   -0.02672947
     atom   10 type  1   force =     0.00000000    0.01661768    0.02672947
     atom   11 type  1   force =     0.00000000    0.01651107   -0.02656050
     atom   12 type  1   force =     0.00000000   -0.01651107    0.02656050
     atom   13 type  1   force =     0.01654165    0.00000000   -0.02664119
     atom   14 type  1   force =    -0.01654165   -0.00000000    0.02664119
     atom   15 type  1   force =    -0.01653719    0.00000000   -0.02664778
     atom   16 type  1   force =     0.01653719   -0.00000000    0.02664778
     atom   17 type  1   force =    -0.01653719   -0.00000000    0.02664778
     atom   18 type  1   force =     0.01653719    0.00000000   -0.02664778
     atom   19 type  1   force =     0.01654165   -0.00000000    0.02664119
     atom   20 type  1   force =    -0.01654165    0.00000000   -0.02664119
     atom   21 type  1   force =     0.00000000   -0.01651107   -0.02656051
     atom   22 type  1   force =     0.00000000    0.01651107    0.02656051
     atom   23 type  1   force =     0.00000000    0.01661767   -0.02672946
     atom   24 type  1   force =     0.00000000   -0.01661767    0.02672946

     Total force =     0.212338     Total SCF correction =     0.000492


     Computing stress (Cartesian axis) and pressure

          total   stress  (Ry/bohr**3)                   (kbar)     P=       10.78
   0.00016704   0.00000000   0.00000000           24.57        0.00        0.00
   0.00000000   0.00016715  -0.00000000            0.00       24.59       -0.00
   0.00000000  -0.00000000  -0.00011429            0.00       -0.00      -16.81

     Energy error            =      2.8E-02 Ry
     Gradient error          =      6.1E-02 Ry/Bohr

     number of scf cycles    =   2
     number of bfgs steps    =   1

     energy             old  =    -278.6075611670 Ry
     energy             new  =    -278.6356753013 Ry

     CASE: energy            _new < energy            _old

     new trust radius        =       0.0388322246 bohr
     new conv_thr            =       0.0000000609 Ry


ATOMIC_POSITIONS (crystal)
O                0.0000000000        0.2499999995        0.6052663201
O                0.0000000000        0.7500000005        0.3947337089
O                0.5000000000        0.7499999997        0.1052765875
O                0.5000000000        0.2500000003        0.8947233835
O               -0.0000000000        0.7500000043        0.8552802470
O               -0.0000000000        0.2499999957        0.1447197820
O                0.5000000000        0.2500000024        0.3552660489
O                0.5000000000        0.7499999976        0.6447339221
H                0.0000000000        0.4205839093        0.6973744872
H                0.0000000000        0.5794160607        0.3026255128
H                0.5000000000        0.5794077856        0.1973817277
H                0.5000000000        0.4205921844        0.8026182723
H                0.8294079977        0.7500000000        0.9473773979
H                0.1705919723        0.2500000000        0.0526226021
H                0.6705918765        0.2499999994        0.4473778236
H                0.3294081535        0.7500000006        0.5526221764
H                0.6705918765        0.7500000006        0.5526221764
H                0.3294081535        0.2499999994        0.4473778236
H                0.8294079977        0.2500000000        0.0526226021
H                0.1705919723        0.7500000000        0.9473773979
H                0.5000000000        0.9205922145        0.1973817268
H                0.5000000000        0.0794078155        0.8026182732
H                0.0000000000        0.0794160905        0.6973744885
H                0.0000000000        0.9205839395        0.3026255115



     Writing config-only to output data dir ./iceVIII/iceVIII.save/ :
     XML data file
     NEW-OLD atomic charge density approx. for the potential

     total cpu time spent up to now is       51.5 secs

     per-process dynamical memory:    19.5 Mb

     Self-consistent Calculation

     iteration #  1     ecut=    90.00 Ry     beta= 0.70
     Davidson diagonalization with overlap
     ethr =  1.00E-06,  avg # of iterations =  7.6

     total cpu time spent up to now is       55.9 secs

     total energy              =    -278.65101015 Ry
     estimated scf accuracy    <       0.00620073 Ry

     iteration #  2     ecut=    90.00 Ry     beta= 0.70
     Davidson diagonalization with overlap
     ethr =  9.69E-06,  avg # of iterations =  3.0

     total cpu time spent up to now is       58.3 secs

     total energy              =    -278.65286493 Ry
     estimated scf accuracy    <       0.00196290 Ry

     iteration #  3     ecut=    90.00 Ry     beta= 0.70
     Davidson diagonalization with overlap
     ethr =  3.07E-06,  avg # of iterations =  2.0

     total cpu time spent up to now is       60.2 secs

     total energy              =    -278.65314013 Ry
     estimated scf accuracy    <       0.00005308 Ry

     iteration #  4     ecut=    90.00 Ry     beta= 0.70
     Davidson diagonalization with overlap
     ethr =  8.29E-08,  avg # of iterations =  4.9

     total cpu time spent up to now is       63.1 secs

     total energy              =    -278.65316932 Ry
     estimated scf accuracy    <       0.00005016 Ry

     iteration #  5     ecut=    90.00 Ry     beta= 0.70
     Davidson diagonalization with overlap
     ethr =  7.84E-08,  avg # of iterations =  2.9

     total cpu time spent up to now is       65.5 secs

     total energy              =    -278.65318568 Ry
     estimated scf accuracy    <       0.00000474 Ry

     iteration #  6     ecut=    90.00 Ry     beta= 0.70
     Davidson diagonalization with overlap
     ethr =  7.40E-09,  avg # of iterations =  1.9

     total cpu time spent up to now is       67.2 secs

     total energy              =    -278.65318586 Ry
     estimated scf accuracy    <       0.00000083 Ry

     iteration #  7     ecut=    90.00 Ry     beta= 0.70
     Davidson diagonalization with overlap
     ethr =  1.30E-09,  avg # of iterations =  2.0

     total cpu time spent up to now is       69.0 secs

     total energy              =    -278.65318590 Ry
     estimated scf accuracy    <       0.00000011 Ry

     iteration #  8     ecut=    90.00 Ry     beta= 0.70
     Davidson diagonalization with overlap
     ethr =  1.69E-10,  avg # of iterations =  3.3

     total cpu time spent up to now is       71.5 secs

     End of self-consistent calculation

     Number of k-points >= 100: set verbosity='high' to print the bands.

     highest occupied level (ev):    -0.0335

!    total energy              =    -278.65318594 Ry
     estimated scf accuracy    <       0.00000002 Ry

     The total energy is the sum of the following terms:
     one-electron contribution =    -116.28423447 Ry
     hartree contribution      =      87.04147333 Ry
     xc contribution           =     -70.92299194 Ry
     ewald contribution        =    -178.48743287 Ry

     convergence has been achieved in   8 iterations

     Forces acting on atoms (cartesian axes, Ry/au):

     atom    1 type  2   force =    -0.00000000   -0.00000000    0.01533865
     atom    2 type  2   force =    -0.00000000    0.00000000   -0.01533865
     atom    3 type  2   force =     0.00000000   -0.00000000    0.01559280
     atom    4 type  2   force =     0.00000000    0.00000000   -0.01559280
     atom    5 type  2   force =    -0.00000000   -0.00000000    0.01549922
     atom    6 type  2   force =    -0.00000000    0.00000000   -0.01549922
     atom    7 type  2   force =     0.00000000   -0.00000000    0.01541551
     atom    8 type  2   force =     0.00000000    0.00000000   -0.01541551
     atom    9 type  1   force =     0.00000000    0.00128352   -0.00526792
     atom   10 type  1   force =     0.00000000   -0.00128352    0.00526792
     atom   11 type  1   force =     0.00000000   -0.00125237   -0.00528933
     atom   12 type  1   force =     0.00000000    0.00125237    0.00528933
     atom   13 type  1   force =    -0.00129601    0.00000000   -0.00527074
     atom   14 type  1   force =     0.00129601   -0.00000000    0.00527074
     atom   15 type  1   force =     0.00124457    0.00000000   -0.00533224
     atom   16 type  1   force =    -0.00124457   -0.00000000    0.00533224
     atom   17 type  1   force =     0.00124457   -0.00000000    0.00533224
     atom   18 type  1   force =    -0.00124457    0.00000000   -0.00533224
     atom   19 type  1   force =    -0.00129601   -0.00000000    0.00527074
     atom   20 type  1   force =     0.00129601    0.00000000   -0.00527074
     atom   21 type  1   force =     0.00000000    0.00125237   -0.00528933
     atom   22 type  1   force =     0.00000000   -0.00125237    0.00528933
     atom   23 type  1   force =     0.00000000   -0.00128352   -0.00526792
     atom   24 type  1   force =     0.00000000    0.00128352    0.00526792

     Total force =     0.048848     Total SCF correction =     0.000229


     Computing stress (Cartesian axis) and pressure

          total   stress  (Ry/bohr**3)                   (kbar)     P=       56.06
   0.00041285   0.00000000   0.00000000           60.73        0.00        0.00
   0.00000000   0.00041273   0.00000000            0.00       60.71        0.00
   0.00000000   0.00000000   0.00031765            0.00        0.00       46.73

     Energy error            =      1.8E-02 Ry
     Gradient error          =      1.6E-02 Ry/Bohr

     number of scf cycles    =   3
     number of bfgs steps    =   2

     energy             old  =    -278.6356753013 Ry
     energy             new  =    -278.6531859443 Ry

     CASE: energy            _new < energy            _old

     new trust radius        =       0.0152373804 bohr
     new conv_thr            =       0.0000000156 Ry


ATOMIC_POSITIONS (crystal)
O               -0.0000000000        0.2499999992        0.6064538037
O               -0.0000000000        0.7500000008        0.3935462253
O                0.5000000000        0.7499999995        0.1064924475
O                0.5000000000        0.2500000005        0.8935075235
O               -0.0000000000        0.7500000037        0.8564851826
O               -0.0000000000        0.2499999963        0.1435148464
O                0.5000000000        0.2500000020        0.3564636936
O                0.5000000000        0.7499999980        0.6435362774
H                0.0000000000        0.4209892701        0.6970086980
H                0.0000000000        0.5790106999        0.3029913020
H                0.5000000000        0.5790076240        0.1970130245
H                0.5000000000        0.4209923460        0.8029869755
H                0.8290012500        0.7500000002        0.9470109194
H                0.1709987200        0.2499999998        0.0529890806
H                0.6709910866        0.2499999996        0.4470051642
H                0.3290089434        0.7500000004        0.5529948358
H                0.6709910866        0.7500000004        0.5529948358
H                0.3290089434        0.2499999996        0.4470051642
H                0.8290012500        0.2499999998        0.0529890806
H                0.1709987200        0.7500000002        0.9470109194
H                0.5000000000        0.9209923762        0.1970130237
H                0.5000000000        0.0790076538        0.8029869763
H                0.0000000000        0.0790107300        0.6970086992
H                0.0000000000        0.9209893000        0.3029913008



     Writing config-only to output data dir ./iceVIII/iceVIII.save/ :
     XML data file
     NEW-OLD atomic charge density approx. for the potential

     total cpu time spent up to now is       73.3 secs

     per-process dynamical memory:    19.5 Mb

     Self-consistent Calculation

     iteration #  1     ecut=    90.00 Ry     beta= 0.70
     Davidson diagonalization with overlap
     ethr =  1.00E-06,  avg # of iterations =  4.1

     total cpu time spent up to now is       76.5 secs

     total energy              =    -278.65439581 Ry
     estimated scf accuracy    <       0.00049337 Ry

     iteration #  2     ecut=    90.00 Ry     beta= 0.70
     Davidson diagonalization with overlap
     ethr =  7.71E-07,  avg # of iterations =  3.0

     total cpu time spent up to now is       78.8 secs

     total energy              =    -278.65453009 Ry
     estimated scf accuracy    <       0.00012216 Ry

     iteration #  3     ecut=    90.00 Ry     beta= 0.70
     Davidson diagonalization with overlap
     ethr =  1.91E-07,  avg # of iterations =  2.0

     total cpu time spent up to now is       80.8 secs

     total energy              =    -278.65455061 Ry
     estimated scf accuracy    <       0.00000324 Ry

     iteration #  4     ecut=    90.00 Ry     beta= 0.70
     Davidson diagonalization with overlap
     ethr =  5.07E-09,  avg # of iterations =  3.9

     total cpu time spent up to now is       83.5 secs

     total energy              =    -278.65455133 Ry
     estimated scf accuracy    <       0.00000265 Ry

     iteration #  5     ecut=    90.00 Ry     beta= 0.70
     Davidson diagonalization with overlap
     ethr =  4.13E-09,  avg # of iterations =  3.0

     total cpu time spent up to now is       85.9 secs

     total energy              =    -278.65455222 Ry
     estimated scf accuracy    <       0.00000083 Ry

     iteration #  6     ecut=    90.00 Ry     beta= 0.70
     Davidson diagonalization with overlap
     ethr =  1.30E-09,  avg # of iterations =  2.0

     total cpu time spent up to now is       87.8 secs

     total energy              =    -278.65455234 Ry
     estimated scf accuracy    <       0.00000002 Ry

     iteration #  7     ecut=    90.00 Ry     beta= 0.70
     Davidson diagonalization with overlap
     ethr =  2.55E-11,  avg # of iterations =  4.4

     total cpu time spent up to now is       90.7 secs

     End of self-consistent calculation

     Number of k-points >= 100: set verbosity='high' to print the bands.

     highest occupied level (ev):    -0.0364

!    total energy              =    -278.65455235 Ry
     estimated scf accuracy    <          5.2E-09 Ry

     The total energy is the sum of the following terms:
     one-electron contribution =    -116.73863121 Ry
     hartree contribution      =      87.23557017 Ry
     xc contribution           =     -70.98072114 Ry
     ewald contribution        =    -178.17077017 Ry

     convergence has been achieved in   7 iterations

     Forces acting on atoms (cartesian axes, Ry/au):

     atom    1 type  2   force =     0.00000000    0.00000000    0.00197671
     atom    2 type  2   force =     0.00000000   -0.00000000   -0.00197671
     atom    3 type  2   force =     0.00000000    0.00000000    0.00198060
     atom    4 type  2   force =     0.00000000   -0.00000000   -0.00198060
     atom    5 type  2   force =     0.00000000   -0.00000000    0.00198573
     atom    6 type  2   force =     0.00000000    0.00000000   -0.00198573
     atom    7 type  2   force =    -0.00000000   -0.00000000    0.00195731
     atom    8 type  2   force =    -0.00000000    0.00000000   -0.00195731
     atom    9 type  1   force =     0.00000000    0.00433806    0.00094966
     atom   10 type  1   force =     0.00000000   -0.00433806   -0.00094966
     atom   11 type  1   force =     0.00000000   -0.00445978    0.00108503
     atom   12 type  1   force =     0.00000000    0.00445978   -0.00108503
     atom   13 type  1   force =    -0.00441319    0.00000000    0.00102430
     atom   14 type  1   force =     0.00441319   -0.00000000   -0.00102430
     atom   15 type  1   force =     0.00439969    0.00000000    0.00098365
     atom   16 type  1   force =    -0.00439969   -0.00000000   -0.00098365
     atom   17 type  1   force =     0.00439969   -0.00000000   -0.00098365
     atom   18 type  1   force =    -0.00439969    0.00000000    0.00098365
     atom   19 type  1   force =    -0.00441319   -0.00000000   -0.00102430
     atom   20 type  1   force =     0.00441319    0.00000000    0.00102430
     atom   21 type  1   force =     0.00000000    0.00445978    0.00108503
     atom   22 type  1   force =     0.00000000   -0.00445978   -0.00108503
     atom   23 type  1   force =     0.00000000   -0.00433806    0.00094967
     atom   24 type  1   force =     0.00000000    0.00433806   -0.00094967

     Total force =     0.018915     Total SCF correction =     0.000054


     Computing stress (Cartesian axis) and pressure

          total   stress  (Ry/bohr**3)                   (kbar)     P=       65.87
   0.00045799   0.00000000   0.00000000           67.37        0.00        0.00
   0.00000000   0.00045780  -0.00000000            0.00       67.34       -0.00
   0.00000000  -0.00000000   0.00042763            0.00       -0.00       62.91

     Energy error            =      1.4E-03 Ry
     Gradient error          =      4.5E-03 Ry/Bohr

     number of scf cycles    =   4
     number of bfgs steps    =   3

     energy             old  =    -278.6531859443 Ry
     energy             new  =    -278.6545523518 Ry

     CASE: energy            _new < energy            _old

     new trust radius        =       0.0064244011 bohr
     new conv_thr            =       0.0000000045 Ry


ATOMIC_POSITIONS (crystal)
O               -0.0000000000        0.2499999998        0.6069623951
O               -0.0000000000        0.7500000002        0.3930376339
O                0.5000000000        0.7499999998        0.1070050798
O                0.5000000000        0.2500000002        0.8929948912
O               -0.0000000000        0.7500000031        0.8569972199
O               -0.0000000000        0.2499999969        0.1430028091
O                0.5000000000        0.2500000017        0.3569709807
O                0.5000000000        0.7499999983        0.6430289903
H                0.0000000000        0.4216564185        0.6969913692
H                0.0000000000        0.5783435515        0.3030086308
H                0.5000000000        0.5783239084        0.1970087830
H                0.5000000000        0.4216760616        0.8029912170
H                0.8283230444        0.7500000003        0.9470009400
H                0.1716769256        0.2499999997        0.0529990600
H                0.6716661542        0.2499999997        0.4469901961
H                0.3283338758        0.7500000003        0.5530098039
H                0.6716661542        0.7500000003        0.5530098039
H                0.3283338758        0.2499999997        0.4469901961
H                0.8283230444        0.2499999997        0.0529990600
H                0.1716769256        0.7500000003        0.9470009400
H                0.5000000000        0.9216760917        0.1970087820
H                0.5000000000        0.0783239383        0.8029912180
H                0.0000000000        0.0783435813        0.6969913707
H                0.0000000000        0.9216564487        0.3030086293



     Writing config-only to output data dir ./iceVIII/iceVIII.save/ :
     XML data file
     NEW-OLD atomic charge density approx. for the potential

     total cpu time spent up to now is       92.6 secs

     per-process dynamical memory:    19.7 Mb

     Self-consistent Calculation

     iteration #  1     ecut=    90.00 Ry     beta= 0.70
     Davidson diagonalization with overlap
     ethr =  1.00E-06,  avg # of iterations =  3.0

     Threshold (ethr) on eigenvalues was too large:
     Diagonalizing with lowered threshold

     Davidson diagonalization with overlap
     ethr =  6.39E-08,  avg # of iterations =  2.7

     total cpu time spent up to now is       96.9 secs

     total energy              =    -278.65492010 Ry
     estimated scf accuracy    <       0.00004451 Ry

     iteration #  2     ecut=    90.00 Ry     beta= 0.70
     Davidson diagonalization with overlap
     ethr =  6.95E-08,  avg # of iterations =  2.0

     total cpu time spent up to now is       98.8 secs

     total energy              =    -278.65492791 Ry
     estimated scf accuracy    <       0.00000184 Ry

     iteration #  3     ecut=    90.00 Ry     beta= 0.70
     Davidson diagonalization with overlap
     ethr =  2.87E-09,  avg # of iterations =  2.0

     total cpu time spent up to now is      100.8 secs

     total energy              =    -278.65492825 Ry
     estimated scf accuracy    <       0.00000027 Ry

     iteration #  4     ecut=    90.00 Ry     beta= 0.70
     Davidson diagonalization with overlap
     ethr =  4.19E-10,  avg # of iterations =  2.0

     total cpu time spent up to now is      102.8 secs

     total energy              =    -278.65492832 Ry
     estimated scf accuracy    <       0.00000004 Ry

     iteration #  5     ecut=    90.00 Ry     beta= 0.70
     Davidson diagonalization with overlap
     ethr =  6.00E-11,  avg # of iterations =  2.0

     total cpu time spent up to now is      104.5 secs

     End of self-consistent calculation

     Number of k-points >= 100: set verbosity='high' to print the bands.

     highest occupied level (ev):    -0.0309

!    total energy              =    -278.65492832 Ry
     estimated scf accuracy    <          3.3E-09 Ry

     The total energy is the sum of the following terms:
     one-electron contribution =    -116.65112197 Ry
     hartree contribution      =      87.19709378 Ry
     xc contribution           =     -70.97580690 Ry
     ewald contribution        =    -178.22509323 Ry

     convergence has been achieved in   5 iterations

     Forces acting on atoms (cartesian axes, Ry/au):

     atom    1 type  2   force =     0.00000000   -0.00000000   -0.00011085
     atom    2 type  2   force =     0.00000000    0.00000000    0.00011085
     atom    3 type  2   force =     0.00000000   -0.00000000    0.00010000
     atom    4 type  2   force =     0.00000000    0.00000000   -0.00010000
     atom    5 type  2   force =     0.00000000   -0.00000000   -0.00000274
     atom    6 type  2   force =     0.00000000    0.00000000    0.00000274
     atom    7 type  2   force =    -0.00000000   -0.00000000    0.00000061
     atom    8 type  2   force =    -0.00000000    0.00000000   -0.00000061
     atom    9 type  1   force =     0.00000000    0.00258800    0.00182447
     atom   10 type  1   force =     0.00000000   -0.00258800   -0.00182447
     atom   11 type  1   force =     0.00000000   -0.00258427    0.00186444
     atom   12 type  1   force =     0.00000000    0.00258427   -0.00186444
     atom   13 type  1   force =    -0.00258476    0.00000000    0.00184878
     atom   14 type  1   force =     0.00258476   -0.00000000   -0.00184878
     atom   15 type  1   force =     0.00259160    0.00000000    0.00181707
     atom   16 type  1   force =    -0.00259160   -0.00000000   -0.00181707
     atom   17 type  1   force =     0.00259160   -0.00000000   -0.00181707
     atom   18 type  1   force =    -0.00259160    0.00000000    0.00181707
     atom   19 type  1   force =    -0.00258476   -0.00000000   -0.00184878
     atom   20 type  1   force =     0.00258476    0.00000000    0.00184878
     atom   21 type  1   force =     0.00000000    0.00258428    0.00186444
     atom   22 type  1   force =     0.00000000   -0.00258428   -0.00186444
     atom   23 type  1   force =     0.00000000   -0.00258800    0.00182447
     atom   24 type  1   force =     0.00000000    0.00258800   -0.00182447

     Total force =     0.012698     Total SCF correction =     0.000162


     Computing stress (Cartesian axis) and pressure

          total   stress  (Ry/bohr**3)                   (kbar)     P=       63.86
   0.00043531   0.00000000   0.00000000           64.04        0.00        0.00
   0.00000000   0.00043517   0.00000000            0.00       64.02        0.00
   0.00000000   0.00000000   0.00043185            0.00        0.00       63.53

     Energy error            =      3.8E-04 Ry
     Gradient error          =      2.6E-03 Ry/Bohr

     number of scf cycles    =   5
     number of bfgs steps    =   4

     energy             old  =    -278.6545523518 Ry
     energy             new  =    -278.6549283208 Ry

     CASE: energy            _new < energy            _old

     new trust radius        =       0.0064022182 bohr
     new conv_thr            =       0.0000000026 Ry


ATOMIC_POSITIONS (crystal)
O                0.0000000000        0.2499999989        0.6073808058
O                0.0000000000        0.7500000011        0.3926192232
O                0.5000000000        0.7499999994        0.1074579458
O                0.5000000000        0.2500000006        0.8925420252
O               -0.0000000000        0.7500000023        0.8574341811
O               -0.0000000000        0.2499999977        0.1425658479
O                0.5000000000        0.2500000012        0.3574055767
O                0.5000000000        0.7499999988        0.6425943943
H                0.0000000000        0.4223563677        0.6971369283
H                0.0000000000        0.5776436023        0.3028630717
H                0.5000000000        0.5776215805        0.1971631388
H                0.5000000000        0.4223783895        0.8028368612
H                0.8276209993        0.7500000005        0.9471518136
H                0.1723789707        0.2499999995        0.0528481864
H                0.6723680801        0.2499999998        0.4471345089
H                0.3276319499        0.7500000002        0.5528654911
H                0.6723680801        0.7500000002        0.5528654911
H                0.3276319499        0.2499999998        0.4471345089
H                0.8276209993        0.2499999995        0.0528481864
H                0.1723789707        0.7500000005        0.9471518136
H                0.5000000000        0.9223784200        0.1971631381
H                0.5000000000        0.0776216100        0.8028368619
H                0.0000000000        0.0776436331        0.6971369293
H                0.0000000000        0.9223563969        0.3028630707



     Writing config-only to output data dir ./iceVIII/iceVIII.save/ :
     XML data file
     NEW-OLD atomic charge density approx. for the potential

     total cpu time spent up to now is      106.4 secs

     per-process dynamical memory:    19.7 Mb

     Self-consistent Calculation

     iteration #  1     ecut=    90.00 Ry     beta= 0.70
     Davidson diagonalization with overlap
     ethr =  1.00E-06,  avg # of iterations =  3.0

     Threshold (ethr) on eigenvalues was too large:
     Diagonalizing with lowered threshold

     Davidson diagonalization with overlap
     ethr =  4.93E-08,  avg # of iterations =  3.8

     total cpu time spent up to now is      111.0 secs

     total energy              =    -278.65509742 Ry
     estimated scf accuracy    <       0.00004022 Ry

     iteration #  2     ecut=    90.00 Ry     beta= 0.70
     Davidson diagonalization with overlap
     ethr =  6.28E-08,  avg # of iterations =  2.0

     total cpu time spent up to now is      113.0 secs

     total energy              =    -278.65510427 Ry
     estimated scf accuracy    <       0.00000355 Ry

     iteration #  3     ecut=    90.00 Ry     beta= 0.70
     Davidson diagonalization with overlap
     ethr =  5.54E-09,  avg # of iterations =  2.0

     total cpu time spent up to now is      115.1 secs

     total energy              =    -278.65510507 Ry
     estimated scf accuracy    <       0.00000038 Ry

     iteration #  4     ecut=    90.00 Ry     beta= 0.70
     Davidson diagonalization with overlap
     ethr =  5.92E-10,  avg # of iterations =  2.0

     total cpu time spent up to now is      116.7 secs

     total energy              =    -278.65510511 Ry
     estimated scf accuracy    <       0.00000002 Ry

     iteration #  5     ecut=    90.00 Ry     beta= 0.70
     Davidson diagonalization with overlap
     ethr =  2.45E-11,  avg # of iterations =  4.3

     total cpu time spent up to now is      119.2 secs

     total energy              =    -278.65510511 Ry
     estimated scf accuracy    <          2.9E-09 Ry

     iteration #  6     ecut=    90.00 Ry     beta= 0.70
     Davidson diagonalization with overlap
     ethr =  4.53E-12,  avg # of iterations =  2.6

     total cpu time spent up to now is      121.4 secs

     End of self-consistent calculation

     Number of k-points >= 100: set verbosity='high' to print the bands.

     highest occupied level (ev):    -0.0236

!    total energy              =    -278.65510511 Ry
     estimated scf accuracy    <          1.6E-10 Ry

     The total energy is the sum of the following terms:
     one-electron contribution =    -116.44771842 Ry
     hartree contribution      =      87.10925766 Ry
     xc contribution           =     -70.95877843 Ry
     ewald contribution        =    -178.35786592 Ry

     convergence has been achieved in   6 iterations

     Forces acting on atoms (cartesian axes, Ry/au):

     atom    1 type  2   force =    -0.00000000    0.00000001    0.00038497
     atom    2 type  2   force =    -0.00000000   -0.00000001   -0.00038497
     atom    3 type  2   force =     0.00000000    0.00000001    0.00036105
     atom    4 type  2   force =     0.00000000   -0.00000001   -0.00036105
     atom    5 type  2   force =     0.00000000   -0.00000000    0.00036929
     atom    6 type  2   force =     0.00000000    0.00000000   -0.00036929
     atom    7 type  2   force =    -0.00000000   -0.00000000    0.00036953
     atom    8 type  2   force =    -0.00000000    0.00000000   -0.00036953
     atom    9 type  1   force =     0.00000000   -0.00020266    0.00144272
     atom   10 type  1   force =     0.00000000    0.00020266   -0.00144272
     atom   11 type  1   force =     0.00000000    0.00011564    0.00159575
     atom   12 type  1   force =     0.00000000   -0.00011564   -0.00159575
     atom   13 type  1   force =     0.00016708    0.00000000    0.00152453
     atom   14 type  1   force =    -0.00016708   -0.00000000   -0.00152453
     atom   15 type  1   force =    -0.00014114    0.00000000    0.00151374
     atom   16 type  1   force =     0.00014114   -0.00000000   -0.00151374
     atom   17 type  1   force =    -0.00014114   -0.00000000   -0.00151374
     atom   18 type  1   force =     0.00014114    0.00000000    0.00151374
     atom   19 type  1   force =     0.00016708   -0.00000000   -0.00152453
     atom   20 type  1   force =    -0.00016708    0.00000000    0.00152453
     atom   21 type  1   force =     0.00000000   -0.00011565    0.00159575
     atom   22 type  1   force =     0.00000000    0.00011565   -0.00159575
     atom   23 type  1   force =     0.00000000    0.00020265    0.00144273
     atom   24 type  1   force =     0.00000000   -0.00020265   -0.00144273

     Total force =     0.006204     Total SCF correction =     0.000012


     Computing stress (Cartesian axis) and pressure

          total   stress  (Ry/bohr**3)                   (kbar)     P=       59.82
   0.00040162   0.00000000   0.00000000           59.08        0.00        0.00
   0.00000000   0.00040141  -0.00000000            0.00       59.05       -0.00
   0.00000000  -0.00000000   0.00041693            0.00       -0.00       61.33

     Energy error            =      1.8E-04 Ry
     Gradient error          =      1.6E-03 Ry/Bohr

     number of scf cycles    =   6
     number of bfgs steps    =   5

     energy             old  =    -278.6549283208 Ry
     energy             new  =    -278.6551051137 Ry

     CASE: energy            _new < energy            _old

     new trust radius        =       0.0022532597 bohr
     new conv_thr            =       0.0000000016 Ry


ATOMIC_POSITIONS (crystal)
O               -0.0000000000        0.2500000004        0.6075323024
O               -0.0000000000        0.7499999996        0.3924677266
O                0.5000000000        0.7500000001        0.1076121504
O                0.5000000000        0.2499999999        0.8923878206
O               -0.0000000000        0.7500000018        0.8575869823
O               -0.0000000000        0.2499999982        0.1424130467
O                0.5000000000        0.2500000009        0.3575576589
O                0.5000000000        0.7499999991        0.6424423121
H                0.0000000000        0.4224603079        0.6972808538
H                0.0000000000        0.5775396621        0.3027191462
H                0.5000000000        0.5775044180        0.1973235368
H                0.5000000000        0.4224955520        0.8026764632
H                0.8275111899        0.7500000006        0.9473046555
H                0.1724887801        0.2499999994        0.0526953445
H                0.6724811496        0.2499999999        0.4472850829
H                0.3275188804        0.7500000001        0.5527149171
H                0.6724811496        0.7500000001        0.5527149171
H                0.3275188804        0.2499999999        0.4472850829
H                0.8275111899        0.2499999994        0.0526953445
H                0.1724887801        0.7500000006        0.9473046555
H                0.5000000000        0.9224955819        0.1973235358
H                0.5000000000        0.0775044481        0.8026764642
H                0.0000000000        0.0775396918        0.6972808554
H                0.0000000000        0.9224603382        0.3027191446



     Writing config-only to output data dir ./iceVIII/iceVIII.save/ :
     XML data file
     NEW-OLD atomic charge density approx. for the potential

     total cpu time spent up to now is      123.2 secs

     per-process dynamical memory:    19.7 Mb

     Self-consistent Calculation

     iteration #  1     ecut=    90.00 Ry     beta= 0.70
     Davidson diagonalization with overlap
     ethr =  1.00E-06,  avg # of iterations =  2.0

     Threshold (ethr) on eigenvalues was too large:
     Diagonalizing with lowered threshold

     Davidson diagonalization with overlap
     ethr =  4.46E-09,  avg # of iterations =  4.0

     total cpu time spent up to now is      128.1 secs

     total energy              =    -278.65514839 Ry
     estimated scf accuracy    <       0.00000475 Ry

     iteration #  2     ecut=    90.00 Ry     beta= 0.70
     Davidson diagonalization with overlap
     ethr =  7.43E-09,  avg # of iterations =  2.0

     total cpu time spent up to now is      130.1 secs

     total energy              =    -278.65514919 Ry
     estimated scf accuracy    <       0.00000053 Ry

     iteration #  3     ecut=    90.00 Ry     beta= 0.70
     Davidson diagonalization with overlap
     ethr =  8.28E-10,  avg # of iterations =  2.0

     total cpu time spent up to now is      132.1 secs

     total energy              =    -278.65514931 Ry
     estimated scf accuracy    <       0.00000005 Ry

     iteration #  4     ecut=    90.00 Ry     beta= 0.70
     Davidson diagonalization with overlap
     ethr =  7.39E-11,  avg # of iterations =  2.0

     total cpu time spent up to now is      133.8 secs

     total energy              =    -278.65514931 Ry
     estimated scf accuracy    <          2.4E-09 Ry

     iteration #  5     ecut=    90.00 Ry     beta= 0.70
     Davidson diagonalization with overlap
     ethr =  3.69E-12,  avg # of iterations =  3.1

     total cpu time spent up to now is      136.2 secs

     End of self-consistent calculation

     Number of k-points >= 100: set verbosity='high' to print the bands.

     highest occupied level (ev):    -0.0217

!    total energy              =    -278.65514931 Ry
     estimated scf accuracy    <          2.8E-10 Ry

     The total energy is the sum of the following terms:
     one-electron contribution =    -116.38365953 Ry
     hartree contribution      =      87.08067057 Ry
     xc contribution           =     -70.95393881 Ry
     ewald contribution        =    -178.39822155 Ry

     convergence has been achieved in   5 iterations

     Forces acting on atoms (cartesian axes, Ry/au):

     atom    1 type  2   force =     0.00000000   -0.00000001    0.00066400
     atom    2 type  2   force =     0.00000000    0.00000001   -0.00066400
     atom    3 type  2   force =     0.00000000   -0.00000001    0.00084521
     atom    4 type  2   force =     0.00000000    0.00000001   -0.00084521
     atom    5 type  2   force =     0.00000000   -0.00000000    0.00074854
     atom    6 type  2   force =     0.00000000    0.00000000   -0.00074854
     atom    7 type  2   force =     0.00000000   -0.00000000    0.00077178
     atom    8 type  2   force =     0.00000000    0.00000000   -0.00077178
     atom    9 type  1   force =     0.00000000   -0.00070591    0.00123357
     atom   10 type  1   force =     0.00000000    0.00070591   -0.00123357
     atom   11 type  1   force =     0.00000000    0.00074189    0.00128143
     atom   12 type  1   force =     0.00000000   -0.00074189   -0.00128143
     atom   13 type  1   force =     0.00073150    0.00000000    0.00126277
     atom   14 type  1   force =    -0.00073150   -0.00000000   -0.00126277
     atom   15 type  1   force =    -0.00071704    0.00000000    0.00124895
     atom   16 type  1   force =     0.00071704   -0.00000000   -0.00124895
     atom   17 type  1   force =    -0.00071704   -0.00000000   -0.00124895
     atom   18 type  1   force =     0.00071704    0.00000000    0.00124895
     atom   19 type  1   force =     0.00073150   -0.00000000   -0.00126277
     atom   20 type  1   force =    -0.00073150    0.00000000    0.00126277
     atom   21 type  1   force =     0.00000000   -0.00074188    0.00128144
     atom   22 type  1   force =     0.00000000    0.00074188   -0.00128144
     atom   23 type  1   force =     0.00000000    0.00070593    0.00123356
     atom   24 type  1   force =     0.00000000   -0.00070593   -0.00123356

     Total force =     0.006188     Total SCF correction =     0.000005


     Computing stress (Cartesian axis) and pressure

          total   stress  (Ry/bohr**3)                   (kbar)     P=       58.80
   0.00039416   0.00000000   0.00000000           57.98        0.00        0.00
   0.00000000   0.00039401   0.00000000            0.00       57.96        0.00
   0.00000000   0.00000000   0.00041089            0.00        0.00       60.44

     Energy error            =      4.4E-05 Ry
     Gradient error          =      1.3E-03 Ry/Bohr

     number of scf cycles    =   7
     number of bfgs steps    =   6

     energy             old  =    -278.6551051137 Ry
     energy             new  =    -278.6551493128 Ry

     CASE: energy            _new < energy            _old

     new trust radius        =       0.0024785857 bohr
     new conv_thr            =       0.0000000010 Ry


ATOMIC_POSITIONS (crystal)
O               -0.0000000000        0.2500000000        0.6076963059
O               -0.0000000000        0.7500000000        0.3923037231
O                0.5000000000        0.7499999999        0.1077923699
O                0.5000000000        0.2500000001        0.8922076011
O               -0.0000000000        0.7500000014        0.8577587429
O               -0.0000000000        0.2499999986        0.1422412861
O                0.5000000000        0.2500000006        0.3577303979
O                0.5000000000        0.7499999994        0.6422695731
H                0.0000000000        0.4225122125        0.6974609577
H                0.0000000000        0.5774877575        0.3025390423
H                0.5000000000        0.5774477962        0.1975173782
H                0.5000000000        0.4225521738        0.8024826218
H                0.8274579761        0.7500000007        0.9474924643
H                0.1725419939        0.2499999993        0.0525075357
H                0.6725375741        0.2500000000        0.4474700944
H                0.3274624559        0.7500000000        0.5525299056
H                0.6725375741        0.7500000000        0.5525299056
H                0.3274624559        0.2500000000        0.4474700944
H                0.8274579761        0.2499999993        0.0525075357
H                0.1725419939        0.7500000007        0.9474924643
H                0.5000000000        0.9225522040        0.1975173774
H                0.5000000000        0.0774478260        0.8024826226
H                0.0000000000        0.0774877877        0.6974609589
H                0.0000000000        0.9225122423        0.3025390411



     Writing config-only to output data dir ./iceVIII/iceVIII.save/ :
     XML data file
     NEW-OLD atomic charge density approx. for the potential

     total cpu time spent up to now is      138.0 secs

     per-process dynamical memory:    20.7 Mb

     Self-consistent Calculation

     iteration #  1     ecut=    90.00 Ry     beta= 0.70
     Davidson diagonalization with overlap
     ethr =  1.00E-06,  avg # of iterations =  2.0

     Threshold (ethr) on eigenvalues was too large:
     Diagonalizing with lowered threshold

     Davidson diagonalization with overlap
     ethr =  5.26E-09,  avg # of iterations =  4.0

     total cpu time spent up to now is      142.8 secs

     total energy              =    -278.65520018 Ry
     estimated scf accuracy    <       0.00000548 Ry

     iteration #  2     ecut=    90.00 Ry     beta= 0.70
     Davidson diagonalization with overlap
     ethr =  8.56E-09,  avg # of iterations =  2.0

     total cpu time spent up to now is      144.8 secs

     total energy              =    -278.65520098 Ry
     estimated scf accuracy    <       0.00000043 Ry

     iteration #  3     ecut=    90.00 Ry     beta= 0.70
     Davidson diagonalization with overlap
     ethr =  6.73E-10,  avg # of iterations =  2.0

     total cpu time spent up to now is      146.9 secs

     total energy              =    -278.65520108 Ry
     estimated scf accuracy    <       0.00000006 Ry

     iteration #  4     ecut=    90.00 Ry     beta= 0.70
     Davidson diagonalization with overlap
     ethr =  9.69E-11,  avg # of iterations =  2.0

     total cpu time spent up to now is      148.8 secs

     total energy              =    -278.65520109 Ry
     estimated scf accuracy    <          2.6E-09 Ry

     iteration #  5     ecut=    90.00 Ry     beta= 0.70
     Davidson diagonalization with overlap
     ethr =  3.99E-12,  avg # of iterations =  3.6

     total cpu time spent up to now is      151.2 secs

     End of self-consistent calculation

     Number of k-points >= 100: set verbosity='high' to print the bands.

     highest occupied level (ev):    -0.0201

!    total energy              =    -278.65520109 Ry
     estimated scf accuracy    <          4.1E-10 Ry

     The total energy is the sum of the following terms:
     one-electron contribution =    -116.33321211 Ry
     hartree contribution      =      87.05742661 Ry
     xc contribution           =     -70.95078131 Ry
     ewald contribution        =    -178.42863428 Ry

     convergence has been achieved in   5 iterations

     Forces acting on atoms (cartesian axes, Ry/au):

     atom    1 type  2   force =     0.00000000   -0.00000000    0.00090704
     atom    2 type  2   force =     0.00000000    0.00000000   -0.00090704
     atom    3 type  2   force =    -0.00000000   -0.00000000    0.00108450
     atom    4 type  2   force =    -0.00000000    0.00000000   -0.00108450
     atom    5 type  2   force =    -0.00000000   -0.00000000    0.00099120
     atom    6 type  2   force =    -0.00000000    0.00000000   -0.00099120
     atom    7 type  2   force =     0.00000000   -0.00000000    0.00101266
     atom    8 type  2   force =     0.00000000    0.00000000   -0.00101266
     atom    9 type  1   force =     0.00000000   -0.00101432    0.00102802
     atom   10 type  1   force =     0.00000000    0.00101432   -0.00102802
     atom   11 type  1   force =     0.00000000    0.00106344    0.00107168
     atom   12 type  1   force =     0.00000000   -0.00106344   -0.00107168
     atom   13 type  1   force =     0.00104587   -0.00000000    0.00105346
     atom   14 type  1   force =    -0.00104587    0.00000000   -0.00105346
     atom   15 type  1   force =    -0.00103424    0.00000000    0.00104790
     atom   16 type  1   force =     0.00103424   -0.00000000   -0.00104790
     atom   17 type  1   force =    -0.00103424   -0.00000000   -0.00104790
     atom   18 type  1   force =     0.00103424    0.00000000    0.00104790
     atom   19 type  1   force =     0.00104587    0.00000000   -0.00105346
     atom   20 type  1   force =    -0.00104587   -0.00000000    0.00105346
     atom   21 type  1   force =     0.00000000   -0.00106344    0.00107168
     atom   22 type  1   force =     0.00000000    0.00106344   -0.00107168
     atom   23 type  1   force =     0.00000000    0.00101432    0.00102802
     atom   24 type  1   force =     0.00000000   -0.00101432   -0.00102802

     Total force =     0.006554     Total SCF correction =     0.000012


     Computing stress (Cartesian axis) and pressure

          total   stress  (Ry/bohr**3)                   (kbar)     P=       58.12
   0.00038951   0.00000000   0.00000000           57.30        0.00        0.00
   0.00000000   0.00038936   0.00000000            0.00       57.28        0.00
   0.00000000   0.00000000   0.00040635            0.00        0.00       59.78

     Energy error            =      5.2E-05 Ry
     Gradient error          =      1.1E-03 Ry/Bohr

     number of scf cycles    =   8
     number of bfgs steps    =   7

     energy             old  =    -278.6551493128 Ry
     energy             new  =    -278.6552010890 Ry

     CASE: energy            _new < energy            _old

     new trust radius        =       0.0037178785 bohr
     new conv_thr            =       0.0000000010 Ry


ATOMIC_POSITIONS (crystal)
O               -0.0000000000        0.2500000012        0.6079436370
O               -0.0000000000        0.7499999988        0.3920563920
O                0.5000000000        0.7500000005        0.1080602092
O                0.5000000000        0.2499999995        0.8919397618
O               -0.0000000000        0.7500000008        0.8580158998
O               -0.0000000000        0.2499999992        0.1419841292
O                0.5000000000        0.2500000003        0.3579886782
O                0.5000000000        0.7499999997        0.6420112928
H                0.0000000000        0.4225416294        0.6977333969
H                0.0000000000        0.5774583406        0.3022666031
H                0.5000000000        0.5774096835        0.1978128653
H                0.5000000000        0.4225902865        0.8021871347
H                0.8274258631        0.7500000007        0.9477775482
H                0.1725741069        0.2499999993        0.0522224518
H                0.6725747293        0.2500000000        0.4477518969
H                0.3274253007        0.7500000000        0.5522481031
H                0.6725747293        0.7500000000        0.5522481031
H                0.3274253007        0.2500000000        0.4477518969
H                0.8274258631        0.2499999993        0.0522224518
H                0.1725741069        0.7500000007        0.9477775482
H                0.5000000000        0.9225903160        0.1978128643
H                0.5000000000        0.0774097140        0.8021871357
H                0.0000000000        0.0774583698        0.6977333986
H                0.0000000000        0.9225416602        0.3022666014



     Writing config-only to output data dir ./iceVIII/iceVIII.save/ :
     XML data file
     NEW-OLD atomic charge density approx. for the potential

     total cpu time spent up to now is      153.1 secs

     per-process dynamical memory:    19.7 Mb

     Self-consistent Calculation

     iteration #  1     ecut=    90.00 Ry     beta= 0.70
     Davidson diagonalization with overlap
     ethr =  1.00E-06,  avg # of iterations =  3.0

     Threshold (ethr) on eigenvalues was too large:
     Diagonalizing with lowered threshold

     Davidson diagonalization with overlap
     ethr =  1.25E-08,  avg # of iterations =  4.0

     total cpu time spent up to now is      158.0 secs

     total energy              =    -278.65527554 Ry
     estimated scf accuracy    <       0.00001201 Ry

     iteration #  2     ecut=    90.00 Ry     beta= 0.70
     Davidson diagonalization with overlap
     ethr =  1.88E-08,  avg # of iterations =  2.0

     total cpu time spent up to now is      159.9 secs

     total energy              =    -278.65527728 Ry
     estimated scf accuracy    <       0.00000072 Ry

     iteration #  3     ecut=    90.00 Ry     beta= 0.70
     Davidson diagonalization with overlap
     ethr =  1.13E-09,  avg # of iterations =  2.2

     total cpu time spent up to now is      161.9 secs

     total energy              =    -278.65527740 Ry
     estimated scf accuracy    <       0.00000009 Ry

     iteration #  4     ecut=    90.00 Ry     beta= 0.70
     Davidson diagonalization with overlap
     ethr =  1.33E-10,  avg # of iterations =  2.3

     total cpu time spent up to now is      164.0 secs

     total energy              =    -278.65527742 Ry
     estimated scf accuracy    <          6.9E-09 Ry

     iteration #  5     ecut=    90.00 Ry     beta= 0.70
     Davidson diagonalization with overlap
     ethr =  1.08E-11,  avg # of iterations =  2.1

     total cpu time spent up to now is      165.8 secs

     End of self-consistent calculation

     Number of k-points >= 100: set verbosity='high' to print the bands.

     highest occupied level (ev):    -0.0181

!    total energy              =    -278.65527742 Ry
     estimated scf accuracy    <          3.5E-10 Ry

     The total energy is the sum of the following terms:
     one-electron contribution =    -116.27572442 Ry
     hartree contribution      =      87.03027289 Ry
     xc contribution           =     -70.94791021 Ry
     ewald contribution        =    -178.46191569 Ry

     convergence has been achieved in   5 iterations

     Forces acting on atoms (cartesian axes, Ry/au):

     atom    1 type  2   force =    -0.00000000   -0.00000002    0.00105809
     atom    2 type  2   force =    -0.00000000    0.00000002   -0.00105809
     atom    3 type  2   force =     0.00000000   -0.00000001    0.00129773
     atom    4 type  2   force =     0.00000000    0.00000001   -0.00129773
     atom    5 type  2   force =     0.00000000    0.00000000    0.00117251
     atom    6 type  2   force =     0.00000000   -0.00000000   -0.00117251
     atom    7 type  2   force =    -0.00000000    0.00000000    0.00120531
     atom    8 type  2   force =    -0.00000000   -0.00000000   -0.00120531
     atom    9 type  1   force =     0.00000000   -0.00122215    0.00082554
     atom   10 type  1   force =     0.00000000    0.00122215   -0.00082554
     atom   11 type  1   force =     0.00000000    0.00132391    0.00082821
     atom   12 type  1   force =     0.00000000   -0.00132391   -0.00082821
     atom   13 type  1   force =     0.00127789   -0.00000000    0.00082953
     atom   14 type  1   force =    -0.00127789    0.00000000   -0.00082953
     atom   15 type  1   force =    -0.00127628    0.00000000    0.00082935
     atom   16 type  1   force =     0.00127628   -0.00000000   -0.00082935
     atom   17 type  1   force =    -0.00127628   -0.00000000   -0.00082935
     atom   18 type  1   force =     0.00127628    0.00000000    0.00082935
     atom   19 type  1   force =     0.00127789    0.00000000   -0.00082953
     atom   20 type  1   force =    -0.00127789   -0.00000000    0.00082953
     atom   21 type  1   force =     0.00000000   -0.00132390    0.00082822
     atom   22 type  1   force =     0.00000000    0.00132390   -0.00082822
     atom   23 type  1   force =     0.00000000    0.00122217    0.00082553
     atom   24 type  1   force =     0.00000000   -0.00122217   -0.00082553

     Total force =     0.006948     Total SCF correction =     0.000011


     Computing stress (Cartesian axis) and pressure

          total   stress  (Ry/bohr**3)                   (kbar)     P=       57.50
   0.00038547   0.00000000   0.00000000           56.70        0.00        0.00
   0.00000000   0.00038535   0.00000000            0.00       56.69        0.00
   0.00000000   0.00000000   0.00040172            0.00        0.00       59.09

     Energy error            =      7.6E-05 Ry
     Gradient error          =      1.3E-03 Ry/Bohr

     number of scf cycles    =   9
     number of bfgs steps    =   8

     energy             old  =    -278.6552010890 Ry
     energy             new  =    -278.6552774228 Ry

     CASE: energy            _new < energy            _old

     new trust radius        =       0.0055768178 bohr
     new conv_thr            =       0.0000000010 Ry


ATOMIC_POSITIONS (crystal)
O               -0.0000000000        0.2500000001        0.6083131224
O               -0.0000000000        0.7499999999        0.3916869066
O                0.5000000000        0.7499999999        0.1084658823
O                0.5000000000        0.2500000001        0.8915340887
O               -0.0000000000        0.7500000000        0.8584026461
O               -0.0000000000        0.2500000000        0.1415973829
O                0.5000000000        0.2499999998        0.3583784661
O                0.5000000000        0.7500000002        0.6416215049
H                0.0000000000        0.4225484000        0.6981459039
H                0.0000000000        0.5774515700        0.3018540961
H                0.5000000000        0.5773959896        0.1982577633
H                0.5000000000        0.4226039804        0.8017422367
H                0.8274179341        0.7500000008        0.9482078899
H                0.1725820359        0.2499999992        0.0517921101
H                0.6725891563        0.2500000002        0.4481778738
H                0.3274108737        0.7499999998        0.5518221262
H                0.6725891563        0.7499999998        0.5518221262
H                0.3274108737        0.2500000002        0.4481778738
H                0.8274179341        0.2499999992        0.0517921101
H                0.1725820359        0.7500000008        0.9482078899
H                0.5000000000        0.9226040106        0.1982577627
H                0.5000000000        0.0773960194        0.8017422373
H                0.0000000000        0.0774516004        0.6981459048
H                0.0000000000        0.9225484296        0.3018540952



     Writing config-only to output data dir ./iceVIII/iceVIII.save/ :
     XML data file
     NEW-OLD atomic charge density approx. for the potential

     total cpu time spent up to now is      167.7 secs

     per-process dynamical memory:    20.1 Mb

     Self-consistent Calculation

     iteration #  1     ecut=    90.00 Ry     beta= 0.70
     Davidson diagonalization with overlap
     ethr =  1.00E-06,  avg # of iterations =  3.0

     Threshold (ethr) on eigenvalues was too large:
     Diagonalizing with lowered threshold

     Davidson diagonalization with overlap
     ethr =  3.47E-08,  avg # of iterations =  3.2

     total cpu time spent up to now is      172.3 secs

     total energy              =    -278.65538035 Ry
     estimated scf accuracy    <       0.00002654 Ry

     iteration #  2     ecut=    90.00 Ry     beta= 0.70
     Davidson diagonalization with overlap
     ethr =  4.15E-08,  avg # of iterations =  2.0

     total cpu time spent up to now is      174.0 secs

     total energy              =    -278.65538397 Ry
     estimated scf accuracy    <       0.00000146 Ry

     iteration #  3     ecut=    90.00 Ry     beta= 0.70
     Davidson diagonalization with overlap
     ethr =  2.28E-09,  avg # of iterations =  2.1

     total cpu time spent up to now is      176.0 secs

     total energy              =    -278.65538422 Ry
     estimated scf accuracy    <       0.00000010 Ry

     iteration #  4     ecut=    90.00 Ry     beta= 0.70
     Davidson diagonalization with overlap
     ethr =  1.63E-10,  avg # of iterations =  3.0

     total cpu time spent up to now is      178.3 secs

     total energy              =    -278.65538425 Ry
     estimated scf accuracy    <       0.00000002 Ry

     iteration #  5     ecut=    90.00 Ry     beta= 0.70
     Davidson diagonalization with overlap
     ethr =  3.68E-11,  avg # of iterations =  2.2

     total cpu time spent up to now is      180.5 secs

     End of self-consistent calculation

     Number of k-points >= 100: set verbosity='high' to print the bands.

     highest occupied level (ev):    -0.0155

!    total energy              =    -278.65538426 Ry
     estimated scf accuracy    <          5.7E-10 Ry

     The total energy is the sum of the following terms:
     one-electron contribution =    -116.20645359 Ry
     hartree contribution      =      86.99657415 Ry
     xc contribution           =     -70.94522607 Ry
     ewald contribution        =    -178.50027874 Ry

     convergence has been achieved in   5 iterations

     Forces acting on atoms (cartesian axes, Ry/au):

     atom    1 type  2   force =     0.00000000   -0.00000000    0.00117218
     atom    2 type  2   force =     0.00000000    0.00000000   -0.00117218
     atom    3 type  2   force =    -0.00000000   -0.00000000    0.00139754
     atom    4 type  2   force =    -0.00000000    0.00000000   -0.00139754
     atom    5 type  2   force =     0.00000000    0.00000000    0.00128042
     atom    6 type  2   force =     0.00000000   -0.00000000   -0.00128042
     atom    7 type  2   force =    -0.00000000    0.00000000    0.00131584
     atom    8 type  2   force =    -0.00000000   -0.00000000   -0.00131584
     atom    9 type  1   force =     0.00000000   -0.00135570    0.00057961
     atom   10 type  1   force =     0.00000000    0.00135570   -0.00057961
     atom   11 type  1   force =     0.00000000    0.00147311    0.00057594
     atom   12 type  1   force =     0.00000000   -0.00147311   -0.00057594
     atom   13 type  1   force =     0.00141762   -0.00000000    0.00057776
     atom   14 type  1   force =    -0.00141762    0.00000000   -0.00057776
     atom   15 type  1   force =    -0.00142165   -0.00000000    0.00059246
     atom   16 type  1   force =     0.00142165    0.00000000   -0.00059246
     atom   17 type  1   force =    -0.00142165    0.00000000   -0.00059246
     atom   18 type  1   force =     0.00142165   -0.00000000    0.00059246
     atom   19 type  1   force =     0.00141762    0.00000000   -0.00057776
     atom   20 type  1   force =    -0.00141762   -0.00000000    0.00057776
     atom   21 type  1   force =     0.00000000   -0.00147311    0.00057594
     atom   22 type  1   force =     0.00000000    0.00147311   -0.00057594
[...]
     atom   21 type  1   force =     0.00000000   -0.00149367    0.00027607
     atom   22 type  1   force =     0.00000000    0.00149367   -0.00027607
     atom   23 type  1   force =     0.00000000    0.00134107    0.00031005
     atom   24 type  1   force =     0.00000000   -0.00134107   -0.00031005

     Total force =     0.006823     Total SCF correction =     0.000037


     Computing stress (Cartesian axis) and pressure

          total   stress  (Ry/bohr**3)                   (kbar)     P=       56.49
   0.00038008   0.00000000   0.00000000           55.91        0.00        0.00
   0.00000000   0.00037996   0.00000000            0.00       55.89        0.00
   0.00000000   0.00000000   0.00039208            0.00        0.00       57.68

     Energy error            =      1.4E-04 Ry
     Gradient error          =      1.5E-03 Ry/Bohr

     number of scf cycles    =  11
     number of bfgs steps    =  10

     energy             old  =    -278.6553842563 Ry
     energy             new  =    -278.6555201790 Ry

     CASE: energy            _new < energy            _old

     new trust radius        =       0.0125478401 bohr
     new conv_thr            =       0.0000000014 Ry


ATOMIC_POSITIONS (crystal)
O               -0.0000000000        0.2499999985        0.6096959725
O               -0.0000000000        0.7500000015        0.3903040565
O                0.5000000000        0.7499999991        0.1099799528
O                0.5000000000        0.2500000009        0.8900200182
O               -0.0000000000        0.7499999976        0.8598478995
O               -0.0000000000        0.2500000024        0.1401521295
O                0.5000000000        0.2499999983        0.3598385352
O                0.5000000000        0.7500000017        0.6401614358
H                0.0000000000        0.4224246480        0.6996887601
H                0.0000000000        0.5775753220        0.3003112399
H                0.5000000000        0.5775054931        0.1999244614
H                0.5000000000        0.4224944769        0.8000755386
H                0.8275426019        0.7500000008        0.9498177221
H                0.1724573681        0.2499999992        0.0501822779
H                0.6724856867        0.2500000005        0.4497791197
H                0.3275143433        0.7499999995        0.5502208803
H                0.6724856867        0.7499999995        0.5502208803
H                0.3275143433        0.2500000005        0.4497791197
H                0.8275426019        0.2499999992        0.0501822779
H                0.1724573681        0.7500000008        0.9498177221
H                0.5000000000        0.9224945082        0.1999244620
H                0.5000000000        0.0775055218        0.8000755380
H                0.0000000000        0.0775753549        0.6996887593
H                0.0000000000        0.9224246751        0.3003112407



     Writing config-only to output data dir ./iceVIII/iceVIII.save/ :
     XML data file
     NEW-OLD atomic charge density approx. for the potential

     total cpu time spent up to now is      199.3 secs

     per-process dynamical memory:    21.1 Mb

     Self-consistent Calculation

     iteration #  1     ecut=    90.00 Ry     beta= 0.70
     Davidson diagonalization with overlap
     ethr =  1.00E-06,  avg # of iterations =  4.0

     total cpu time spent up to now is      202.3 secs

     total energy              =    -278.65563570 Ry
     estimated scf accuracy    <       0.00012368 Ry

     iteration #  2     ecut=    90.00 Ry     beta= 0.70
     Davidson diagonalization with overlap
     ethr =  1.93E-07,  avg # of iterations =  2.6

     total cpu time spent up to now is      204.2 secs

     total energy              =    -278.65565955 Ry
     estimated scf accuracy    <       0.00000873 Ry

     iteration #  3     ecut=    90.00 Ry     beta= 0.70
     Davidson diagonalization with overlap
     ethr =  1.36E-08,  avg # of iterations =  3.5

     total cpu time spent up to now is      206.5 secs

     total energy              =    -278.65566188 Ry
     estimated scf accuracy    <       0.00000057 Ry

     iteration #  4     ecut=    90.00 Ry     beta= 0.70
     Davidson diagonalization with overlap
     ethr =  8.98E-10,  avg # of iterations =  3.2

     total cpu time spent up to now is      208.9 secs

     total energy              =    -278.65566205 Ry
     estimated scf accuracy    <       0.00000016 Ry

     iteration #  5     ecut=    90.00 Ry     beta= 0.70
     Davidson diagonalization with overlap
     ethr =  2.53E-10,  avg # of iterations =  3.1

     total cpu time spent up to now is      211.0 secs

     total energy              =    -278.65566208 Ry
     estimated scf accuracy    <       0.00000001 Ry

     iteration #  6     ecut=    90.00 Ry     beta= 0.70
     Davidson diagonalization with overlap
     ethr =  1.64E-11,  avg # of iterations =  2.9

     total cpu time spent up to now is      213.2 secs

     total energy              =    -278.65566208 Ry
     estimated scf accuracy    <          1.4E-09 Ry

     iteration #  7     ecut=    90.00 Ry     beta= 0.70
     Davidson diagonalization with overlap
     ethr =  2.22E-12,  avg # of iterations =  2.4

     total cpu time spent up to now is      215.2 secs

     End of self-consistent calculation

     Number of k-points >= 100: set verbosity='high' to print the bands.

     highest occupied level (ev):    -0.0072

!    total energy              =    -278.65566208 Ry
     estimated scf accuracy    <          1.8E-10 Ry

     The total energy is the sum of the following terms:
     one-electron contribution =    -116.02657343 Ry
     hartree contribution      =      86.90650936 Ry
     xc contribution           =     -70.94232538 Ry
     ewald contribution        =    -178.59327264 Ry

     convergence has been achieved in   7 iterations

     Forces acting on atoms (cartesian axes, Ry/au):

     atom    1 type  2   force =    -0.00000000    0.00000003    0.00094806
     atom    2 type  2   force =    -0.00000000   -0.00000003   -0.00094806
     atom    3 type  2   force =    -0.00000000    0.00000002    0.00106101
     atom    4 type  2   force =    -0.00000000   -0.00000002   -0.00106101
     atom    5 type  2   force =     0.00000000    0.00000000    0.00099536
     atom    6 type  2   force =     0.00000000   -0.00000000   -0.00099536
     atom    7 type  2   force =     0.00000000    0.00000000    0.00103940
     atom    8 type  2   force =     0.00000000   -0.00000000   -0.00103940
     atom    9 type  1   force =     0.00000000   -0.00107662   -0.00001060
     atom   10 type  1   force =     0.00000000    0.00107662    0.00001060
     atom   11 type  1   force =     0.00000000    0.00122421   -0.00004906
     atom   12 type  1   force =     0.00000000   -0.00122421    0.00004906
     atom   13 type  1   force =     0.00114807   -0.00000000   -0.00003740
     atom   14 type  1   force =    -0.00114807    0.00000000    0.00003740
     atom   15 type  1   force =    -0.00117043   -0.00000000    0.00001599
     atom   16 type  1   force =     0.00117043    0.00000000   -0.00001599
     atom   17 type  1   force =    -0.00117043    0.00000000   -0.00001599
     atom   18 type  1   force =     0.00117043   -0.00000000    0.00001599
     atom   19 type  1   force =     0.00114807    0.00000000    0.00003740
     atom   20 type  1   force =    -0.00114807   -0.00000000   -0.00003740
     atom   21 type  1   force =     0.00000000   -0.00122423   -0.00004907
     atom   22 type  1   force =     0.00000000    0.00122423    0.00004907
     atom   23 type  1   force =     0.00000000    0.00107659   -0.00001058
     atom   24 type  1   force =     0.00000000   -0.00107659    0.00001058

     Total force =     0.005440     Total SCF correction =     0.000049


     Computing stress (Cartesian axis) and pressure

          total   stress  (Ry/bohr**3)                   (kbar)     P=       56.24
   0.00037997   0.00000000   0.00000000           55.90        0.00        0.00
   0.00000000   0.00037982  -0.00000000            0.00       55.87       -0.00
   0.00000000  -0.00000000   0.00038712            0.00       -0.00       56.95

     Energy error            =      1.4E-04 Ry
     Gradient error          =      1.2E-03 Ry/Bohr

     number of scf cycles    =  12
     number of bfgs steps    =  11

     energy             old  =    -278.6555201790 Ry
     energy             new  =    -278.6556620850 Ry

     CASE: energy            _new < energy            _old

     new trust radius        =       0.0139555985 bohr
     new conv_thr            =       0.0000000012 Ry


ATOMIC_POSITIONS (crystal)
O               -0.0000000000        0.2500000081        0.6106185825
O               -0.0000000000        0.7499999919        0.3893814465
O                0.5000000000        0.7500000043        0.1109822511
O                0.5000000000        0.2499999957        0.8890177199
O               -0.0000000000        0.7499999963        0.8608069015
O               -0.0000000000        0.2500000037        0.1391931275
O                0.5000000000        0.2499999977        0.3608113745
O                0.5000000000        0.7500000023        0.6391885965
H                0.0000000000        0.4222596827        0.7007140281
H                0.0000000000        0.5777402873        0.2992859719
H                0.5000000000        0.5776740281        0.2010318936
H                0.5000000000        0.4223259419        0.7989681064
H                0.8277141033        0.7500000006        0.9508862805
H                0.1722858667        0.2499999994        0.0491137195
H                0.6723248559        0.2500000004        0.4508495406
H                0.3276751741        0.7499999996        0.5491504594
H                0.6723248559        0.7499999996        0.5491504594
H                0.3276751741        0.2500000004        0.4508495406
H                0.8277141033        0.2499999994        0.0491137195
H                0.1722858667        0.7500000006        0.9508862805
H                0.5000000000        0.9223259687        0.2010318925
H                0.5000000000        0.0776740613        0.7989681075
H                0.0000000000        0.0777403119        0.7007140309
H                0.0000000000        0.9222597181        0.2992859691



     Writing config-only to output data dir ./iceVIII/iceVIII.save/ :
     XML data file
     NEW-OLD atomic charge density approx. for the potential

     total cpu time spent up to now is      217.0 secs

     per-process dynamical memory:    20.1 Mb

     Self-consistent Calculation

     iteration #  1     ecut=    90.00 Ry     beta= 0.70
     Davidson diagonalization with overlap
     ethr =  1.00E-06,  avg # of iterations =  4.2

     total cpu time spent up to now is      220.2 secs

     total energy              =    -278.65569326 Ry
     estimated scf accuracy    <       0.00015825 Ry

     iteration #  2     ecut=    90.00 Ry     beta= 0.70
     Davidson diagonalization with overlap
     ethr =  2.47E-07,  avg # of iterations =  2.2

     total cpu time spent up to now is      222.1 secs

     total energy              =    -278.65572150 Ry
     estimated scf accuracy    <       0.00001136 Ry

     iteration #  3     ecut=    90.00 Ry     beta= 0.70
     Davidson diagonalization with overlap
     ethr =  1.78E-08,  avg # of iterations =  3.1

     total cpu time spent up to now is      224.3 secs

     total energy              =    -278.65572411 Ry
     estimated scf accuracy    <       0.00000119 Ry

     iteration #  4     ecut=    90.00 Ry     beta= 0.70
     Davidson diagonalization with overlap
     ethr =  1.85E-09,  avg # of iterations =  2.7

     total cpu time spent up to now is      226.5 secs

     total energy              =    -278.65572444 Ry
     estimated scf accuracy    <       0.00000019 Ry

     iteration #  5     ecut=    90.00 Ry     beta= 0.70
     Davidson diagonalization with overlap
     ethr =  2.92E-10,  avg # of iterations =  2.1

     total cpu time spent up to now is      228.6 secs

     total energy              =    -278.65572446 Ry
     estimated scf accuracy    <       0.00000001 Ry

     iteration #  6     ecut=    90.00 Ry     beta= 0.70
     Davidson diagonalization with overlap
     ethr =  1.71E-11,  avg # of iterations =  3.3

     total cpu time spent up to now is      230.9 secs

     End of self-consistent calculation

     Number of k-points >= 100: set verbosity='high' to print the bands.

     highest occupied level (ev):    -0.0024

!    total energy              =    -278.65572447 Ry
     estimated scf accuracy    <          1.1E-09 Ry

     The total energy is the sum of the following terms:
     one-electron contribution =    -115.95738246 Ry
     hartree contribution      =      86.86922725 Ry
     xc contribution           =     -70.94443124 Ry
     ewald contribution        =    -178.62313802 Ry

     convergence has been achieved in   6 iterations

     Forces acting on atoms (cartesian axes, Ry/au):

     atom    1 type  2   force =     0.00000000   -0.00000012    0.00042341
     atom    2 type  2   force =     0.00000000    0.00000012   -0.00042341
     atom    3 type  2   force =    -0.00000000   -0.00000006    0.00044543
     atom    4 type  2   force =    -0.00000000    0.00000006   -0.00044543
     atom    5 type  2   force =    -0.00000000    0.00000001    0.00042517
     atom    6 type  2   force =    -0.00000000   -0.00000001   -0.00042517
     atom    7 type  2   force =     0.00000000    0.00000000    0.00047179
     atom    8 type  2   force =     0.00000000   -0.00000000   -0.00047179
     atom    9 type  1   force =     0.00000000   -0.00044645   -0.00020817
     atom   10 type  1   force =     0.00000000    0.00044645    0.00020817
     atom   11 type  1   force =     0.00000000    0.00057253   -0.00026785
     atom   12 type  1   force =     0.00000000   -0.00057253    0.00026785
     atom   13 type  1   force =     0.00050786   -0.00000000   -0.00025447
     atom   14 type  1   force =    -0.00050786    0.00000000    0.00025447
     atom   15 type  1   force =    -0.00053529    0.00000000   -0.00018440
     atom   16 type  1   force =     0.00053529   -0.00000000    0.00018440
     atom   17 type  1   force =    -0.00053529   -0.00000000    0.00018440
     atom   18 type  1   force =     0.00053529    0.00000000   -0.00018440
     atom   19 type  1   force =     0.00050786    0.00000000    0.00025447
     atom   20 type  1   force =    -0.00050786   -0.00000000   -0.00025447
     atom   21 type  1   force =     0.00000000   -0.00057247   -0.00026780
     atom   22 type  1   force =     0.00000000    0.00057247    0.00026780
     atom   23 type  1   force =     0.00000000    0.00044656   -0.00020825
     atom   24 type  1   force =     0.00000000   -0.00044656    0.00020825

     Total force =     0.002589     Total SCF correction =     0.000028


     Computing stress (Cartesian axis) and pressure

          total   stress  (Ry/bohr**3)                   (kbar)     P=       56.72
   0.00038528   0.00000000   0.00000000           56.68        0.00        0.00
   0.00000000   0.00038511   0.00000000            0.00       56.65        0.00
   0.00000000   0.00000000   0.00038639            0.00        0.00       56.84

     Energy error            =      6.2E-05 Ry
     Gradient error          =      5.7E-04 Ry/Bohr

     bfgs converged in  13 scf cycles and  12 bfgs steps
     (criteria: energy <  1.0E-04 Ry, force <  1.0E-03 Ry/Bohr)

     End of BFGS Geometry Optimization

     Final energy             =    -278.6557244668 Ry

     File ./iceVIII/iceVIII.bfgs deleted, as requested
Begin final coordinates

ATOMIC_POSITIONS (crystal)
O               -0.0000000000        0.2500000081        0.6106185825
O               -0.0000000000        0.7499999919        0.3893814465
O                0.5000000000        0.7500000043        0.1109822511
O                0.5000000000        0.2499999957        0.8890177199
O               -0.0000000000        0.7499999963        0.8608069015
O               -0.0000000000        0.2500000037        0.1391931275
O                0.5000000000        0.2499999977        0.3608113745
O                0.5000000000        0.7500000023        0.6391885965
H                0.0000000000        0.4222596827        0.7007140281
H                0.0000000000        0.5777402873        0.2992859719
H                0.5000000000        0.5776740281        0.2010318936
H                0.5000000000        0.4223259419        0.7989681064
H                0.8277141033        0.7500000006        0.9508862805
H                0.1722858667        0.2499999994        0.0491137195
H                0.6723248559        0.2500000004        0.4508495406
H                0.3276751741        0.7499999996        0.5491504594
H                0.6723248559        0.7499999996        0.5491504594
H                0.3276751741        0.2500000004        0.4508495406
H                0.8277141033        0.2499999994        0.0491137195
H                0.1722858667        0.7500000006        0.9508862805
H                0.5000000000        0.9223259687        0.2010318925
H                0.5000000000        0.0776740613        0.7989681075
H                0.0000000000        0.0777403119        0.7007140309
H                0.0000000000        0.9222597181        0.2992859691
End final coordinates



     Writing all to output data dir ./iceVIII/iceVIII.save/ :
     XML data file, charge density, pseudopotentials, collected wavefunctions

     init_run     :      2.66s CPU      2.73s WALL (       1 calls)
     electrons    :    201.69s CPU    206.03s WALL (      13 calls)
     update_pot   :      0.46s CPU      0.53s WALL (      12 calls)
     forces       :      1.68s CPU      1.69s WALL (      13 calls)
     stress       :     20.59s CPU     20.67s WALL (      13 calls)

     Called by init_run:
     wfcinit      :      0.85s CPU      0.88s WALL (       1 calls)
     potinit      :      1.57s CPU      1.59s WALL (       1 calls)
     hinit0       :      0.18s CPU      0.19s WALL (       1 calls)

     Called by electrons:
     c_bands      :    178.00s CPU    181.40s WALL (      89 calls)
     sum_band     :     20.39s CPU     20.64s WALL (      89 calls)
     v_of_rho     :      4.96s CPU      5.41s WALL (      95 calls)
     newd         :      0.10s CPU      0.16s WALL (      95 calls)
     mix_rho      :      0.08s CPU      0.08s WALL (      89 calls)
     vdW_kernel   :      1.52s CPU      1.52s WALL (       1 calls)

     Called by c_bands:
     init_us_2    :      2.18s CPU      2.25s WALL (    7380 calls)
     cegterg      :    171.65s CPU    173.66s WALL (    3204 calls)

     Called by *egterg:
     cdiaghg      :     20.61s CPU     20.74s WALL (   12010 calls)
     h_psi        :    127.17s CPU    128.92s WALL (   12730 calls)
     s_psi        :      4.67s CPU      4.72s WALL (   12730 calls)
     g_psi        :      0.41s CPU      0.41s WALL (    9490 calls)

     Called by h_psi:
     h_psi:calbec :      6.42s CPU      6.49s WALL (   12730 calls)
     vloc_psi     :    115.15s CPU    116.77s WALL (   12730 calls)
     add_vuspsi   :      5.05s CPU      5.12s WALL (   12730 calls)

     General routines
     calbec       :      9.53s CPU      9.64s WALL (   18274 calls)
     fft          :      2.21s CPU      2.28s WALL (    6490 calls)
     ffts         :      0.03s CPU      0.03s WALL (      89 calls)
     fftw         :    122.32s CPU    124.01s WALL (  762986 calls)

     Parallel routines

     PWSCF        :   3m48.38s CPU   3m55.32s WALL


   This run was terminated on:  14:54: 9   1Apr2026            

=------------------------------------------------------------------------------=
   JOB DONE.
=------------------------------------------------------------------------------=
