
     Program PWSCF v.7.3.1 starts on 26Mar2026 at 14:56:37 

     This program is part of the open-source Quantum ESPRESSO suite
     for quantum simulation of materials; please cite
         "P. Giannozzi et al., J. Phys.:Condens. Matter 21 395502 (2009);
         "P. Giannozzi et al., J. Phys.:Condens. Matter 29 465901 (2017);
         "P. Giannozzi et al., J. Chem. Phys. 152 154105 (2020);
          URL http://www.quantum-espresso.org", 
     in publications or presentations arising from this work. More details at
     http://www.quantum-espresso.org/quote

     Parallel version (MPI), running on   128 processors

     MPI processes distributed on     1 nodes
     242010 MiB available memory on the printing compute node when the environment starts

     Waiting for input...
     Reading input from standard input

     Current dimensions of program PWSCF are:
     Max number of different atomic species (ntypx) = 10
     Max number of k-points (npk) =  40000
     Max angular momentum in pseudopotentials (lmaxx) =  4

     IMPORTANT: XC functional enforced from input :
     Exchange-correlation= VDW-DF2
                           (   1   4  13   0   2   0   0)
     Any further DFT definition will be discarded
     Please, verify this is what you really want

     Found identity + ( -0.5000 -0.5000 -0.5000) symmetry
     This is a supercell, fractional translations are disabled

     K-points division:     npool     =       4
     R & G space division:  proc/nbgrp/npool/nimage =      32
     Subspace diagonalization in iterative solution of the eigenvalue problem:
     a serial algorithm will be used


     Parallelization info
     --------------------
     sticks:   dense  smooth     PW     G-vecs:    dense   smooth      PW
     Min          68      68     18                 3420     3420     496
     Max          69      69     19                 3424     3424     503
     Sum        2177    2177    593               109483   109483   15959

     Using Slab Decomposition



     bravais-lattice index     =            6
     lattice parameter (alat)  =       8.6985  a.u.
     unit-cell volume          =     949.2073 (a.u.)^3
     number of atoms/cell      =           24
     number of atomic types    =            2
     number of electrons       =        64.00
     number of Kohn-Sham states=           32
     kinetic-energy cutoff     =      90.0000  Ry
     charge density cutoff     =     360.0000  Ry
     scf convergence threshold =      1.0E-07
     mixing beta               =       0.7000
     number of iterations used =            8  plain     mixing
     Exchange-correlation= VDW-DF2
                           (   1   4  13   0   2   0   0)

     celldm(1)=   8.698522  celldm(2)=   0.000000  celldm(3)=   1.442197
     celldm(4)=   0.000000  celldm(5)=   0.000000  celldm(6)=   0.000000

     crystal axes: (cart. coord. in units of alat)
               a(1) = (   1.000000   0.000000   0.000000 )  
               a(2) = (   0.000000   1.000000   0.000000 )  
               a(3) = (   0.000000   0.000000   1.442197 )  

     reciprocal axes: (cart. coord. in units 2 pi/alat)
               b(1) = (  1.000000  0.000000  0.000000 )  
               b(2) = (  0.000000  1.000000  0.000000 )  
               b(3) = (  0.000000  0.000000  0.693386 )  


     PseudoPot. # 1 for H  read from file:
     ./H.pbe-van_ak.UPF
     MD5 check sum: 077eb6d537518a38cb46c6de387227b7
     Pseudo is Ultrasoft, Zval =  1.0
     Generated by new atomic code, or converted to UPF format
     Using radial grid of  615 points,  1 beta functions with: 
                l(1) =   0
     Q(r) pseudized with  8 coefficients,  rinner =    0.800

     PseudoPot. # 2 for O  read from file:
     ./O.pbe-van_ak.UPF
     MD5 check sum: 78c19812648e8988a0fe644b0f25305e
     Pseudo is Ultrasoft, Zval =  6.0
     Generated by new atomic code, or converted to UPF format
     Using radial grid of  737 points,  4 beta functions with: 
                l(1) =   0
                l(2) =   0
                l(3) =   1
                l(4) =   1
     Q(r) pseudized with  8 coefficients,  rinner =    0.800   0.800   0.800


     atomic species   valence    mass     pseudopotential
     H                 1.00     1.00800     H ( 1.00)
     O                 6.00    16.00000     O ( 1.00)

      4 Sym. Ops., with inversion, found



   Cartesian axes

     site n.     atom                  positions (alat units)
         1        O      tau(   1) = (   0.0000000   0.2500000   0.8763462  )
         2        O      tau(   2) = (   0.0000000   0.7500000   0.5658510  )
         3        O      tau(   3) = (   0.5000000   0.7500000   0.1552476  )
         4        O      tau(   4) = (   0.5000000   0.2500000   1.2869495  )
         5        O      tau(   5) = (   0.0000000   0.7500000   1.2368921  )
         6        O      tau(   6) = (   0.0000000   0.2500000   0.2053051  )
         7        O      tau(   7) = (   0.5000000   0.2500000   0.5157934  )
         8        O      tau(   8) = (   0.5000000   0.7500000   0.9264037  )
         9        H      tau(   9) = (   0.0000000   0.4175939   1.0039395  )
        10        H      tau(  10) = (   0.0000000   0.5824060   0.4382577  )
        11        H      tau(  11) = (   0.5000000   0.5824060   0.2828409  )
        12        H      tau(  12) = (   0.5000000   0.4175939   1.1593562  )
        13        H      tau(  13) = (   0.8324057   0.7500000   1.3644894  )
        14        H      tau(  14) = (   0.1675943   0.2500000   0.0777077  )
        15        H      tau(  15) = (   0.6675943   0.2500000   0.6433908  )
        16        H      tau(  16) = (   0.3324057   0.7500000   0.7988063  )
        17        H      tau(  17) = (   0.6675943   0.7500000   0.7988063  )
        18        H      tau(  18) = (   0.3324057   0.2500000   0.6433908  )
        19        H      tau(  19) = (   0.8324057   0.2500000   0.0777077  )
        20        H      tau(  20) = (   0.1675943   0.7500000   1.3644894  )
        21        H      tau(  21) = (   0.5000000   0.9175940   0.2828409  )
        22        H      tau(  22) = (   0.5000000   0.0824061   1.1593562  )
        23        H      tau(  23) = (   0.0000000   0.0824061   1.0039395  )
        24        H      tau(  24) = (   0.0000000   0.9175940   0.4382577  )

     number of k points=   144

     Number of k-points >= 100: set verbosity='high' to print them.

     Dense  grid:   109483 G-vectors     FFT dimensions: (  54,  54,  75)

     Estimated max dynamical RAM per process >      12.71 MB

     Estimated total dynamical RAM >       1.51 GB

     Initial potential from superposition of free atoms

     starting charge      63.9998, renormalised to      64.0000


     %%%%%%%%%%%%%%%%%%%%%%%%%%%%%%%%%%%%%%%%%%%%%%%%%%%%%%%%%%%%%%%%%%%%%%%%
     %                                                                      %
     % You are using vdW-DF, which was implemented by the Thonhauser group. %
     % Please cite the following two papers that made this development      %
     % possible and the two reviews that describe the various versions:     %
     %                                                                      %
     %   T. Thonhauser et al., PRL 115, 136402 (2015).                      %
     %   T. Thonhauser et al., PRB 76, 125112 (2007).                       %
     %   K. Berland et al., Rep. Prog. Phys. 78, 066501 (2015).             %
     %   D.C. Langreth et al., J. Phys.: Condens. Matter 21, 084203 (2009). %
     %                                                                      %
     % If you are calculating stress with vdW-DF, please also cite:         %
     %                                                                      %
     %   R. Sabatini et al., J. Phys.: Condens. Matter 24, 424209 (2012).   %
     %                                                                      %
     %%%%%%%%%%%%%%%%%%%%%%%%%%%%%%%%%%%%%%%%%%%%%%%%%%%%%%%%%%%%%%%%%%%%%%%%

     %%%%%%%%%%%%%%%%%%%%%%%%%%%%%%%%%%%%%%%%%%%%%%%%%%%%%%%%%%%%%%%%%%%%%%%%
     %                                                                      %
     %  vdW-DF NEWS:                                                        %
     %                                                                      %
     %  * vdW-DF3 is now available. DOI: 10.1021/acs.jctc.0c00471           %
     %    use with input_dft = 'vdW-DF3-opt1' or 'vdW-DF3-opt2'             %
     %                                                                      %
     %  * Unscreened and range-separated hybrid vdW-DF-cx functionals       %
     %    DOI: 10.1063/1.4986522 and 10.1088/1361-648X/ac2ad2               %
     %    use with input_dft = 'vdW-DF-cx0'    and 'vdW-DF-ahcx'            %
     %  * Unscreened and range-separated hybrid vdW-DF2-b86r functionals    %
     %    DOI: 10.1063/1.4986522 and DOI: 10.1103/PhysRevX.12.041003        %
     %    use with input_dft = 'vdW-DF2-br0' and 'vdW-DF2-ahbr'             %
     %                                                                      %
     %%%%%%%%%%%%%%%%%%%%%%%%%%%%%%%%%%%%%%%%%%%%%%%%%%%%%%%%%%%%%%%%%%%%%%%%


     Starting wfcs are   48 randomized atomic wfcs

     total cpu time spent up to now is        3.0 secs

     per-process dynamical memory:    19.3 Mb

     Self-consistent Calculation

     iteration #  1     ecut=    90.00 Ry     beta= 0.70
     Davidson diagonalization with overlap
     ethr =  1.00E-02,  avg # of iterations =  2.0

     total cpu time spent up to now is        4.9 secs

     total energy              =    -277.26419874 Ry
     estimated scf accuracy    <       3.17830903 Ry

     iteration #  2     ecut=    90.00 Ry     beta= 0.70
     Davidson diagonalization with overlap
     ethr =  4.97E-03,  avg # of iterations =  3.0

     total cpu time spent up to now is        7.4 secs

     total energy              =    -278.36211195 Ry
     estimated scf accuracy    <       1.84887751 Ry

     iteration #  3     ecut=    90.00 Ry     beta= 0.70
     Davidson diagonalization with overlap
     ethr =  2.89E-03,  avg # of iterations =  2.0

     total cpu time spent up to now is        9.3 secs

     total energy              =    -278.57554744 Ry
     estimated scf accuracy    <       0.08608633 Ry

     iteration #  4     ecut=    90.00 Ry     beta= 0.70
     Davidson diagonalization with overlap
     ethr =  1.35E-04,  avg # of iterations =  4.3

     total cpu time spent up to now is       12.2 secs

     total energy              =    -278.63728727 Ry
     estimated scf accuracy    <       0.11527312 Ry

     iteration #  5     ecut=    90.00 Ry     beta= 0.70
     Davidson diagonalization with overlap
     ethr =  1.35E-04,  avg # of iterations =  2.0

     total cpu time spent up to now is       14.0 secs

     total energy              =    -278.63988254 Ry
     estimated scf accuracy    <       0.01763878 Ry

     iteration #  6     ecut=    90.00 Ry     beta= 0.70
     Davidson diagonalization with overlap
     ethr =  2.76E-05,  avg # of iterations =  2.6

     total cpu time spent up to now is       16.1 secs

     total energy              =    -278.64415090 Ry
     estimated scf accuracy    <       0.00035038 Ry

     iteration #  7     ecut=    90.00 Ry     beta= 0.70
     Davidson diagonalization with overlap
     ethr =  5.47E-07,  avg # of iterations =  4.6

     total cpu time spent up to now is       19.1 secs

     total energy              =    -278.64459192 Ry
     estimated scf accuracy    <       0.00038356 Ry

     iteration #  8     ecut=    90.00 Ry     beta= 0.70
     Davidson diagonalization with overlap
     ethr =  5.47E-07,  avg # of iterations =  2.0

     total cpu time spent up to now is       20.8 secs

     total energy              =    -278.64459654 Ry
     estimated scf accuracy    <       0.00006071 Ry

     iteration #  9     ecut=    90.00 Ry     beta= 0.70
     Davidson diagonalization with overlap
     ethr =  9.49E-08,  avg # of iterations =  2.6

     total cpu time spent up to now is       23.0 secs

     total energy              =    -278.64461357 Ry
     estimated scf accuracy    <       0.00000114 Ry

     iteration # 10     ecut=    90.00 Ry     beta= 0.70
     Davidson diagonalization with overlap
     ethr =  1.78E-09,  avg # of iterations =  4.6

     total cpu time spent up to now is       25.6 secs

     End of self-consistent calculation

     Number of k-points >= 100: set verbosity='high' to print the bands.

     highest occupied level (ev):    -0.1074

!    total energy              =    -278.64461424 Ry
     estimated scf accuracy    <       0.00000009 Ry

     The total energy is the sum of the following terms:
     one-electron contribution =    -119.38533830 Ry
     hartree contribution      =      88.33946964 Ry
     xc contribution           =     -71.21281389 Ry
     ewald contribution        =    -176.38593170 Ry

     convergence has been achieved in  10 iterations

     Forces acting on atoms (cartesian axes, Ry/au):

     atom    1 type  2   force =     0.00000000    0.00000012   -0.03572881
     atom    2 type  2   force =     0.00000000   -0.00000012    0.03572881
     atom    3 type  2   force =     0.00000000    0.00000008   -0.03542990
     atom    4 type  2   force =     0.00000000   -0.00000008    0.03542990
     atom    5 type  2   force =     0.00000000    0.00000008   -0.03546755
     atom    6 type  2   force =     0.00000000   -0.00000008    0.03546755
     atom    7 type  2   force =    -0.00000000   -0.00000003   -0.03554208
     atom    8 type  2   force =    -0.00000000    0.00000003    0.03554208
     atom    9 type  1   force =     0.00000000    0.03066685    0.01922889
     atom   10 type  1   force =     0.00000000   -0.03066685   -0.01922889
     atom   11 type  1   force =     0.00000000   -0.03066985    0.01920464
     atom   12 type  1   force =     0.00000000    0.03066985   -0.01920464
     atom   13 type  1   force =    -0.03066736   -0.00000001    0.01918067
     atom   14 type  1   force =     0.03066736    0.00000001   -0.01918067
     atom   15 type  1   force =     0.03066785   -0.00000002    0.01919204
     atom   16 type  1   force =    -0.03066785    0.00000002   -0.01919204
     atom   17 type  1   force =     0.03066785    0.00000002   -0.01919204
     atom   18 type  1   force =    -0.03066785   -0.00000002    0.01919204
     atom   19 type  1   force =    -0.03066736    0.00000001   -0.01918067
     atom   20 type  1   force =     0.03066736   -0.00000001    0.01918067
     atom   21 type  1   force =     0.00000000    0.03066987    0.01920468
     atom   22 type  1   force =     0.00000000   -0.03066987   -0.01920468
     atom   23 type  1   force =     0.00000000   -0.03066686    0.01922886
     atom   24 type  1   force =     0.00000000    0.03066686   -0.01922886

     Total force =     0.176220     Total SCF correction =     0.000121


     Computing stress (Cartesian axis) and pressure

          total   stress  (Ry/bohr**3)                   (kbar)     P=      113.79
   0.00077258   0.00000000   0.00000000          113.65        0.00        0.00
   0.00000000   0.00077251   0.00000000            0.00      113.64        0.00
   0.00000000   0.00000000   0.00077540            0.00        0.00      114.07


     Writing all to output data dir ./iceVIII/iceVIII.save/ :
     XML data file, charge density, pseudopotentials, collected wavefunctions

     init_run     :      2.65s CPU      2.74s WALL (       1 calls)
     electrons    :     22.08s CPU     22.67s WALL (       1 calls)
     forces       :      0.12s CPU      0.14s WALL (       1 calls)
     stress       :      1.59s CPU      1.62s WALL (       1 calls)

     Called by init_run:
     wfcinit      :      0.86s CPU      0.88s WALL (       1 calls)
     potinit      :      1.56s CPU      1.59s WALL (       1 calls)
     hinit0       :      0.19s CPU      0.20s WALL (       1 calls)

     Called by electrons:
     c_bands      :     19.38s CPU     19.82s WALL (      10 calls)
     sum_band     :      2.29s CPU      2.34s WALL (      10 calls)
     v_of_rho     :      1.93s CPU      2.00s WALL (      11 calls)
     newd         :      0.01s CPU      0.02s WALL (      11 calls)
     mix_rho      :      0.01s CPU      0.01s WALL (      10 calls)
     vdW_kernel   :      1.51s CPU      1.52s WALL (       1 calls)

     Called by c_bands:
     init_us_2    :      0.24s CPU      0.25s WALL (     828 calls)
     cegterg      :     18.27s CPU     18.54s WALL (     360 calls)

     Called by *egterg:
     cdiaghg      :      2.34s CPU      2.37s WALL (    1412 calls)
     h_psi        :     14.07s CPU     14.30s WALL (    1448 calls)
     s_psi        :      0.51s CPU      0.52s WALL (    1448 calls)
     g_psi        :      0.04s CPU      0.04s WALL (    1052 calls)

     Called by h_psi:
     h_psi:calbec :      0.71s CPU      0.72s WALL (    1448 calls)
     vloc_psi     :     12.74s CPU     12.95s WALL (    1448 calls)
     add_vuspsi   :      0.55s CPU      0.56s WALL (    1448 calls)

     General routines
     calbec       :      1.04s CPU      1.06s WALL (    1988 calls)
     fft          :      0.41s CPU      0.42s WALL (     723 calls)
     ffts         :      0.00s CPU      0.00s WALL (      10 calls)
     fftw         :     13.56s CPU     13.79s WALL (   85276 calls)

     Parallel routines

     PWSCF        :     27.18s CPU     28.72s WALL


   This run was terminated on:  14:57: 6  26Mar2026            

=------------------------------------------------------------------------------=
   JOB DONE.
=------------------------------------------------------------------------------=
