
     Program PWSCF v.7.3.1 starts on 26Mar2026 at 14:57:10 

     This program is part of the open-source Quantum ESPRESSO suite
     for quantum simulation of materials; please cite
         "P. Giannozzi et al., J. Phys.:Condens. Matter 21 395502 (2009);
         "P. Giannozzi et al., J. Phys.:Condens. Matter 29 465901 (2017);
         "P. Giannozzi et al., J. Chem. Phys. 152 154105 (2020);
          URL http://www.quantum-espresso.org", 
     in publications or presentations arising from this work. More details at
     http://www.quantum-espresso.org/quote

     Parallel version (MPI), running on   128 processors

     MPI processes distributed on     1 nodes
     242045 MiB available memory on the printing compute node when the environment starts

     Waiting for input...
     Reading input from standard input

     Current dimensions of program PWSCF are:
     Max number of different atomic species (ntypx) = 10
     Max number of k-points (npk) =  40000
     Max angular momentum in pseudopotentials (lmaxx) =  4

     IMPORTANT: XC functional enforced from input :
     Exchange-correlation= VDW-DF2
                           (   1   4  13   0   2   0   0)
     Any further DFT definition will be discarded
     Please, verify this is what you really want

     Found identity + ( -0.5000 -0.5000 -0.5000) symmetry
     This is a supercell, fractional translations are disabled

     K-points division:     npool     =       4
     R & G space division:  proc/nbgrp/npool/nimage =      32
     Subspace diagonalization in iterative solution of the eigenvalue problem:
     a serial algorithm will be used


     Parallelization info
     --------------------
     sticks:   dense  smooth     PW     G-vecs:    dense   smooth      PW
     Min          68      68     18                 3438     3438     498
     Max          69      69     19                 3443     3443     505
     Sum        2185    2185    593               110091   110091   16023

     Using Slab Decomposition



     bravais-lattice index     =            6
     lattice parameter (alat)  =       8.7163  a.u.
     unit-cell volume          =     955.0306 (a.u.)^3
     number of atoms/cell      =           24
     number of atomic types    =            2
     number of electrons       =        64.00
     number of Kohn-Sham states=           32
     kinetic-energy cutoff     =      90.0000  Ry
     charge density cutoff     =     360.0000  Ry
     scf convergence threshold =      1.0E-07
     mixing beta               =       0.7000
     number of iterations used =            8  plain     mixing
     Exchange-correlation= VDW-DF2
                           (   1   4  13   0   2   0   0)

     celldm(1)=   8.716274  celldm(2)=   0.000000  celldm(3)=   1.442197
     celldm(4)=   0.000000  celldm(5)=   0.000000  celldm(6)=   0.000000

     crystal axes: (cart. coord. in units of alat)
               a(1) = (   1.000000   0.000000   0.000000 )  
               a(2) = (   0.000000   1.000000   0.000000 )  
               a(3) = (   0.000000   0.000000   1.442197 )  

     reciprocal axes: (cart. coord. in units 2 pi/alat)
               b(1) = (  1.000000  0.000000  0.000000 )  
               b(2) = (  0.000000  1.000000  0.000000 )  
               b(3) = (  0.000000  0.000000  0.693386 )  


     PseudoPot. # 1 for H  read from file:
     ./H.pbe-van_ak.UPF
     MD5 check sum: 077eb6d537518a38cb46c6de387227b7
     Pseudo is Ultrasoft, Zval =  1.0
     Generated by new atomic code, or converted to UPF format
     Using radial grid of  615 points,  1 beta functions with: 
                l(1) =   0
     Q(r) pseudized with  8 coefficients,  rinner =    0.800

     PseudoPot. # 2 for O  read from file:
     ./O.pbe-van_ak.UPF
     MD5 check sum: 78c19812648e8988a0fe644b0f25305e
     Pseudo is Ultrasoft, Zval =  6.0
     Generated by new atomic code, or converted to UPF format
     Using radial grid of  737 points,  4 beta functions with: 
                l(1) =   0
                l(2) =   0
                l(3) =   1
                l(4) =   1
     Q(r) pseudized with  8 coefficients,  rinner =    0.800   0.800   0.800


     atomic species   valence    mass     pseudopotential
     H                 1.00     1.00800     H ( 1.00)
     O                 6.00    16.00000     O ( 1.00)

      4 Sym. Ops., with inversion, found



   Cartesian axes

     site n.     atom                  positions (alat units)
         1        O      tau(   1) = (   0.0000000   0.2500000   0.8763462  )
         2        O      tau(   2) = (   0.0000000   0.7500000   0.5658510  )
         3        O      tau(   3) = (   0.5000000   0.7500000   0.1552476  )
         4        O      tau(   4) = (   0.5000000   0.2500000   1.2869495  )
         5        O      tau(   5) = (   0.0000000   0.7500000   1.2368921  )
         6        O      tau(   6) = (   0.0000000   0.2500000   0.2053051  )
         7        O      tau(   7) = (   0.5000000   0.2500000   0.5157934  )
         8        O      tau(   8) = (   0.5000000   0.7500000   0.9264037  )
         9        H      tau(   9) = (   0.0000000   0.4175939   1.0039395  )
        10        H      tau(  10) = (   0.0000000   0.5824060   0.4382577  )
        11        H      tau(  11) = (   0.5000000   0.5824060   0.2828409  )
        12        H      tau(  12) = (   0.5000000   0.4175939   1.1593562  )
        13        H      tau(  13) = (   0.8324057   0.7500000   1.3644894  )
        14        H      tau(  14) = (   0.1675943   0.2500000   0.0777077  )
        15        H      tau(  15) = (   0.6675943   0.2500000   0.6433908  )
        16        H      tau(  16) = (   0.3324057   0.7500000   0.7988063  )
        17        H      tau(  17) = (   0.6675943   0.7500000   0.7988063  )
        18        H      tau(  18) = (   0.3324057   0.2500000   0.6433908  )
        19        H      tau(  19) = (   0.8324057   0.2500000   0.0777077  )
        20        H      tau(  20) = (   0.1675943   0.7500000   1.3644894  )
        21        H      tau(  21) = (   0.5000000   0.9175940   0.2828409  )
        22        H      tau(  22) = (   0.5000000   0.0824061   1.1593562  )
        23        H      tau(  23) = (   0.0000000   0.0824061   1.0039395  )
        24        H      tau(  24) = (   0.0000000   0.9175940   0.4382577  )

     number of k points=   144

     Number of k-points >= 100: set verbosity='high' to print them.

     Dense  grid:   110091 G-vectors     FFT dimensions: (  54,  54,  75)

     Estimated max dynamical RAM per process >      12.79 MB

     Estimated total dynamical RAM >       1.52 GB

     Initial potential from superposition of free atoms

     starting charge      63.9998, renormalised to      64.0000


     %%%%%%%%%%%%%%%%%%%%%%%%%%%%%%%%%%%%%%%%%%%%%%%%%%%%%%%%%%%%%%%%%%%%%%%%
     %                                                                      %
     % You are using vdW-DF, which was implemented by the Thonhauser group. %
     % Please cite the following two papers that made this development      %
     % possible and the two reviews that describe the various versions:     %
     %                                                                      %
     %   T. Thonhauser et al., PRL 115, 136402 (2015).                      %
     %   T. Thonhauser et al., PRB 76, 125112 (2007).                       %
     %   K. Berland et al., Rep. Prog. Phys. 78, 066501 (2015).             %
     %   D.C. Langreth et al., J. Phys.: Condens. Matter 21, 084203 (2009). %
     %                                                                      %
     % If you are calculating stress with vdW-DF, please also cite:         %
     %                                                                      %
     %   R. Sabatini et al., J. Phys.: Condens. Matter 24, 424209 (2012).   %
     %                                                                      %
     %%%%%%%%%%%%%%%%%%%%%%%%%%%%%%%%%%%%%%%%%%%%%%%%%%%%%%%%%%%%%%%%%%%%%%%%

     %%%%%%%%%%%%%%%%%%%%%%%%%%%%%%%%%%%%%%%%%%%%%%%%%%%%%%%%%%%%%%%%%%%%%%%%
     %                                                                      %
     %  vdW-DF NEWS:                                                        %
     %                                                                      %
     %  * vdW-DF3 is now available. DOI: 10.1021/acs.jctc.0c00471           %
     %    use with input_dft = 'vdW-DF3-opt1' or 'vdW-DF3-opt2'             %
     %                                                                      %
     %  * Unscreened and range-separated hybrid vdW-DF-cx functionals       %
     %    DOI: 10.1063/1.4986522 and 10.1088/1361-648X/ac2ad2               %
     %    use with input_dft = 'vdW-DF-cx0'    and 'vdW-DF-ahcx'            %
     %  * Unscreened and range-separated hybrid vdW-DF2-b86r functionals    %
     %    DOI: 10.1063/1.4986522 and DOI: 10.1103/PhysRevX.12.041003        %
     %    use with input_dft = 'vdW-DF2-br0' and 'vdW-DF2-ahbr'             %
     %                                                                      %
     %%%%%%%%%%%%%%%%%%%%%%%%%%%%%%%%%%%%%%%%%%%%%%%%%%%%%%%%%%%%%%%%%%%%%%%%


     Starting wfcs are   48 randomized atomic wfcs

     total cpu time spent up to now is        3.0 secs

     per-process dynamical memory:    19.3 Mb

     Self-consistent Calculation

     iteration #  1     ecut=    90.00 Ry     beta= 0.70
     Davidson diagonalization with overlap
     ethr =  1.00E-02,  avg # of iterations =  2.0

     total cpu time spent up to now is        5.0 secs

     total energy              =    -277.26854975 Ry
     estimated scf accuracy    <       3.17126344 Ry

     iteration #  2     ecut=    90.00 Ry     beta= 0.70
     Davidson diagonalization with overlap
     ethr =  4.96E-03,  avg # of iterations =  3.0

     total cpu time spent up to now is        7.5 secs

     total energy              =    -278.36289173 Ry
     estimated scf accuracy    <       1.86792825 Ry

     iteration #  3     ecut=    90.00 Ry     beta= 0.70
     Davidson diagonalization with overlap
     ethr =  2.92E-03,  avg # of iterations =  2.0

     total cpu time spent up to now is        9.3 secs

     total energy              =    -278.57922743 Ry
     estimated scf accuracy    <       0.08703923 Ry

     iteration #  4     ecut=    90.00 Ry     beta= 0.70
     Davidson diagonalization with overlap
     ethr =  1.36E-04,  avg # of iterations =  4.4

     total cpu time spent up to now is       12.2 secs

     total energy              =    -278.64215025 Ry
     estimated scf accuracy    <       0.11542708 Ry

     iteration #  5     ecut=    90.00 Ry     beta= 0.70
     Davidson diagonalization with overlap
     ethr =  1.36E-04,  avg # of iterations =  2.0

     total cpu time spent up to now is       14.1 secs

     total energy              =    -278.64449158 Ry
     estimated scf accuracy    <       0.01787327 Ry

     iteration #  6     ecut=    90.00 Ry     beta= 0.70
     Davidson diagonalization with overlap
     ethr =  2.79E-05,  avg # of iterations =  2.5

     total cpu time spent up to now is       16.2 secs

     total energy              =    -278.64869056 Ry
     estimated scf accuracy    <       0.00040517 Ry

     iteration #  7     ecut=    90.00 Ry     beta= 0.70
     Davidson diagonalization with overlap
     ethr =  6.33E-07,  avg # of iterations =  4.4

     total cpu time spent up to now is       19.2 secs

     total energy              =    -278.64915133 Ry
     estimated scf accuracy    <       0.00036146 Ry

     iteration #  8     ecut=    90.00 Ry     beta= 0.70
     Davidson diagonalization with overlap
     ethr =  5.65E-07,  avg # of iterations =  1.5

     total cpu time spent up to now is       20.8 secs

     total energy              =    -278.64915469 Ry
     estimated scf accuracy    <       0.00006112 Ry

     iteration #  9     ecut=    90.00 Ry     beta= 0.70
     Davidson diagonalization with overlap
     ethr =  9.55E-08,  avg # of iterations =  2.5

     total cpu time spent up to now is       22.9 secs

     total energy              =    -278.64916974 Ry
     estimated scf accuracy    <       0.00000294 Ry

     iteration # 10     ecut=    90.00 Ry     beta= 0.70
     Davidson diagonalization with overlap
     ethr =  4.59E-09,  avg # of iterations =  3.4

     total cpu time spent up to now is       25.0 secs

     total energy              =    -278.64916999 Ry
     estimated scf accuracy    <       0.00000129 Ry

     iteration # 11     ecut=    90.00 Ry     beta= 0.70
     Davidson diagonalization with overlap
     ethr =  2.01E-09,  avg # of iterations =  1.9

     total cpu time spent up to now is       26.7 secs

     total energy              =    -278.64916986 Ry
     estimated scf accuracy    <       0.00000042 Ry

     iteration # 12     ecut=    90.00 Ry     beta= 0.70
     Davidson diagonalization with overlap
     ethr =  6.61E-10,  avg # of iterations =  2.3

     total cpu time spent up to now is       28.8 secs

     End of self-consistent calculation

     Number of k-points >= 100: set verbosity='high' to print the bands.

     highest occupied level (ev):    -0.1538

!    total energy              =    -278.64916997 Ry
     estimated scf accuracy    <          3.5E-09 Ry

     The total energy is the sum of the following terms:
     one-electron contribution =    -119.99901623 Ry
     hartree contribution      =      88.54977082 Ry
     xc contribution           =     -71.17323101 Ry
     ewald contribution        =    -176.02669355 Ry

     convergence has been achieved in  12 iterations

     Forces acting on atoms (cartesian axes, Ry/au):

     atom    1 type  2   force =     0.00000000   -0.00000002   -0.03191636
     atom    2 type  2   force =     0.00000000    0.00000002    0.03191636
     atom    3 type  2   force =    -0.00000000    0.00000002   -0.03163587
     atom    4 type  2   force =    -0.00000000   -0.00000002    0.03163587
     atom    5 type  2   force =     0.00000000   -0.00000005   -0.03164958
     atom    6 type  2   force =     0.00000000    0.00000005    0.03164958
     atom    7 type  2   force =    -0.00000000   -0.00000004   -0.03173822
     atom    8 type  2   force =    -0.00000000    0.00000004    0.03173822
     atom    9 type  1   force =     0.00000000    0.02765085    0.01719231
     atom   10 type  1   force =     0.00000000   -0.02765085   -0.01719231
     atom   11 type  1   force =     0.00000000   -0.02764891    0.01716777
     atom   12 type  1   force =     0.00000000    0.02764891   -0.01716777
     atom   13 type  1   force =    -0.02764017   -0.00000001    0.01714921
     atom   14 type  1   force =     0.02764017    0.00000001   -0.01714921
     atom   15 type  1   force =     0.02763841   -0.00000001    0.01716062
     atom   16 type  1   force =    -0.02763841    0.00000001   -0.01716062
     atom   17 type  1   force =     0.02763841    0.00000001   -0.01716062
     atom   18 type  1   force =    -0.02763841   -0.00000001    0.01716062
     atom   19 type  1   force =    -0.02764017    0.00000001   -0.01714921
     atom   20 type  1   force =     0.02764017   -0.00000001    0.01714921
     atom   21 type  1   force =     0.00000000    0.02764894    0.01716780
     atom   22 type  1   force =     0.00000000   -0.02764894   -0.01716780
     atom   23 type  1   force =     0.00000000   -0.02765085    0.01719231
     atom   24 type  1   force =     0.00000000    0.02765085   -0.01719231

     Total force =     0.158114     Total SCF correction =     0.000023


     Computing stress (Cartesian axis) and pressure

          total   stress  (Ry/bohr**3)                   (kbar)     P=      105.38
   0.00071598   0.00000000   0.00000000          105.32        0.00        0.00
   0.00000000   0.00071606   0.00000000            0.00      105.34        0.00
   0.00000000   0.00000000   0.00071702            0.00        0.00      105.48


     Writing all to output data dir ./iceVIII/iceVIII.save/ :
     XML data file, charge density, pseudopotentials, collected wavefunctions

     init_run     :      2.65s CPU      2.76s WALL (       1 calls)
     electrons    :     25.29s CPU     27.11s WALL (       1 calls)
     forces       :      0.13s CPU      0.14s WALL (       1 calls)
     stress       :      1.62s CPU      1.65s WALL (       1 calls)

     Called by init_run:
     wfcinit      :      0.88s CPU      0.91s WALL (       1 calls)
     potinit      :      1.55s CPU      1.59s WALL (       1 calls)
     hinit0       :      0.17s CPU      0.20s WALL (       1 calls)

     Called by electrons:
     c_bands      :     22.02s CPU     22.41s WALL (      12 calls)
     sum_band     :      2.77s CPU      2.83s WALL (      12 calls)
     v_of_rho     :      1.99s CPU      2.07s WALL (      13 calls)
     newd         :      0.01s CPU      0.02s WALL (      13 calls)
     mix_rho      :      0.02s CPU      0.02s WALL (      12 calls)
     vdW_kernel   :      1.50s CPU      1.52s WALL (       1 calls)

     Called by c_bands:
     init_us_2    :      0.30s CPU      0.30s WALL (     972 calls)
     cegterg      :     20.85s CPU     21.06s WALL (     432 calls)

     Called by *egterg:
     cdiaghg      :      2.60s CPU      2.61s WALL (    1590 calls)
     h_psi        :     16.04s CPU     16.23s WALL (    1626 calls)
     s_psi        :      0.58s CPU      0.59s WALL (    1626 calls)
     g_psi        :      0.05s CPU      0.05s WALL (    1158 calls)

     Called by h_psi:
     h_psi:calbec :      0.81s CPU      0.82s WALL (    1626 calls)
     vloc_psi     :     14.52s CPU     14.70s WALL (    1626 calls)
     add_vuspsi   :      0.63s CPU      0.64s WALL (    1626 calls)

     General routines
     calbec       :      1.15s CPU      1.17s WALL (    2238 calls)
     fft          :      0.43s CPU      0.46s WALL (     845 calls)
     ffts         :      0.00s CPU      0.00s WALL (      12 calls)
     fftw         :     15.59s CPU     15.80s WALL (   96776 calls)

     Parallel routines

     PWSCF        :     30.75s CPU     36.40s WALL


   This run was terminated on:  14:57:46  26Mar2026            

=------------------------------------------------------------------------------=
   JOB DONE.
=------------------------------------------------------------------------------=
