
     Program PWSCF v.7.3.1 starts on 26Mar2026 at 15: 0:19 

     This program is part of the open-source Quantum ESPRESSO suite
     for quantum simulation of materials; please cite
         "P. Giannozzi et al., J. Phys.:Condens. Matter 21 395502 (2009);
         "P. Giannozzi et al., J. Phys.:Condens. Matter 29 465901 (2017);
         "P. Giannozzi et al., J. Chem. Phys. 152 154105 (2020);
          URL http://www.quantum-espresso.org", 
     in publications or presentations arising from this work. More details at
     http://www.quantum-espresso.org/quote

     Parallel version (MPI), running on   128 processors

     MPI processes distributed on     1 nodes
     242000 MiB available memory on the printing compute node when the environment starts

     Waiting for input...
     Reading input from standard input

     Current dimensions of program PWSCF are:
     Max number of different atomic species (ntypx) = 10
     Max number of k-points (npk) =  40000
     Max angular momentum in pseudopotentials (lmaxx) =  4

     IMPORTANT: XC functional enforced from input :
     Exchange-correlation= VDW-DF2
                           (   1   4  13   0   2   0   0)
     Any further DFT definition will be discarded
     Please, verify this is what you really want

     Found identity + ( -0.5000 -0.5000 -0.0000) symmetry
     This is a supercell, fractional translations are disabled

     K-points division:     npool     =       4
     R & G space division:  proc/nbgrp/npool/nimage =      32
     Subspace diagonalization in iterative solution of the eigenvalue problem:
     a serial algorithm will be used


     Parallelization info
     --------------------
     sticks:   dense  smooth     PW     G-vecs:    dense   smooth      PW
     Min          69      69     19                 3551     3551     523
     Max          70      70     20                 3558     3558     528
     Sum        2225    2225    621               113693   113693   16837

     Using Slab Decomposition



     bravais-lattice index     =            6
     lattice parameter (alat)  =       8.8050  a.u.
     unit-cell volume          =     984.5048 (a.u.)^3
     number of atoms/cell      =           24
     number of atomic types    =            2
     number of electrons       =        64.00
     number of Kohn-Sham states=           32
     kinetic-energy cutoff     =      90.0000  Ry
     charge density cutoff     =     360.0000  Ry
     scf convergence threshold =      1.0E-07
     mixing beta               =       0.7000
     number of iterations used =            8  plain     mixing
     Exchange-correlation= VDW-DF2
                           (   1   4  13   0   2   0   0)

     celldm(1)=   8.805035  celldm(2)=   0.000000  celldm(3)=   1.442197
     celldm(4)=   0.000000  celldm(5)=   0.000000  celldm(6)=   0.000000

     crystal axes: (cart. coord. in units of alat)
               a(1) = (   1.000000   0.000000   0.000000 )  
               a(2) = (   0.000000   1.000000   0.000000 )  
               a(3) = (   0.000000   0.000000   1.442197 )  

     reciprocal axes: (cart. coord. in units 2 pi/alat)
               b(1) = (  1.000000  0.000000  0.000000 )  
               b(2) = (  0.000000  1.000000  0.000000 )  
               b(3) = (  0.000000  0.000000  0.693386 )  


     PseudoPot. # 1 for H  read from file:
     ./H.pbe-van_ak.UPF
     MD5 check sum: 077eb6d537518a38cb46c6de387227b7
     Pseudo is Ultrasoft, Zval =  1.0
     Generated by new atomic code, or converted to UPF format
     Using radial grid of  615 points,  1 beta functions with: 
                l(1) =   0
     Q(r) pseudized with  8 coefficients,  rinner =    0.800

     PseudoPot. # 2 for O  read from file:
     ./O.pbe-van_ak.UPF
     MD5 check sum: 78c19812648e8988a0fe644b0f25305e
     Pseudo is Ultrasoft, Zval =  6.0
     Generated by new atomic code, or converted to UPF format
     Using radial grid of  737 points,  4 beta functions with: 
                l(1) =   0
                l(2) =   0
                l(3) =   1
                l(4) =   1
     Q(r) pseudized with  8 coefficients,  rinner =    0.800   0.800   0.800


     atomic species   valence    mass     pseudopotential
     H                 1.00     1.00800     H ( 1.00)
     O                 6.00    16.00000     O ( 1.00)

      2 Sym. Ops. (no inversion) found



   Cartesian axes

     site n.     atom                  positions (alat units)
         1        O      tau(   1) = (   0.0000000   0.6642184   0.0871767  )
         2        O      tau(   2) = (   0.0000000   0.3357816   0.8082752  )
         3        O      tau(   3) = (   0.5000000   0.1642184   0.0871767  )
         4        O      tau(   4) = (   0.5000000   0.8357816   0.8082753  )
         5        O      tau(   5) = (   0.5000000   0.8321143   1.3508102  )
         6        O      tau(   6) = (   0.5000000   0.1678857   0.6297116  )
         7        O      tau(   7) = (   0.0000000   0.3321143   1.3508102  )
         8        O      tau(   8) = (   0.0000000   0.6678857   0.6297116  )
         9        H      tau(   9) = (   0.0000000   0.6625951   0.2834585  )
        10        H      tau(  10) = (   0.0000000   0.3374049   1.0045570  )
        11        H      tau(  11) = (   0.5000000   0.1625951   0.2834585  )
        12        H      tau(  12) = (   0.5000000   0.8374049   1.0045570  )
        13        H      tau(  13) = (   0.0000000   0.5420861   0.0283776  )
        14        H      tau(  14) = (   0.0000000   0.4579139   0.7494761  )
        15        H      tau(  15) = (   0.5000000   0.0420861   0.0283776  )
        16        H      tau(  16) = (   0.5000000   0.9579139   0.7494761  )
        17        H      tau(  17) = (   0.6777387   0.7688991   1.4167398  )
        18        H      tau(  18) = (   0.3222613   0.2311009   0.6956413  )
        19        H      tau(  19) = (   0.6777387   0.2311009   0.6956413  )
        20        H      tau(  20) = (   0.3222613   0.7688991   1.4167398  )
        21        H      tau(  21) = (   0.1777387   0.2688991   1.4167398  )
        22        H      tau(  22) = (   0.8222613   0.7311009   0.6956413  )
        23        H      tau(  23) = (   0.1777387   0.7311009   0.6956413  )
        24        H      tau(  24) = (   0.8222613   0.2688991   1.4167398  )

     number of k points=   856

     Number of k-points >= 100: set verbosity='high' to print them.

     Dense  grid:   113693 G-vectors     FFT dimensions: (  54,  54,  80)

     Estimated max dynamical RAM per process >      51.63 MB

     Estimated total dynamical RAM >       6.37 GB

     Initial potential from superposition of free atoms

     starting charge      63.9998, renormalised to      64.0000


     %%%%%%%%%%%%%%%%%%%%%%%%%%%%%%%%%%%%%%%%%%%%%%%%%%%%%%%%%%%%%%%%%%%%%%%%
     %                                                                      %
     % You are using vdW-DF, which was implemented by the Thonhauser group. %
     % Please cite the following two papers that made this development      %
     % possible and the two reviews that describe the various versions:     %
     %                                                                      %
     %   T. Thonhauser et al., PRL 115, 136402 (2015).                      %
     %   T. Thonhauser et al., PRB 76, 125112 (2007).                       %
     %   K. Berland et al., Rep. Prog. Phys. 78, 066501 (2015).             %
     %   D.C. Langreth et al., J. Phys.: Condens. Matter 21, 084203 (2009). %
     %                                                                      %
     % If you are calculating stress with vdW-DF, please also cite:         %
     %                                                                      %
     %   R. Sabatini et al., J. Phys.: Condens. Matter 24, 424209 (2012).   %
     %                                                                      %
     %%%%%%%%%%%%%%%%%%%%%%%%%%%%%%%%%%%%%%%%%%%%%%%%%%%%%%%%%%%%%%%%%%%%%%%%

     %%%%%%%%%%%%%%%%%%%%%%%%%%%%%%%%%%%%%%%%%%%%%%%%%%%%%%%%%%%%%%%%%%%%%%%%
     %                                                                      %
     %  vdW-DF NEWS:                                                        %
     %                                                                      %
     %  * vdW-DF3 is now available. DOI: 10.1021/acs.jctc.0c00471           %
     %    use with input_dft = 'vdW-DF3-opt1' or 'vdW-DF3-opt2'             %
     %                                                                      %
     %  * Unscreened and range-separated hybrid vdW-DF-cx functionals       %
     %    DOI: 10.1063/1.4986522 and 10.1088/1361-648X/ac2ad2               %
     %    use with input_dft = 'vdW-DF-cx0'    and 'vdW-DF-ahcx'            %
     %  * Unscreened and range-separated hybrid vdW-DF2-b86r functionals    %
     %    DOI: 10.1063/1.4986522 and DOI: 10.1103/PhysRevX.12.041003        %
     %    use with input_dft = 'vdW-DF2-br0' and 'vdW-DF2-ahbr'             %
     %                                                                      %
     %%%%%%%%%%%%%%%%%%%%%%%%%%%%%%%%%%%%%%%%%%%%%%%%%%%%%%%%%%%%%%%%%%%%%%%%


     Starting wfcs are   48 randomized atomic wfcs

     total cpu time spent up to now is        7.5 secs

     per-process dynamical memory:    60.4 Mb

     Self-consistent Calculation

     iteration #  1     ecut=    90.00 Ry     beta= 0.70
     Davidson diagonalization with overlap
     ethr =  1.00E-02,  avg # of iterations =  2.0

     total cpu time spent up to now is       19.6 secs

     total energy              =    -272.71470457 Ry
     estimated scf accuracy    <       5.66586918 Ry

     iteration #  2     ecut=    90.00 Ry     beta= 0.70
     Davidson diagonalization with overlap
     ethr =  8.85E-03,  avg # of iterations =  3.0

     total cpu time spent up to now is       33.4 secs

     total energy              =    -274.63926135 Ry
     estimated scf accuracy    <       1.87683322 Ry

     iteration #  3     ecut=    90.00 Ry     beta= 0.70
     Davidson diagonalization with overlap
     ethr =  2.93E-03,  avg # of iterations =  2.0

     total cpu time spent up to now is       43.8 secs

     total energy              =    -274.85062697 Ry
     estimated scf accuracy    <       0.08551251 Ry

     iteration #  4     ecut=    90.00 Ry     beta= 0.70
     Davidson diagonalization with overlap
     ethr =  1.34E-04,  avg # of iterations =  3.9

     total cpu time spent up to now is       59.0 secs

     total energy              =    -274.90161492 Ry
     estimated scf accuracy    <       0.04229842 Ry

     iteration #  5     ecut=    90.00 Ry     beta= 0.70
     Davidson diagonalization with overlap
     ethr =  6.61E-05,  avg # of iterations =  2.0

     total cpu time spent up to now is       68.7 secs

     total energy              =    -274.90099214 Ry
     estimated scf accuracy    <       0.00945297 Ry

     iteration #  6     ecut=    90.00 Ry     beta= 0.70
     Davidson diagonalization with overlap
     ethr =  1.48E-05,  avg # of iterations =  2.2

     total cpu time spent up to now is       80.5 secs

     total energy              =    -274.90278525 Ry
     estimated scf accuracy    <       0.00049816 Ry

     iteration #  7     ecut=    90.00 Ry     beta= 0.70
     Davidson diagonalization with overlap
     ethr =  7.78E-07,  avg # of iterations =  3.0

     total cpu time spent up to now is       95.3 secs

     total energy              =    -274.90305488 Ry
     estimated scf accuracy    <       0.00015107 Ry

     iteration #  8     ecut=    90.00 Ry     beta= 0.70
     Davidson diagonalization with overlap
     ethr =  2.36E-07,  avg # of iterations =  2.0

     total cpu time spent up to now is      106.2 secs

     total energy              =    -274.90306724 Ry
     estimated scf accuracy    <       0.00001409 Ry

     iteration #  9     ecut=    90.00 Ry     beta= 0.70
     Davidson diagonalization with overlap
     ethr =  2.20E-08,  avg # of iterations =  3.2

     total cpu time spent up to now is      120.3 secs

     total energy              =    -274.90307217 Ry
     estimated scf accuracy    <       0.00000339 Ry

     iteration # 10     ecut=    90.00 Ry     beta= 0.70
     Davidson diagonalization with overlap
     ethr =  5.29E-09,  avg # of iterations =  2.1

     total cpu time spent up to now is      132.2 secs

     End of self-consistent calculation

     Number of k-points >= 100: set verbosity='high' to print the bands.

     highest occupied level (ev):     0.7959

!    total energy              =    -274.90307289 Ry
     estimated scf accuracy    <       0.00000007 Ry

     The total energy is the sum of the following terms:
     one-electron contribution =    -203.36379811 Ry
     hartree contribution      =     129.40990268 Ry
     xc contribution           =     -74.42366370 Ry
     ewald contribution        =    -126.52551376 Ry

     convergence has been achieved in  10 iterations

     Forces acting on atoms (cartesian axes, Ry/au):

     atom    1 type  2   force =     0.00000000    2.76756140    1.19771451
     atom    2 type  2   force =     0.00000000   -2.76756274    1.19771489
     atom    3 type  2   force =     0.00000000    2.76756307    1.19771447
     atom    4 type  2   force =     0.00000000   -2.76756262    1.19771466
     atom    5 type  2   force =     0.00000000   -0.47209318   -0.40994753
     atom    6 type  2   force =     0.00000000    0.47209323   -0.40994743
     atom    7 type  2   force =     0.00000000   -0.47209297   -0.40994701
     atom    8 type  2   force =     0.00000000    0.47209299   -0.40994724
     atom    9 type  1   force =     0.00000000    0.01856458    0.16119867
     atom   10 type  1   force =     0.00000000   -0.01856454    0.16119863
     atom   11 type  1   force =     0.00000000    0.01856463    0.16119852
     atom   12 type  1   force =     0.00000000   -0.01856456    0.16119852
     atom   13 type  1   force =     0.00000000   -2.16367311   -1.04495769
     atom   14 type  1   force =     0.00000000    2.16367328   -1.04495772
     atom   15 type  1   force =     0.00000000   -2.16367238   -1.04495730
     atom   16 type  1   force =     0.00000000    2.16367272   -1.04495748
     atom   17 type  1   force =     0.08768284   -0.07393433    0.04799583
     atom   18 type  1   force =    -0.08768274    0.07393436    0.04799581
     atom   19 type  1   force =     0.08768274    0.07393436    0.04799581
     atom   20 type  1   force =    -0.08768284   -0.07393433    0.04799583
     atom   21 type  1   force =     0.08768255   -0.07393422    0.04799580
     atom   22 type  1   force =    -0.08768260    0.07393430    0.04799582
     atom   23 type  1   force =     0.08768260    0.07393430    0.04799582
     atom   24 type  1   force =    -0.08768255   -0.07393422    0.04799580

     Total force =     7.827008     Total SCF correction =     0.000632


     Computing stress (Cartesian axis) and pressure

          total   stress  (Ry/bohr**3)                   (kbar)     P=     1264.05
   0.00171153   0.00000000   0.00000000          251.77        0.00        0.00
   0.00000000   0.01760105   0.00000000            0.00     2589.20        0.00
   0.00000000   0.00000000   0.00646595            0.00        0.00      951.17


     Writing all to output data dir ./iceVIII/iceVIII.save/ :
     XML data file, charge density, pseudopotentials, collected wavefunctions

     init_run     :      7.00s CPU      7.14s WALL (       1 calls)
     electrons    :    122.55s CPU    124.78s WALL (       1 calls)
     forces       :      0.66s CPU      0.67s WALL (       1 calls)
     stress       :      9.35s CPU      9.35s WALL (       1 calls)

     Called by init_run:
     wfcinit      :      5.11s CPU      5.19s WALL (       1 calls)
     potinit      :      1.55s CPU      1.59s WALL (       1 calls)
     hinit0       :      0.27s CPU      0.29s WALL (       1 calls)

     Called by electrons:
     c_bands      :    108.45s CPU    110.46s WALL (      10 calls)
     sum_band     :     13.67s CPU     13.82s WALL (      10 calls)
     v_of_rho     :      1.92s CPU      2.00s WALL (      11 calls)
     newd         :      0.01s CPU      0.02s WALL (      11 calls)
     mix_rho      :      0.01s CPU      0.01s WALL (      10 calls)
     vdW_kernel   :      1.51s CPU      1.52s WALL (       1 calls)

     Called by c_bands:
     init_us_2    :      1.53s CPU      1.57s WALL (    4922 calls)
     cegterg      :    105.18s CPU    106.38s WALL (    2140 calls)

     Called by *egterg:
     cdiaghg      :     12.61s CPU     12.70s WALL (    7634 calls)
     h_psi        :     81.62s CPU     82.71s WALL (    7848 calls)
     s_psi        :      2.98s CPU      3.01s WALL (    7848 calls)
     g_psi        :      0.24s CPU      0.25s WALL (    5494 calls)

     Called by h_psi:
     h_psi:calbec :      4.19s CPU      4.23s WALL (    7848 calls)
     vloc_psi     :     73.91s CPU     74.91s WALL (    7848 calls)
     add_vuspsi   :      3.17s CPU      3.21s WALL (    7848 calls)

     General routines
     calbec       :      6.14s CPU      6.20s WALL (   11058 calls)
     fft          :      0.49s CPU      0.50s WALL (     723 calls)
     ffts         :      0.00s CPU      0.00s WALL (      10 calls)
     fftw         :     79.20s CPU     80.24s WALL (  492116 calls)

     Parallel routines

     PWSCF        :   2m23.05s CPU   2m32.68s WALL


   This run was terminated on:  15: 2:52  26Mar2026            

=------------------------------------------------------------------------------=
   JOB DONE.
=------------------------------------------------------------------------------=
