
     Program PWSCF v.7.3.1 starts on 26Mar2026 at 15:58:15 

     This program is part of the open-source Quantum ESPRESSO suite
     for quantum simulation of materials; please cite
         "P. Giannozzi et al., J. Phys.:Condens. Matter 21 395502 (2009);
         "P. Giannozzi et al., J. Phys.:Condens. Matter 29 465901 (2017);
         "P. Giannozzi et al., J. Chem. Phys. 152 154105 (2020);
          URL http://www.quantum-espresso.org", 
     in publications or presentations arising from this work. More details at
     http://www.quantum-espresso.org/quote

     Parallel version (MPI), running on   128 processors

     MPI processes distributed on     1 nodes
     243578 MiB available memory on the printing compute node when the environment starts

     Waiting for input...
     Reading input from standard input

     Current dimensions of program PWSCF are:
     Max number of different atomic species (ntypx) = 10
     Max number of k-points (npk) =  40000
     Max angular momentum in pseudopotentials (lmaxx) =  4

     IMPORTANT: XC functional enforced from input :
     Exchange-correlation= VDW-DF2
                           (   1   4  13   0   2   0   0)
     Any further DFT definition will be discarded
     Please, verify this is what you really want

     Found identity + ( -0.5000 -0.5000 -0.5000) symmetry
     This is a supercell, fractional translations are disabled

     K-points division:     npool     =       4
     R & G space division:  proc/nbgrp/npool/nimage =      32
     Subspace diagonalization in iterative solution of the eigenvalue problem:
     a serial algorithm will be used


     Parallelization info
     --------------------
     sticks:   dense  smooth     PW     G-vecs:    dense   smooth      PW
     Min          69      69     19                 3569     3569     517
     Max          70      70     20                 3576     3576     522
     Sum        2233    2233    613               114309   114309   16605

     Using Slab Decomposition



     bravais-lattice index     =            6
     lattice parameter (alat)  =       8.8228  a.u.
     unit-cell volume          =     990.4715 (a.u.)^3
     number of atoms/cell      =           24
     number of atomic types    =            2
     number of electrons       =        64.00
     number of Kohn-Sham states=           32
     kinetic-energy cutoff     =      90.0000  Ry
     charge density cutoff     =     360.0000  Ry
     scf convergence threshold =      1.0E-07
     mixing beta               =       0.7000
     number of iterations used =            8  plain     mixing
     Exchange-correlation= VDW-DF2
                           (   1   4  13   0   2   0   0)

     celldm(1)=   8.822787  celldm(2)=   0.000000  celldm(3)=   1.442197
     celldm(4)=   0.000000  celldm(5)=   0.000000  celldm(6)=   0.000000

     crystal axes: (cart. coord. in units of alat)
               a(1) = (   1.000000   0.000000   0.000000 )  
               a(2) = (   0.000000   1.000000   0.000000 )  
               a(3) = (   0.000000   0.000000   1.442197 )  

     reciprocal axes: (cart. coord. in units 2 pi/alat)
               b(1) = (  1.000000  0.000000  0.000000 )  
               b(2) = (  0.000000  1.000000  0.000000 )  
               b(3) = (  0.000000  0.000000  0.693386 )  


     PseudoPot. # 1 for H  read from file:
     ./H.pbe-van_ak.UPF
     MD5 check sum: 077eb6d537518a38cb46c6de387227b7
     Pseudo is Ultrasoft, Zval =  1.0
     Generated by new atomic code, or converted to UPF format
     Using radial grid of  615 points,  1 beta functions with: 
                l(1) =   0
     Q(r) pseudized with  8 coefficients,  rinner =    0.800

     PseudoPot. # 2 for O  read from file:
     ./O.pbe-van_ak.UPF
     MD5 check sum: 78c19812648e8988a0fe644b0f25305e
     Pseudo is Ultrasoft, Zval =  6.0
     Generated by new atomic code, or converted to UPF format
     Using radial grid of  737 points,  4 beta functions with: 
                l(1) =   0
                l(2) =   0
                l(3) =   1
                l(4) =   1
     Q(r) pseudized with  8 coefficients,  rinner =    0.800   0.800   0.800


     atomic species   valence    mass     pseudopotential
     H                 1.00     1.00800     H ( 1.00)
     O                 6.00    16.00000     O ( 1.00)

      4 Sym. Ops., with inversion, found



   Cartesian axes

     site n.     atom                  positions (alat units)
         1        O      tau(   1) = (   0.0000000   0.2500000   0.8763462  )
         2        O      tau(   2) = (   0.0000000   0.7500000   0.5658510  )
         3        O      tau(   3) = (   0.5000000   0.7500000   0.1552476  )
         4        O      tau(   4) = (   0.5000000   0.2500000   1.2869495  )
         5        O      tau(   5) = (   0.0000000   0.7500000   1.2368921  )
         6        O      tau(   6) = (   0.0000000   0.2500000   0.2053051  )
         7        O      tau(   7) = (   0.5000000   0.2500000   0.5157934  )
         8        O      tau(   8) = (   0.5000000   0.7500000   0.9264037  )
         9        H      tau(   9) = (   0.0000000   0.4175939   1.0039395  )
        10        H      tau(  10) = (   0.0000000   0.5824060   0.4382577  )
        11        H      tau(  11) = (   0.5000000   0.5824060   0.2828409  )
        12        H      tau(  12) = (   0.5000000   0.4175939   1.1593562  )
        13        H      tau(  13) = (   0.8324057   0.7500000   1.3644894  )
        14        H      tau(  14) = (   0.1675943   0.2500000   0.0777077  )
        15        H      tau(  15) = (   0.6675943   0.2500000   0.6433908  )
        16        H      tau(  16) = (   0.3324057   0.7500000   0.7988063  )
        17        H      tau(  17) = (   0.6675943   0.7500000   0.7988063  )
        18        H      tau(  18) = (   0.3324057   0.2500000   0.6433908  )
        19        H      tau(  19) = (   0.8324057   0.2500000   0.0777077  )
        20        H      tau(  20) = (   0.1675943   0.7500000   1.3644894  )
        21        H      tau(  21) = (   0.5000000   0.9175940   0.2828409  )
        22        H      tau(  22) = (   0.5000000   0.0824061   1.1593562  )
        23        H      tau(  23) = (   0.0000000   0.0824061   1.0039395  )
        24        H      tau(  24) = (   0.0000000   0.9175940   0.4382577  )

     number of k points=   144

     Number of k-points >= 100: set verbosity='high' to print them.

     Dense  grid:   114309 G-vectors     FFT dimensions: (  54,  54,  80)

     Estimated max dynamical RAM per process >      13.20 MB

     Estimated total dynamical RAM >       1.57 GB

     Initial potential from superposition of free atoms

     starting charge      63.9998, renormalised to      64.0000


     %%%%%%%%%%%%%%%%%%%%%%%%%%%%%%%%%%%%%%%%%%%%%%%%%%%%%%%%%%%%%%%%%%%%%%%%
     %                                                                      %
     % You are using vdW-DF, which was implemented by the Thonhauser group. %
     % Please cite the following two papers that made this development      %
     % possible and the two reviews that describe the various versions:     %
     %                                                                      %
     %   T. Thonhauser et al., PRL 115, 136402 (2015).                      %
     %   T. Thonhauser et al., PRB 76, 125112 (2007).                       %
     %   K. Berland et al., Rep. Prog. Phys. 78, 066501 (2015).             %
     %   D.C. Langreth et al., J. Phys.: Condens. Matter 21, 084203 (2009). %
     %                                                                      %
     % If you are calculating stress with vdW-DF, please also cite:         %
     %                                                                      %
     %   R. Sabatini et al., J. Phys.: Condens. Matter 24, 424209 (2012).   %
     %                                                                      %
     %%%%%%%%%%%%%%%%%%%%%%%%%%%%%%%%%%%%%%%%%%%%%%%%%%%%%%%%%%%%%%%%%%%%%%%%

     %%%%%%%%%%%%%%%%%%%%%%%%%%%%%%%%%%%%%%%%%%%%%%%%%%%%%%%%%%%%%%%%%%%%%%%%
     %                                                                      %
     %  vdW-DF NEWS:                                                        %
     %                                                                      %
     %  * vdW-DF3 is now available. DOI: 10.1021/acs.jctc.0c00471           %
     %    use with input_dft = 'vdW-DF3-opt1' or 'vdW-DF3-opt2'             %
     %                                                                      %
     %  * Unscreened and range-separated hybrid vdW-DF-cx functionals       %
     %    DOI: 10.1063/1.4986522 and 10.1088/1361-648X/ac2ad2               %
     %    use with input_dft = 'vdW-DF-cx0'    and 'vdW-DF-ahcx'            %
     %  * Unscreened and range-separated hybrid vdW-DF2-b86r functionals    %
     %    DOI: 10.1063/1.4986522 and DOI: 10.1103/PhysRevX.12.041003        %
     %    use with input_dft = 'vdW-DF2-br0' and 'vdW-DF2-ahbr'             %
     %                                                                      %
     %%%%%%%%%%%%%%%%%%%%%%%%%%%%%%%%%%%%%%%%%%%%%%%%%%%%%%%%%%%%%%%%%%%%%%%%


     Starting wfcs are   48 randomized atomic wfcs

     total cpu time spent up to now is       14.4 secs

     per-process dynamical memory:    19.6 Mb

     Self-consistent Calculation

     iteration #  1     ecut=    90.00 Ry     beta= 0.70
     Davidson diagonalization with overlap
     ethr =  1.00E-02,  avg # of iterations =  2.0

     total cpu time spent up to now is       16.3 secs

     total energy              =    -277.29069420 Ry
     estimated scf accuracy    <       3.12854606 Ry

     iteration #  2     ecut=    90.00 Ry     beta= 0.70
     Davidson diagonalization with overlap
     ethr =  4.89E-03,  avg # of iterations =  3.0

     total cpu time spent up to now is       18.8 secs

     total energy              =    -278.36582114 Ry
     estimated scf accuracy    <       1.96674970 Ry

     iteration #  3     ecut=    90.00 Ry     beta= 0.70
     Davidson diagonalization with overlap
     ethr =  3.07E-03,  avg # of iterations =  2.0

     total cpu time spent up to now is       20.7 secs

     total energy              =    -278.59468583 Ry
     estimated scf accuracy    <       0.09308199 Ry

     iteration #  4     ecut=    90.00 Ry     beta= 0.70
     Davidson diagonalization with overlap
     ethr =  1.45E-04,  avg # of iterations =  4.3

     total cpu time spent up to now is       23.6 secs

     total energy              =    -278.66387568 Ry
     estimated scf accuracy    <       0.11919708 Ry

     iteration #  5     ecut=    90.00 Ry     beta= 0.70
     Davidson diagonalization with overlap
     ethr =  1.45E-04,  avg # of iterations =  2.0

     total cpu time spent up to now is       25.4 secs

     total energy              =    -278.66539493 Ry
     estimated scf accuracy    <       0.01940258 Ry

     iteration #  6     ecut=    90.00 Ry     beta= 0.70
     Davidson diagonalization with overlap
     ethr =  3.03E-05,  avg # of iterations =  2.3

     total cpu time spent up to now is       27.4 secs

     total energy              =    -278.66953617 Ry
     estimated scf accuracy    <       0.00069536 Ry

     iteration #  7     ecut=    90.00 Ry     beta= 0.70
     Davidson diagonalization with overlap
     ethr =  1.09E-06,  avg # of iterations =  3.5

     total cpu time spent up to now is       30.2 secs

     total energy              =    -278.67003906 Ry
     estimated scf accuracy    <       0.00010193 Ry

     iteration #  8     ecut=    90.00 Ry     beta= 0.70
     Davidson diagonalization with overlap
     ethr =  1.59E-07,  avg # of iterations =  1.7

     total cpu time spent up to now is       31.7 secs

     total energy              =    -278.67002498 Ry
     estimated scf accuracy    <       0.00004901 Ry

     iteration #  9     ecut=    90.00 Ry     beta= 0.70
     Davidson diagonalization with overlap
     ethr =  7.66E-08,  avg # of iterations =  2.0

     total cpu time spent up to now is       33.4 secs

     total energy              =    -278.67002847 Ry
     estimated scf accuracy    <       0.00000685 Ry

     iteration # 10     ecut=    90.00 Ry     beta= 0.70
     Davidson diagonalization with overlap
     ethr =  1.07E-08,  avg # of iterations =  2.2

     total cpu time spent up to now is       35.3 secs

     total energy              =    -278.67002853 Ry
     estimated scf accuracy    <       0.00000195 Ry

     iteration # 11     ecut=    90.00 Ry     beta= 0.70
     Davidson diagonalization with overlap
     ethr =  3.05E-09,  avg # of iterations =  2.9

     total cpu time spent up to now is       37.5 secs

     End of self-consistent calculation

     Number of k-points >= 100: set verbosity='high' to print the bands.

     highest occupied level (ev):    -0.4219

!    total energy              =    -278.67002909 Ry
     estimated scf accuracy    <       0.00000001 Ry

     The total energy is the sum of the following terms:
     one-electron contribution =    -123.61767628 Ry
     hartree contribution      =      89.78639115 Ry
     xc contribution           =     -70.93712117 Ry
     ewald contribution        =    -173.90162280 Ry

     convergence has been achieved in  11 iterations

     Forces acting on atoms (cartesian axes, Ry/au):

     atom    1 type  2   force =    -0.00000000    0.00000007   -0.00923446
     atom    2 type  2   force =    -0.00000000   -0.00000007    0.00923446
     atom    3 type  2   force =     0.00000000    0.00000002   -0.00924119
     atom    4 type  2   force =     0.00000000   -0.00000002    0.00924119
     atom    5 type  2   force =     0.00000000    0.00000004   -0.00924924
     atom    6 type  2   force =     0.00000000   -0.00000004    0.00924924
     atom    7 type  2   force =     0.00000000   -0.00000001   -0.00924514
     atom    8 type  2   force =     0.00000000    0.00000001    0.00924514
     atom    9 type  1   force =     0.00000000    0.01041782    0.00564113
     atom   10 type  1   force =     0.00000000   -0.01041782   -0.00564113
     atom   11 type  1   force =     0.00000000   -0.01041702    0.00564051
     atom   12 type  1   force =     0.00000000    0.01041702   -0.00564051
     atom   13 type  1   force =    -0.01041643   -0.00000001    0.00562997
     atom   14 type  1   force =     0.01041643    0.00000001   -0.00562997
     atom   15 type  1   force =     0.01041838   -0.00000001    0.00563184
     atom   16 type  1   force =    -0.01041838    0.00000001   -0.00563184
     atom   17 type  1   force =     0.01041838    0.00000001   -0.00563184
     atom   18 type  1   force =    -0.01041838   -0.00000001    0.00563184
     atom   19 type  1   force =    -0.01041643    0.00000001   -0.00562997
     atom   20 type  1   force =     0.01041643   -0.00000001    0.00562997
     atom   21 type  1   force =     0.00000000    0.01041707    0.00564056
     atom   22 type  1   force =     0.00000000   -0.01041707   -0.00564056
     atom   23 type  1   force =     0.00000000   -0.01041782    0.00564112
     atom   24 type  1   force =     0.00000000    0.01041782   -0.00564112

     Total force =     0.054111     Total SCF correction =     0.000107


     Computing stress (Cartesian axis) and pressure

          total   stress  (Ry/bohr**3)                   (kbar)     P=       55.94
   0.00038319   0.00000000   0.00000000           56.37        0.00        0.00
   0.00000000   0.00038453  -0.00000000            0.00       56.57       -0.00
   0.00000000  -0.00000000   0.00037306            0.00       -0.00       54.88


     Writing all to output data dir ./iceVIII/iceVIII.save/ :
     XML data file, charge density, pseudopotentials, collected wavefunctions

     init_run     :      2.76s CPU      6.74s WALL (       1 calls)
     electrons    :     22.59s CPU     23.10s WALL (       1 calls)
     forces       :      0.13s CPU      0.14s WALL (       1 calls)
     stress       :      1.64s CPU      1.66s WALL (       1 calls)

     Called by init_run:
     wfcinit      :      0.83s CPU      4.68s WALL (       1 calls)
     potinit      :      1.59s CPU      1.66s WALL (       1 calls)
     hinit0       :      0.28s CPU      0.33s WALL (       1 calls)

     Called by electrons:
     c_bands      :     19.63s CPU     20.02s WALL (      11 calls)
     sum_band     :      2.50s CPU      2.54s WALL (      11 calls)
     v_of_rho     :      1.99s CPU      2.10s WALL (      12 calls)
     newd         :      0.02s CPU      0.03s WALL (      12 calls)
     mix_rho      :      0.02s CPU      0.02s WALL (      11 calls)
     vdW_kernel   :      1.54s CPU      1.59s WALL (       1 calls)

     Called by c_bands:
     init_us_2    :      0.27s CPU      0.29s WALL (     900 calls)
     cegterg      :     18.50s CPU     18.74s WALL (     396 calls)

     Called by *egterg:
     cdiaghg      :      2.25s CPU      6.04s WALL (    1387 calls)
     h_psi        :     14.25s CPU     14.50s WALL (    1423 calls)
     s_psi        :      0.55s CPU      0.56s WALL (    1423 calls)
     g_psi        :      0.04s CPU      0.04s WALL (     991 calls)

     Called by h_psi:
     h_psi:calbec :      0.74s CPU      0.79s WALL (    1423 calls)
     vloc_psi     :     12.86s CPU     13.06s WALL (    1423 calls)
     add_vuspsi   :      0.58s CPU      0.59s WALL (    1423 calls)

     General routines
     calbec       :      1.07s CPU      1.13s WALL (    1999 calls)
     fft          :      0.50s CPU      0.57s WALL (     784 calls)
     ffts         :      0.00s CPU      0.00s WALL (      11 calls)
     fftw         :     13.81s CPU     14.02s WALL (   88280 calls)

     Parallel routines

     PWSCF        :     29.09s CPU     40.27s WALL


   This run was terminated on:  15:58:55  26Mar2026            

=------------------------------------------------------------------------------=
   JOB DONE.
=------------------------------------------------------------------------------=
