
     Program PWSCF v.7.3.1 starts on  4Feb2026 at 11:58:41 

     This program is part of the open-source Quantum ESPRESSO suite
     for quantum simulation of materials; please cite
         "P. Giannozzi et al., J. Phys.:Condens. Matter 21 395502 (2009);
         "P. Giannozzi et al., J. Phys.:Condens. Matter 29 465901 (2017);
         "P. Giannozzi et al., J. Chem. Phys. 152 154105 (2020);
          URL http://www.quantum-espresso.org", 
     in publications or presentations arising from this work. More details at
     http://www.quantum-espresso.org/quote

     Parallel version (MPI), running on   128 processors

     MPI processes distributed on     1 nodes
     240816 MiB available memory on the printing compute node when the environment starts

     Waiting for input...
     Reading input from standard input
     Message from routine read_cards :
     DEPRECATED: no units specified in ATOMIC_POSITIONS card
     Message from routine read_cards :
     ATOMIC_POSITIONS: units set to alat

     Current dimensions of program PWSCF are:
     Max number of different atomic species (ntypx) = 10
     Max number of k-points (npk) =  40000
     Max angular momentum in pseudopotentials (lmaxx) =  4

     K-points division:     npool     =       8
     R & G space division:  proc/nbgrp/npool/nimage =      16
     Subspace diagonalization in iterative solution of the eigenvalue problem:
     a serial algorithm will be used


     Parallelization info
     --------------------
     sticks:   dense  smooth     PW     G-vecs:    dense   smooth      PW
     Min         141     141     39                 4455     4455     650
     Max         142     142     40                 4458     4458     652
     Sum        2263    2263    637                71297    71297   10417

     Using Slab Decomposition



     bravais-lattice index     =            2
     lattice parameter (alat)  =      12.2300  a.u.
     unit-cell volume          =     457.3191 (a.u.)^3
     number of atoms/cell      =            2
     number of atomic types    =            1
     number of electrons       =        28.00
     number of Kohn-Sham states=           14
     kinetic-energy cutoff     =     110.0000  Ry
     charge density cutoff     =     440.0000  Ry
     scf convergence threshold =      1.0E-07
     mixing beta               =       0.7000
     number of iterations used =            8  plain     mixing
     Exchange-correlation=  SLA  PW   GGX  GGC
                           (   1   4   2   2   0   0   0)

     celldm(1)=  12.230000  celldm(2)=   0.000000  celldm(3)=   0.000000
     celldm(4)=   0.000000  celldm(5)=   0.000000  celldm(6)=   0.000000

     crystal axes: (cart. coord. in units of alat)
               a(1) = (  -0.500000   0.000000   0.500000 )  
               a(2) = (   0.000000   0.500000   0.500000 )  
               a(3) = (  -0.500000   0.500000   0.000000 )  

     reciprocal axes: (cart. coord. in units 2 pi/alat)
               b(1) = ( -1.000000 -1.000000  1.000000 )  
               b(2) = (  1.000000  1.000000  1.000000 )  
               b(3) = ( -1.000000  1.000000 -1.000000 )  


     PseudoPot. # 1 for Sn read from file:
     ./Sn.pw91-n-van.UPF
     MD5 check sum: a38d2a872edd1a4efd76c0a1a38f7031
     Pseudo is Ultrasoft + core correction, Zval = 14.0
     Generated by new atomic code, or converted to UPF format
     Using radial grid of  891 points,  6 beta functions with: 
                l(1) =   0
                l(2) =   0
                l(3) =   1
                l(4) =   1
                l(5) =   2
                l(6) =   2
     Q(r) pseudized with  8 coefficients,  rinner =    1.100   1.100   1.100
                                                       1.100   1.100

     atomic species   valence    mass     pseudopotential
     Sn               14.00   118.70000     Sn( 1.00)

     48 Sym. Ops., with inversion, found (24 have fractional translation)



   Cartesian axes

     site n.     atom                  positions (alat units)
         1        Sn     tau(   1) = (   0.0000000   0.0000000   0.0000000  )
         2        Sn     tau(   2) = (   0.2500000   0.2500000   0.2500000  )

     number of k points=     8
                       cart. coord. in units 2pi/alat
        k(    1) = (   0.0000000   0.0000000   0.0000000), wk =   0.0312500
        k(    2) = (  -0.2500000   0.2500000  -0.2500000), wk =   0.2500000
        k(    3) = (   0.5000000  -0.5000000   0.5000000), wk =   0.1250000
        k(    4) = (   0.0000000   0.5000000   0.0000000), wk =   0.1875000
        k(    5) = (   0.7500000  -0.2500000   0.7500000), wk =   0.7500000
        k(    6) = (   0.5000000   0.0000000   0.5000000), wk =   0.3750000
        k(    7) = (   0.0000000  -1.0000000   0.0000000), wk =   0.0937500
        k(    8) = (  -0.5000000  -1.0000000   0.0000000), wk =   0.1875000

     Dense  grid:    71297 G-vectors     FFT dimensions: (  60,  60,  60)

     Estimated max dynamical RAM per process >       6.61 MB

     Estimated total dynamical RAM >     723.75 MB

     Initial potential from superposition of free atoms

     starting charge      27.9964, renormalised to      28.0000
     Starting wfcs are   18 randomized atomic wfcs

     total cpu time spent up to now is        0.9 secs

     per-process dynamical memory:    12.7 Mb

     Self-consistent Calculation

     iteration #  1     ecut=   110.00 Ry     beta= 0.70
     Davidson diagonalization with overlap
     ethr =  1.00E-02,  avg # of iterations =  1.6

     Threshold (ethr) on eigenvalues was too large:
     Diagonalizing with lowered threshold

     Davidson diagonalization with overlap
     ethr =  8.24E-05,  avg # of iterations =  2.2

     total cpu time spent up to now is        1.0 secs

     total energy              =    -325.61507604 Ry
     estimated scf accuracy    <       0.02896624 Ry

     iteration #  2     ecut=   110.00 Ry     beta= 0.70
     Davidson diagonalization with overlap
     ethr =  1.03E-04,  avg # of iterations =  1.0

     total cpu time spent up to now is        1.0 secs

     total energy              =    -325.61621133 Ry
     estimated scf accuracy    <       0.00155621 Ry

     iteration #  3     ecut=   110.00 Ry     beta= 0.70
     Davidson diagonalization with overlap
     ethr =  5.56E-06,  avg # of iterations =  2.2

     negative rho (up, down):  1.781E-06 0.000E+00

     total cpu time spent up to now is        1.1 secs

     total energy              =    -325.61634447 Ry
     estimated scf accuracy    <       0.00003579 Ry

     iteration #  4     ecut=   110.00 Ry     beta= 0.70
     Davidson diagonalization with overlap
     ethr =  1.28E-07,  avg # of iterations =  3.5

     negative rho (up, down):  3.992E-06 0.000E+00

     total cpu time spent up to now is        1.2 secs

     total energy              =    -325.61635445 Ry
     estimated scf accuracy    <       0.00000291 Ry

     iteration #  5     ecut=   110.00 Ry     beta= 0.70
     Davidson diagonalization with overlap
     ethr =  1.04E-08,  avg # of iterations =  4.0

     negative rho (up, down):  3.826E-06 0.000E+00

     total cpu time spent up to now is        1.2 secs

     total energy              =    -325.61635510 Ry
     estimated scf accuracy    <       0.00000021 Ry

     iteration #  6     ecut=   110.00 Ry     beta= 0.70
     Davidson diagonalization with overlap
     ethr =  7.65E-10,  avg # of iterations =  2.5

     negative rho (up, down):  3.943E-06 0.000E+00

     total cpu time spent up to now is        1.3 secs

     End of self-consistent calculation

          k = 0.0000 0.0000 0.0000 (  8873 PWs)   bands (ev):

   -13.7063 -13.7063 -13.7063 -13.6474 -13.6474 -13.3296 -13.3296 -13.3296
   -13.3212 -13.3212  -2.7004   7.3361   8.0637   8.0637

          k =-0.2500 0.2500-0.2500 (  8928 PWs)   bands (ev):

   -13.7327 -13.7327 -13.6932 -13.6067 -13.6067 -13.3755 -13.3755 -13.3465
   -13.2838 -13.2838  -2.1084   3.9184   7.3006   7.3006

          k = 0.5000-0.5000 0.5000 (  8928 PWs)   bands (ev):

   -13.7435 -13.7435 -13.6792 -13.5854 -13.5854 -13.3918 -13.3918 -13.3642
   -13.2720 -13.2720  -1.0620   1.6351   6.8434   6.8434

          k = 0.0000 0.5000 0.0000 (  8964 PWs)   bands (ev):

   -13.7346 -13.7346 -13.7106 -13.5988 -13.5490 -13.4625 -13.3681 -13.2997
   -13.2885 -13.2885  -1.8914   3.8044   6.3564   6.3564

          k = 0.7500-0.2500 0.7500 (  8905 PWs)   bands (ev):

   -13.7733 -13.7528 -13.6466 -13.5480 -13.5187 -13.4904 -13.4229 -13.3741
   -13.2600 -13.2389  -0.7140   1.6733   5.0199   6.0392

          k = 0.5000 0.0000 0.5000 (  8912 PWs)   bands (ev):

   -13.7668 -13.7548 -13.6404 -13.5825 -13.5447 -13.4368 -13.4056 -13.3916
   -13.2562 -13.2492  -1.2014   2.3657   4.9304   6.7747

          k = 0.0000-1.0000 0.0000 (  8904 PWs)   bands (ev):

   -13.7587 -13.7587 -13.6223 -13.6223 -13.4825 -13.4825 -13.3970 -13.3970
   -13.2509 -13.2509   0.4181   0.4181   5.4847   5.4847

          k =-0.5000-1.0000 0.0000 (  8888 PWs)   bands (ev):

   -13.7768 -13.7768 -13.5633 -13.5633 -13.4917 -13.4917 -13.4461 -13.4461
   -13.2334 -13.2334   0.4784   0.4784   4.9005   4.9005

     highest occupied level (ev):     8.0637

!    total energy              =    -325.61635514 Ry
     estimated scf accuracy    <       0.00000007 Ry

     The total energy is the sum of the following terms:
     one-electron contribution =    -150.97516486 Ry
     hartree contribution      =      93.25056555 Ry
     xc contribution           =     -95.23232547 Ry
     ewald contribution        =    -172.65943036 Ry

     convergence has been achieved in   6 iterations

     Writing all to output data dir ./alpha-sn-scf/alphatin.save/ :
     XML data file, charge density, pseudopotentials, collected wavefunctions

     init_run     :      0.54s CPU      0.60s WALL (       1 calls)
     electrons    :      0.34s CPU      0.41s WALL (       1 calls)

     Called by init_run:
     wfcinit      :      0.01s CPU      0.02s WALL (       1 calls)
     potinit      :      0.03s CPU      0.04s WALL (       1 calls)
     hinit0       :      0.44s CPU      0.46s WALL (       1 calls)

     Called by electrons:
     c_bands      :      0.14s CPU      0.16s WALL (       7 calls)
     sum_band     :      0.07s CPU      0.09s WALL (       7 calls)
     v_of_rho     :      0.08s CPU      0.09s WALL (       7 calls)
     newd         :      0.03s CPU      0.04s WALL (       7 calls)
     mix_rho      :      0.01s CPU      0.01s WALL (       7 calls)

     Called by c_bands:
     init_us_2    :      0.00s CPU      0.00s WALL (      15 calls)
     cegterg      :      0.13s CPU      0.14s WALL (       7 calls)

     Called by *egterg:
     cdiaghg      :      0.01s CPU      0.01s WALL (      26 calls)
     h_psi        :      0.12s CPU      0.13s WALL (      28 calls)
     s_psi        :      0.00s CPU      0.00s WALL (      28 calls)
     g_psi        :      0.00s CPU      0.00s WALL (      20 calls)

     Called by h_psi:
     h_psi:calbec :      0.01s CPU      0.01s WALL (      28 calls)
     vloc_psi     :      0.11s CPU      0.12s WALL (      28 calls)
     add_vuspsi   :      0.00s CPU      0.00s WALL (      28 calls)

     General routines
     calbec       :      0.01s CPU      0.01s WALL (      35 calls)
     fft          :      0.46s CPU      0.46s WALL (      78 calls)
     ffts         :      0.00s CPU      0.00s WALL (       7 calls)
     fftw         :      0.11s CPU      0.12s WALL (     624 calls)

     Parallel routines

     PWSCF        :      1.11s CPU      1.38s WALL


   This run was terminated on:  11:58:42   4Feb2026            

=------------------------------------------------------------------------------=
   JOB DONE.
=------------------------------------------------------------------------------=
