
     Program PWSCF v.7.3.1 starts on  4Feb2026 at 12: 2: 7 

     This program is part of the open-source Quantum ESPRESSO suite
     for quantum simulation of materials; please cite
         "P. Giannozzi et al., J. Phys.:Condens. Matter 21 395502 (2009);
         "P. Giannozzi et al., J. Phys.:Condens. Matter 29 465901 (2017);
         "P. Giannozzi et al., J. Chem. Phys. 152 154105 (2020);
          URL http://www.quantum-espresso.org", 
     in publications or presentations arising from this work. More details at
     http://www.quantum-espresso.org/quote

     Parallel version (MPI), running on   128 processors

     MPI processes distributed on     1 nodes
     240603 MiB available memory on the printing compute node when the environment starts

     Waiting for input...
     Reading input from standard input
     Message from routine read_cards :
     DEPRECATED: no units specified in ATOMIC_POSITIONS card
     Message from routine read_cards :
     ATOMIC_POSITIONS: units set to alat

     Current dimensions of program PWSCF are:
     Max number of different atomic species (ntypx) = 10
     Max number of k-points (npk) =  40000
     Max angular momentum in pseudopotentials (lmaxx) =  4

     K-points division:     npool     =       4
     R & G space division:  proc/nbgrp/npool/nimage =      32
     Subspace diagonalization in iterative solution of the eigenvalue problem:
     a serial algorithm will be used


     Parallelization info
     --------------------
     sticks:   dense  smooth     PW     G-vecs:    dense   smooth      PW
     Min         174     174     46                 8574     8574    1186
     Max         175     175     47                 8577     8577    1190
     Sum        5587    5587   1495               274435   274435   38013

     Using Slab Decomposition



     bravais-lattice index     =            2
     lattice parameter (alat)  =      12.2300  a.u.
     unit-cell volume          =     457.3191 (a.u.)^3
     number of atoms/cell      =            2
     number of atomic types    =            1
     number of electrons       =        28.00
     number of Kohn-Sham states=           14
     kinetic-energy cutoff     =     270.0000  Ry
     charge density cutoff     =    1080.0000  Ry
     scf convergence threshold =      1.0E-07
     mixing beta               =       0.7000
     number of iterations used =            8  plain     mixing
     Exchange-correlation=  SLA  PW   GGX  GGC
                           (   1   4   2   2   0   0   0)

     celldm(1)=  12.230000  celldm(2)=   0.000000  celldm(3)=   0.000000
     celldm(4)=   0.000000  celldm(5)=   0.000000  celldm(6)=   0.000000

     crystal axes: (cart. coord. in units of alat)
               a(1) = (  -0.500000   0.000000   0.500000 )  
               a(2) = (   0.000000   0.500000   0.500000 )  
               a(3) = (  -0.500000   0.500000   0.000000 )  

     reciprocal axes: (cart. coord. in units 2 pi/alat)
               b(1) = ( -1.000000 -1.000000  1.000000 )  
               b(2) = (  1.000000  1.000000  1.000000 )  
               b(3) = ( -1.000000  1.000000 -1.000000 )  


     PseudoPot. # 1 for Sn read from file:
     ./Sn.pw91-n-van.UPF
     MD5 check sum: a38d2a872edd1a4efd76c0a1a38f7031
     Pseudo is Ultrasoft + core correction, Zval = 14.0
     Generated by new atomic code, or converted to UPF format
     Using radial grid of  891 points,  6 beta functions with: 
                l(1) =   0
                l(2) =   0
                l(3) =   1
                l(4) =   1
                l(5) =   2
                l(6) =   2
     Q(r) pseudized with  8 coefficients,  rinner =    1.100   1.100   1.100
                                                       1.100   1.100

     atomic species   valence    mass     pseudopotential
     Sn               14.00   118.70000     Sn( 1.00)

     48 Sym. Ops., with inversion, found (24 have fractional translation)



   Cartesian axes

     site n.     atom                  positions (alat units)
         1        Sn     tau(   1) = (   0.0000000   0.0000000   0.0000000  )
         2        Sn     tau(   2) = (   0.2500000   0.2500000   0.2500000  )

     number of k points=     8
                       cart. coord. in units 2pi/alat
        k(    1) = (   0.0000000   0.0000000   0.0000000), wk =   0.0312500
        k(    2) = (  -0.2500000   0.2500000  -0.2500000), wk =   0.2500000
        k(    3) = (   0.5000000  -0.5000000   0.5000000), wk =   0.1250000
        k(    4) = (   0.0000000   0.5000000   0.0000000), wk =   0.1875000
        k(    5) = (   0.7500000  -0.2500000   0.7500000), wk =   0.7500000
        k(    6) = (   0.5000000   0.0000000   0.5000000), wk =   0.3750000
        k(    7) = (   0.0000000  -1.0000000   0.0000000), wk =   0.0937500
        k(    8) = (  -0.5000000  -1.0000000   0.0000000), wk =   0.1875000

     Dense  grid:   274435 G-vectors     FFT dimensions: (  96,  96,  96)

     Estimated max dynamical RAM per process >      15.62 MB

     Estimated total dynamical RAM >       1.76 GB

     Initial potential from superposition of free atoms

     starting charge      27.9964, renormalised to      28.0000
     Starting wfcs are   18 randomized atomic wfcs

     total cpu time spent up to now is        1.3 secs

     per-process dynamical memory:    19.8 Mb

     Self-consistent Calculation

     iteration #  1     ecut=   270.00 Ry     beta= 0.70
     Davidson diagonalization with overlap
     ethr =  1.00E-02,  avg # of iterations =  2.0

     Threshold (ethr) on eigenvalues was too large:
     Diagonalizing with lowered threshold

     Davidson diagonalization with overlap
     ethr =  3.06E-05,  avg # of iterations =  3.9

     total cpu time spent up to now is        1.7 secs

     total energy              =    -325.55984102 Ry
     estimated scf accuracy    <       0.01082889 Ry

     iteration #  2     ecut=   270.00 Ry     beta= 0.70
     Davidson diagonalization with overlap
     ethr =  3.87E-05,  avg # of iterations =  5.4

     total cpu time spent up to now is        1.9 secs

     total energy              =    -325.62115999 Ry
     estimated scf accuracy    <       0.01970870 Ry

     iteration #  3     ecut=   270.00 Ry     beta= 0.70
     Davidson diagonalization with overlap
     ethr =  3.87E-05,  avg # of iterations =  1.0

     negative rho (up, down):  5.540E-07 0.000E+00

     total cpu time spent up to now is        2.0 secs

     total energy              =    -325.63295669 Ry
     estimated scf accuracy    <       0.01063142 Ry

     iteration #  4     ecut=   270.00 Ry     beta= 0.70
     Davidson diagonalization with overlap
     ethr =  3.80E-05,  avg # of iterations =  2.0

     total cpu time spent up to now is        2.2 secs

     total energy              =    -325.63476419 Ry
     estimated scf accuracy    <       0.00048962 Ry

     iteration #  5     ecut=   270.00 Ry     beta= 0.70
     Davidson diagonalization with overlap
     ethr =  1.75E-06,  avg # of iterations =  2.2

     negative rho (up, down):  7.698E-07 0.000E+00

     total cpu time spent up to now is        2.3 secs

     total energy              =    -325.63484080 Ry
     estimated scf accuracy    <       0.00001854 Ry

     iteration #  6     ecut=   270.00 Ry     beta= 0.70
     Davidson diagonalization with overlap
     ethr =  6.62E-08,  avg # of iterations =  2.6

     negative rho (up, down):  4.825E-07 0.000E+00

     total cpu time spent up to now is        2.5 secs

     total energy              =    -325.63485094 Ry
     estimated scf accuracy    <       0.00000187 Ry

     iteration #  7     ecut=   270.00 Ry     beta= 0.70
     Davidson diagonalization with overlap
     ethr =  6.67E-09,  avg # of iterations =  2.4

     negative rho (up, down):  5.443E-07 0.000E+00

     total cpu time spent up to now is        2.7 secs

     End of self-consistent calculation

          k = 0.0000 0.0000 0.0000 ( 34327 PWs)   bands (ev):

   -13.7134 -13.7134 -13.7134 -13.6542 -13.6542 -13.3369 -13.3369 -13.3369
   -13.3282 -13.3282  -2.6999   7.3376   8.0637   8.0637

          k =-0.2500 0.2500-0.2500 ( 34279 PWs)   bands (ev):

   -13.7397 -13.7397 -13.7002 -13.6135 -13.6135 -13.3826 -13.3826 -13.3538
   -13.2911 -13.2911  -2.1079   3.9189   7.3007   7.3007

          k = 0.5000-0.5000 0.5000 ( 34344 PWs)   bands (ev):

   -13.7504 -13.7504 -13.6863 -13.5922 -13.5922 -13.3988 -13.3988 -13.3715
   -13.2793 -13.2793  -1.0614   1.6354   6.8435   6.8435

          k = 0.0000 0.5000 0.0000 ( 34304 PWs)   bands (ev):

   -13.7416 -13.7416 -13.7174 -13.6056 -13.5559 -13.4695 -13.3751 -13.3068
   -13.2957 -13.2957  -1.8909   3.8051   6.3564   6.3564

          k = 0.7500-0.2500 0.7500 ( 34253 PWs)   bands (ev):

   -13.7803 -13.7598 -13.6536 -13.5548 -13.5257 -13.4974 -13.4299 -13.3812
   -13.2673 -13.2463  -0.7135   1.6739   5.0197   6.0393

          k = 0.5000 0.0000 0.5000 ( 34245 PWs)   bands (ev):

   -13.7737 -13.7618 -13.6475 -13.5893 -13.5516 -13.4438 -13.4128 -13.3986
   -13.2635 -13.2566  -1.2009   2.3663   4.9301   6.7748

          k = 0.0000-1.0000 0.0000 ( 34244 PWs)   bands (ev):

   -13.7657 -13.7657 -13.6292 -13.6292 -13.4894 -13.4894 -13.4041 -13.4041
   -13.2583 -13.2583   0.4186   0.4186   5.4848   5.4848

          k =-0.5000-1.0000 0.0000 ( 34208 PWs)   bands (ev):

   -13.7838 -13.7838 -13.5703 -13.5703 -13.4986 -13.4986 -13.4532 -13.4532
   -13.2407 -13.2407   0.4790   0.4790   4.9003   4.9003

     highest occupied level (ev):     8.0637

!    total energy              =    -325.63485153 Ry
     estimated scf accuracy    <       0.00000009 Ry

     The total energy is the sum of the following terms:
     one-electron contribution =    -150.99917706 Ry
     hartree contribution      =      93.25779927 Ry
     xc contribution           =     -95.23404338 Ry
     ewald contribution        =    -172.65943036 Ry

     convergence has been achieved in   7 iterations

     Writing all to output data dir ./alpha-sn-scf/alphatin.save/ :
     XML data file, charge density, pseudopotentials, collected wavefunctions

     init_run     :      0.95s CPU      1.06s WALL (       1 calls)
     electrons    :      1.30s CPU      1.42s WALL (       1 calls)

     Called by init_run:
     wfcinit      :      0.04s CPU      0.06s WALL (       1 calls)
     potinit      :      0.04s CPU      0.06s WALL (       1 calls)
     hinit0       :      0.68s CPU      0.70s WALL (       1 calls)

     Called by electrons:
     c_bands      :      0.67s CPU      0.69s WALL (       8 calls)
     sum_band     :      0.29s CPU      0.30s WALL (       8 calls)
     v_of_rho     :      0.22s CPU      0.24s WALL (       8 calls)
     newd         :      0.10s CPU      0.12s WALL (       8 calls)
     mix_rho      :      0.02s CPU      0.02s WALL (       8 calls)

     Called by c_bands:
     init_us_2    :      0.02s CPU      0.02s WALL (      34 calls)
     cegterg      :      0.61s CPU      0.63s WALL (      16 calls)

     Called by *egterg:
     cdiaghg      :      0.02s CPU      0.02s WALL (      66 calls)
     h_psi        :      0.56s CPU      0.58s WALL (      70 calls)
     s_psi        :      0.01s CPU      0.01s WALL (      70 calls)
     g_psi        :      0.00s CPU      0.00s WALL (      52 calls)

     Called by h_psi:
     h_psi:calbec :      0.02s CPU      0.02s WALL (      70 calls)
     vloc_psi     :      0.52s CPU      0.54s WALL (      70 calls)
     add_vuspsi   :      0.01s CPU      0.01s WALL (      70 calls)

     General routines
     calbec       :      0.02s CPU      0.02s WALL (      86 calls)
     fft          :      0.77s CPU      0.79s WALL (      89 calls)
     ffts         :      0.02s CPU      0.02s WALL (       8 calls)
     fftw         :      0.55s CPU      0.57s WALL (    1478 calls)

     Parallel routines

     PWSCF        :      3.03s CPU      3.61s WALL


   This run was terminated on:  12: 2:11   4Feb2026            

=------------------------------------------------------------------------------=
   JOB DONE.
=------------------------------------------------------------------------------=
