
     Program PWSCF v.7.3.1 starts on  4Feb2026 at 12: 2:51 

     This program is part of the open-source Quantum ESPRESSO suite
     for quantum simulation of materials; please cite
         "P. Giannozzi et al., J. Phys.:Condens. Matter 21 395502 (2009);
         "P. Giannozzi et al., J. Phys.:Condens. Matter 29 465901 (2017);
         "P. Giannozzi et al., J. Chem. Phys. 152 154105 (2020);
          URL http://www.quantum-espresso.org", 
     in publications or presentations arising from this work. More details at
     http://www.quantum-espresso.org/quote

     Parallel version (MPI), running on   128 processors

     MPI processes distributed on     1 nodes
     240534 MiB available memory on the printing compute node when the environment starts

     Waiting for input...
     Reading input from standard input
     Message from routine read_cards :
     DEPRECATED: no units specified in ATOMIC_POSITIONS card
     Message from routine read_cards :
     ATOMIC_POSITIONS: units set to alat

     Current dimensions of program PWSCF are:
     Max number of different atomic species (ntypx) = 10
     Max number of k-points (npk) =  40000
     Max angular momentum in pseudopotentials (lmaxx) =  4

     K-points division:     npool     =       4
     R & G space division:  proc/nbgrp/npool/nimage =      32
     Subspace diagonalization in iterative solution of the eigenvalue problem:
     a serial algorithm will be used


     Parallelization info
     --------------------
     sticks:   dense  smooth     PW     G-vecs:    dense   smooth      PW
     Min         193     193     51                10025    10025    1385
     Max         194     194     52                10028    10028    1389
     Sum        6181    6181   1651               320843   320843   44375

     Using Slab Decomposition



     bravais-lattice index     =            2
     lattice parameter (alat)  =      12.2300  a.u.
     unit-cell volume          =     457.3191 (a.u.)^3
     number of atoms/cell      =            2
     number of atomic types    =            1
     number of electrons       =        28.00
     number of Kohn-Sham states=           14
     kinetic-energy cutoff     =     300.0000  Ry
     charge density cutoff     =    1200.0000  Ry
     scf convergence threshold =      1.0E-07
     mixing beta               =       0.7000
     number of iterations used =            8  plain     mixing
     Exchange-correlation=  SLA  PW   GGX  GGC
                           (   1   4   2   2   0   0   0)

     celldm(1)=  12.230000  celldm(2)=   0.000000  celldm(3)=   0.000000
     celldm(4)=   0.000000  celldm(5)=   0.000000  celldm(6)=   0.000000

     crystal axes: (cart. coord. in units of alat)
               a(1) = (  -0.500000   0.000000   0.500000 )  
               a(2) = (   0.000000   0.500000   0.500000 )  
               a(3) = (  -0.500000   0.500000   0.000000 )  

     reciprocal axes: (cart. coord. in units 2 pi/alat)
               b(1) = ( -1.000000 -1.000000  1.000000 )  
               b(2) = (  1.000000  1.000000  1.000000 )  
               b(3) = ( -1.000000  1.000000 -1.000000 )  


     PseudoPot. # 1 for Sn read from file:
     ./Sn.pw91-n-van.UPF
     MD5 check sum: a38d2a872edd1a4efd76c0a1a38f7031
     Pseudo is Ultrasoft + core correction, Zval = 14.0
     Generated by new atomic code, or converted to UPF format
     Using radial grid of  891 points,  6 beta functions with: 
                l(1) =   0
                l(2) =   0
                l(3) =   1
                l(4) =   1
                l(5) =   2
                l(6) =   2
     Q(r) pseudized with  8 coefficients,  rinner =    1.100   1.100   1.100
                                                       1.100   1.100

     atomic species   valence    mass     pseudopotential
     Sn               14.00   118.70000     Sn( 1.00)

     48 Sym. Ops., with inversion, found (24 have fractional translation)



   Cartesian axes

     site n.     atom                  positions (alat units)
         1        Sn     tau(   1) = (   0.0000000   0.0000000   0.0000000  )
         2        Sn     tau(   2) = (   0.2500000   0.2500000   0.2500000  )

     number of k points=     8
                       cart. coord. in units 2pi/alat
        k(    1) = (   0.0000000   0.0000000   0.0000000), wk =   0.0312500
        k(    2) = (  -0.2500000   0.2500000  -0.2500000), wk =   0.2500000
        k(    3) = (   0.5000000  -0.5000000   0.5000000), wk =   0.1250000
        k(    4) = (   0.0000000   0.5000000   0.0000000), wk =   0.1875000
        k(    5) = (   0.7500000  -0.2500000   0.7500000), wk =   0.7500000
        k(    6) = (   0.5000000   0.0000000   0.5000000), wk =   0.3750000
        k(    7) = (   0.0000000  -1.0000000   0.0000000), wk =   0.0937500
        k(    8) = (  -0.5000000  -1.0000000   0.0000000), wk =   0.1875000

     Dense  grid:   320843 G-vectors     FFT dimensions: (  96,  96,  96)

     Estimated max dynamical RAM per process >      17.64 MB

     Estimated total dynamical RAM >       1.98 GB

     Initial potential from superposition of free atoms

     starting charge      27.9964, renormalised to      28.0000
     Starting wfcs are   18 randomized atomic wfcs

     total cpu time spent up to now is        1.4 secs

     per-process dynamical memory:    20.5 Mb

     Self-consistent Calculation

     iteration #  1     ecut=   300.00 Ry     beta= 0.70
     Davidson diagonalization with overlap
     ethr =  1.00E-02,  avg # of iterations =  2.1

     Threshold (ethr) on eigenvalues was too large:
     Diagonalizing with lowered threshold

     Davidson diagonalization with overlap
     ethr =  3.12E-05,  avg # of iterations =  4.4

     total cpu time spent up to now is        1.8 secs

     total energy              =    -325.55613703 Ry
     estimated scf accuracy    <       0.01262784 Ry

     iteration #  2     ecut=   300.00 Ry     beta= 0.70
     Davidson diagonalization with overlap
     ethr =  4.51E-05,  avg # of iterations =  4.4

     total cpu time spent up to now is        2.0 secs

     total energy              =    -325.59850801 Ry
     estimated scf accuracy    <       0.01973683 Ry

     iteration #  3     ecut=   300.00 Ry     beta= 0.70
     Davidson diagonalization with overlap
     ethr =  4.51E-05,  avg # of iterations =  1.5

     total cpu time spent up to now is        2.2 secs

     total energy              =    -325.61488652 Ry
     estimated scf accuracy    <       0.00807960 Ry

     iteration #  4     ecut=   300.00 Ry     beta= 0.70
     Davidson diagonalization with overlap
     ethr =  2.89E-05,  avg # of iterations =  3.0

     total cpu time spent up to now is        2.3 secs

     total energy              =    -325.63430157 Ry
     estimated scf accuracy    <       0.00029010 Ry

     iteration #  5     ecut=   300.00 Ry     beta= 0.70
     Davidson diagonalization with overlap
     ethr =  1.04E-06,  avg # of iterations =  2.5

     total cpu time spent up to now is        2.5 secs

     total energy              =    -325.63523791 Ry
     estimated scf accuracy    <       0.00025061 Ry

     iteration #  6     ecut=   300.00 Ry     beta= 0.70
     Davidson diagonalization with overlap
     ethr =  8.95E-07,  avg # of iterations =  2.0

     total cpu time spent up to now is        2.7 secs

     total energy              =    -325.63542193 Ry
     estimated scf accuracy    <       0.00003496 Ry

     iteration #  7     ecut=   300.00 Ry     beta= 0.70
     Davidson diagonalization with overlap
     ethr =  1.25E-07,  avg # of iterations =  2.4

     total cpu time spent up to now is        2.9 secs

     total energy              =    -325.63542373 Ry
     estimated scf accuracy    <       0.00000012 Ry

     iteration #  8     ecut=   300.00 Ry     beta= 0.70
     Davidson diagonalization with overlap
     ethr =  4.46E-10,  avg # of iterations =  3.8

     total cpu time spent up to now is        3.1 secs

     total energy              =    -325.63542375 Ry
     estimated scf accuracy    <       0.00000019 Ry

     iteration #  9     ecut=   300.00 Ry     beta= 0.70
     Davidson diagonalization with overlap
     ethr =  4.46E-10,  avg # of iterations =  2.1

     total cpu time spent up to now is        3.2 secs

     End of self-consistent calculation

          k = 0.0000 0.0000 0.0000 ( 39957 PWs)   bands (ev):

   -13.7156 -13.7156 -13.7156 -13.6564 -13.6564 -13.3392 -13.3392 -13.3392
   -13.3305 -13.3305  -2.7005   7.3369   8.0630   8.0630

          k =-0.2500 0.2500-0.2500 ( 40122 PWs)   bands (ev):

   -13.7419 -13.7419 -13.7025 -13.6157 -13.6157 -13.3848 -13.3848 -13.3560
   -13.2933 -13.2933  -2.1085   3.9183   7.3000   7.3000

          k = 0.5000-0.5000 0.5000 ( 40094 PWs)   bands (ev):

   -13.7526 -13.7526 -13.6885 -13.5945 -13.5945 -13.4010 -13.4010 -13.3737
   -13.2816 -13.2816  -1.0621   1.6349   6.8429   6.8429

          k = 0.0000 0.5000 0.0000 ( 40126 PWs)   bands (ev):

   -13.7438 -13.7438 -13.7196 -13.6078 -13.5581 -13.4717 -13.3773 -13.3091
   -13.2979 -13.2979  -1.8915   3.8044   6.3559   6.3559

          k = 0.7500-0.2500 0.7500 ( 40149 PWs)   bands (ev):

   -13.7825 -13.7620 -13.6558 -13.5570 -13.5279 -13.4997 -13.4321 -13.3835
   -13.2696 -13.2485  -0.7141   1.6732   5.0193   6.0388

          k = 0.5000 0.0000 0.5000 ( 40122 PWs)   bands (ev):

   -13.7760 -13.7640 -13.6497 -13.5915 -13.5538 -13.4460 -13.4150 -13.4008
   -13.2658 -13.2588  -1.2015   2.3656   4.9298   6.7742

          k = 0.0000-1.0000 0.0000 ( 40170 PWs)   bands (ev):

   -13.7680 -13.7680 -13.6314 -13.6314 -13.4916 -13.4916 -13.4063 -13.4063
   -13.2605 -13.2605   0.4180   0.4180   5.4843   5.4843

          k =-0.5000-1.0000 0.0000 ( 40148 PWs)   bands (ev):

   -13.7860 -13.7860 -13.5726 -13.5726 -13.5009 -13.5009 -13.4555 -13.4555
   -13.2430 -13.2430   0.4783   0.4783   4.8999   4.8999

     highest occupied level (ev):     8.0630

!    total energy              =    -325.63542383 Ry
     estimated scf accuracy    <       0.00000001 Ry

     The total energy is the sum of the following terms:
     one-electron contribution =    -151.00142976 Ry
     hartree contribution      =      93.25991318 Ry
     xc contribution           =     -95.23447689 Ry
     ewald contribution        =    -172.65943036 Ry

     convergence has been achieved in   9 iterations

     Writing all to output data dir ./alpha-sn-scf/alphatin.save/ :
     XML data file, charge density, pseudopotentials, collected wavefunctions

     init_run     :      1.04s CPU      1.11s WALL (       1 calls)
     electrons    :      1.74s CPU      1.92s WALL (       1 calls)

     Called by init_run:
     wfcinit      :      0.06s CPU      0.07s WALL (       1 calls)
     potinit      :      0.05s CPU      0.06s WALL (       1 calls)
     hinit0       :      0.68s CPU      0.70s WALL (       1 calls)

     Called by electrons:
     c_bands      :      0.88s CPU      0.92s WALL (      10 calls)
     sum_band     :      0.37s CPU      0.41s WALL (      10 calls)
     v_of_rho     :      0.28s CPU      0.30s WALL (      10 calls)
     newd         :      0.15s CPU      0.17s WALL (      10 calls)
     mix_rho      :      0.04s CPU      0.05s WALL (      10 calls)

     Called by c_bands:
     init_us_2    :      0.02s CPU      0.03s WALL (      42 calls)
     cegterg      :      0.82s CPU      0.84s WALL (      20 calls)

     Called by *egterg:
     cdiaghg      :      0.03s CPU      0.03s WALL (      84 calls)
     h_psi        :      0.73s CPU      0.75s WALL (      88 calls)
     s_psi        :      0.02s CPU      0.02s WALL (      88 calls)
     g_psi        :      0.00s CPU      0.00s WALL (      66 calls)

     Called by h_psi:
     h_psi:calbec :      0.03s CPU      0.03s WALL (      88 calls)
     vloc_psi     :      0.67s CPU      0.69s WALL (      88 calls)
     add_vuspsi   :      0.02s CPU      0.02s WALL (      88 calls)

     General routines
     calbec       :      0.04s CPU      0.04s WALL (     108 calls)
     fft          :      0.81s CPU      0.83s WALL (     111 calls)
     ffts         :      0.02s CPU      0.02s WALL (      10 calls)
     fftw         :      0.70s CPU      0.73s WALL (    1840 calls)

     Parallel routines

     PWSCF        :      3.07s CPU      4.65s WALL


   This run was terminated on:  12: 2:56   4Feb2026            

=------------------------------------------------------------------------------=
   JOB DONE.
=------------------------------------------------------------------------------=
