
     Program PWSCF v.7.3.1 starts on  4Feb2026 at 12: 3:36 

     This program is part of the open-source Quantum ESPRESSO suite
     for quantum simulation of materials; please cite
         "P. Giannozzi et al., J. Phys.:Condens. Matter 21 395502 (2009);
         "P. Giannozzi et al., J. Phys.:Condens. Matter 29 465901 (2017);
         "P. Giannozzi et al., J. Chem. Phys. 152 154105 (2020);
          URL http://www.quantum-espresso.org", 
     in publications or presentations arising from this work. More details at
     http://www.quantum-espresso.org/quote

     Parallel version (MPI), running on   128 processors

     MPI processes distributed on     1 nodes
     240501 MiB available memory on the printing compute node when the environment starts

     Waiting for input...
     Reading input from standard input
     Message from routine read_cards :
     DEPRECATED: no units specified in ATOMIC_POSITIONS card
     Message from routine read_cards :
     ATOMIC_POSITIONS: units set to alat

     Current dimensions of program PWSCF are:
     Max number of different atomic species (ntypx) = 10
     Max number of k-points (npk) =  40000
     Max angular momentum in pseudopotentials (lmaxx) =  4

     K-points division:     npool     =       4
     R & G space division:  proc/nbgrp/npool/nimage =      32
     Subspace diagonalization in iterative solution of the eigenvalue problem:
     a serial algorithm will be used


     Parallelization info
     --------------------
     sticks:   dense  smooth     PW     G-vecs:    dense   smooth      PW
     Min         212     212     56                11568    11568    1583
     Max         213     213     57                11570    11570    1586
     Sum        6793    6793   1801               370191   370191   50701

     Using Slab Decomposition



     bravais-lattice index     =            2
     lattice parameter (alat)  =      12.2300  a.u.
     unit-cell volume          =     457.3191 (a.u.)^3
     number of atoms/cell      =            2
     number of atomic types    =            1
     number of electrons       =        28.00
     number of Kohn-Sham states=           14
     kinetic-energy cutoff     =     330.0000  Ry
     charge density cutoff     =    1320.0000  Ry
     scf convergence threshold =      1.0E-07
     mixing beta               =       0.7000
     number of iterations used =            8  plain     mixing
     Exchange-correlation=  SLA  PW   GGX  GGC
                           (   1   4   2   2   0   0   0)

     celldm(1)=  12.230000  celldm(2)=   0.000000  celldm(3)=   0.000000
     celldm(4)=   0.000000  celldm(5)=   0.000000  celldm(6)=   0.000000

     crystal axes: (cart. coord. in units of alat)
               a(1) = (  -0.500000   0.000000   0.500000 )  
               a(2) = (   0.000000   0.500000   0.500000 )  
               a(3) = (  -0.500000   0.500000   0.000000 )  

     reciprocal axes: (cart. coord. in units 2 pi/alat)
               b(1) = ( -1.000000 -1.000000  1.000000 )  
               b(2) = (  1.000000  1.000000  1.000000 )  
               b(3) = ( -1.000000  1.000000 -1.000000 )  


     PseudoPot. # 1 for Sn read from file:
     ./Sn.pw91-n-van.UPF
     MD5 check sum: a38d2a872edd1a4efd76c0a1a38f7031
     Pseudo is Ultrasoft + core correction, Zval = 14.0
     Generated by new atomic code, or converted to UPF format
     Using radial grid of  891 points,  6 beta functions with: 
                l(1) =   0
                l(2) =   0
                l(3) =   1
                l(4) =   1
                l(5) =   2
                l(6) =   2
     Q(r) pseudized with  8 coefficients,  rinner =    1.100   1.100   1.100
                                                       1.100   1.100

     atomic species   valence    mass     pseudopotential
     Sn               14.00   118.70000     Sn( 1.00)

     48 Sym. Ops., with inversion, found (24 have fractional translation)



   Cartesian axes

     site n.     atom                  positions (alat units)
         1        Sn     tau(   1) = (   0.0000000   0.0000000   0.0000000  )
         2        Sn     tau(   2) = (   0.2500000   0.2500000   0.2500000  )

     number of k points=     8
                       cart. coord. in units 2pi/alat
        k(    1) = (   0.0000000   0.0000000   0.0000000), wk =   0.0312500
        k(    2) = (  -0.2500000   0.2500000  -0.2500000), wk =   0.2500000
        k(    3) = (   0.5000000  -0.5000000   0.5000000), wk =   0.1250000
        k(    4) = (   0.0000000   0.5000000   0.0000000), wk =   0.1875000
        k(    5) = (   0.7500000  -0.2500000   0.7500000), wk =   0.7500000
        k(    6) = (   0.5000000   0.0000000   0.5000000), wk =   0.3750000
        k(    7) = (   0.0000000  -1.0000000   0.0000000), wk =   0.0937500
        k(    8) = (  -0.5000000  -1.0000000   0.0000000), wk =   0.1875000

     Dense  grid:   370191 G-vectors     FFT dimensions: ( 108, 108, 108)

     Estimated max dynamical RAM per process >      21.08 MB

     Estimated total dynamical RAM >       2.37 GB

     Initial potential from superposition of free atoms

     starting charge      27.9964, renormalised to      28.0000
     Starting wfcs are   18 randomized atomic wfcs

     total cpu time spent up to now is        1.3 secs

     per-process dynamical memory:    26.0 Mb

     Self-consistent Calculation

     iteration #  1     ecut=   330.00 Ry     beta= 0.70
     Davidson diagonalization with overlap
     ethr =  1.00E-02,  avg # of iterations =  2.2

     Threshold (ethr) on eigenvalues was too large:
     Diagonalizing with lowered threshold

     Davidson diagonalization with overlap
     ethr =  3.84E-05,  avg # of iterations =  3.8

     total cpu time spent up to now is        1.9 secs

     total energy              =    -325.51785802 Ry
     estimated scf accuracy    <       0.01384291 Ry

     iteration #  2     ecut=   330.00 Ry     beta= 0.70
     Davidson diagonalization with overlap
     ethr =  4.94E-05,  avg # of iterations =  5.9

     total cpu time spent up to now is        2.2 secs

     total energy              =    -325.61102361 Ry
     estimated scf accuracy    <       0.03799923 Ry

     iteration #  3     ecut=   330.00 Ry     beta= 0.70
     Davidson diagonalization with overlap
     ethr =  4.94E-05,  avg # of iterations =  1.4

     total cpu time spent up to now is        2.4 secs

     total energy              =    -325.63262845 Ry
     estimated scf accuracy    <       0.01913401 Ry

     iteration #  4     ecut=   330.00 Ry     beta= 0.70
     Davidson diagonalization with overlap
     ethr =  4.94E-05,  avg # of iterations =  2.2

     total cpu time spent up to now is        2.7 secs

     total energy              =    -325.63594911 Ry
     estimated scf accuracy    <       0.00058786 Ry

     iteration #  5     ecut=   330.00 Ry     beta= 0.70
     Davidson diagonalization with overlap
     ethr =  2.10E-06,  avg # of iterations =  2.1

     negative rho (up, down):  1.988E-07 0.000E+00

     total cpu time spent up to now is        3.0 secs

     total energy              =    -325.63599368 Ry
     estimated scf accuracy    <       0.00006867 Ry

     iteration #  6     ecut=   330.00 Ry     beta= 0.70
     Davidson diagonalization with overlap
     ethr =  2.45E-07,  avg # of iterations =  2.1

     negative rho (up, down):  1.236E-08 0.000E+00

     total cpu time spent up to now is        3.2 secs

     total energy              =    -325.63600990 Ry
     estimated scf accuracy    <       0.00000177 Ry

     iteration #  7     ecut=   330.00 Ry     beta= 0.70
     Davidson diagonalization with overlap
     ethr =  6.32E-09,  avg # of iterations =  2.9

     negative rho (up, down):  6.320E-08 0.000E+00

     total cpu time spent up to now is        3.5 secs

     total energy              =    -325.63601072 Ry
     estimated scf accuracy    <       0.00000024 Ry

     iteration #  8     ecut=   330.00 Ry     beta= 0.70
     Davidson diagonalization with overlap
     ethr =  8.63E-10,  avg # of iterations =  2.5

     negative rho (up, down):  6.413E-08 0.000E+00

     total cpu time spent up to now is        3.8 secs

     End of self-consistent calculation

          k = 0.0000 0.0000 0.0000 ( 45911 PWs)   bands (ev):

   -13.7154 -13.7154 -13.7154 -13.6562 -13.6562 -13.3389 -13.3389 -13.3389
   -13.3303 -13.3303  -2.7004   7.3370   8.0631   8.0631

          k =-0.2500 0.2500-0.2500 ( 46268 PWs)   bands (ev):

   -13.7416 -13.7416 -13.7022 -13.6154 -13.6154 -13.3846 -13.3846 -13.3558
   -13.2931 -13.2931  -2.1084   3.9184   7.3001   7.3001

          k = 0.5000-0.5000 0.5000 ( 46252 PWs)   bands (ev):

   -13.7524 -13.7524 -13.6882 -13.5942 -13.5942 -13.4008 -13.4008 -13.3735
   -13.2814 -13.2814  -1.0619   1.6350   6.8430   6.8430

          k = 0.0000 0.5000 0.0000 ( 46331 PWs)   bands (ev):

   -13.7435 -13.7435 -13.7194 -13.6075 -13.5578 -13.4715 -13.3771 -13.3088
   -13.2977 -13.2977  -1.8914   3.8045   6.3560   6.3560

          k = 0.7500-0.2500 0.7500 ( 46305 PWs)   bands (ev):

   -13.7823 -13.7618 -13.6555 -13.5568 -13.5276 -13.4994 -13.4319 -13.3832
   -13.2694 -13.2483  -0.7140   1.6734   5.0193   6.0389

          k = 0.5000 0.0000 0.5000 ( 46291 PWs)   bands (ev):

   -13.7757 -13.7637 -13.6495 -13.5913 -13.5536 -13.4458 -13.4148 -13.4006
   -13.2656 -13.2586  -1.2014   2.3657   4.9298   6.7743

          k = 0.0000-1.0000 0.0000 ( 46424 PWs)   bands (ev):

   -13.7677 -13.7677 -13.6312 -13.6312 -13.4914 -13.4914 -13.4061 -13.4061
   -13.2603 -13.2603   0.4181   0.4181   5.4844   5.4844

          k =-0.5000-1.0000 0.0000 ( 46352 PWs)   bands (ev):

   -13.7858 -13.7858 -13.5723 -13.5723 -13.5006 -13.5006 -13.4552 -13.4552
   -13.2428 -13.2428   0.4784   0.4784   4.8999   4.8999

     highest occupied level (ev):     8.0631

!    total energy              =    -325.63601075 Ry
     estimated scf accuracy    <          4.1E-09 Ry

     The total energy is the sum of the following terms:
     one-electron contribution =    -151.00176570 Ry
     hartree contribution      =      93.25958282 Ry
     xc contribution           =     -95.23439752 Ry
     ewald contribution        =    -172.65943036 Ry

     convergence has been achieved in   8 iterations

     Writing all to output data dir ./alpha-sn-scf/alphatin.save/ :
     XML data file, charge density, pseudopotentials, collected wavefunctions

     init_run     :      0.93s CPU      1.03s WALL (       1 calls)
     electrons    :      2.37s CPU      3.02s WALL (       1 calls)

     Called by init_run:
     wfcinit      :      0.07s CPU      0.09s WALL (       1 calls)
     potinit      :      0.05s CPU      0.07s WALL (       1 calls)
     hinit0       :      0.48s CPU      0.51s WALL (       1 calls)

     Called by electrons:
     c_bands      :      1.28s CPU      1.31s WALL (       9 calls)
     sum_band     :      0.49s CPU      0.51s WALL (       9 calls)
     v_of_rho     :      0.39s CPU      0.43s WALL (       9 calls)
     newd         :      0.18s CPU      0.19s WALL (       9 calls)
     mix_rho      :      0.05s CPU      0.05s WALL (       9 calls)

     Called by c_bands:
     init_us_2    :      0.03s CPU      0.03s WALL (      38 calls)
     cegterg      :      1.19s CPU      1.20s WALL (      18 calls)

     Called by *egterg:
     cdiaghg      :      0.03s CPU      0.03s WALL (      74 calls)
     h_psi        :      1.11s CPU      1.12s WALL (      78 calls)
     s_psi        :      0.02s CPU      0.02s WALL (      78 calls)
     g_psi        :      0.00s CPU      0.00s WALL (      58 calls)

     Called by h_psi:
     h_psi:calbec :      0.04s CPU      0.04s WALL (      78 calls)
     vloc_psi     :      1.04s CPU      1.05s WALL (      78 calls)
     add_vuspsi   :      0.02s CPU      0.02s WALL (      78 calls)

     General routines
     calbec       :      0.05s CPU      0.05s WALL (      96 calls)
     fft          :      0.63s CPU      0.69s WALL (     100 calls)
     ffts         :      0.02s CPU      0.02s WALL (       9 calls)
     fftw         :      1.09s CPU      1.09s WALL (    1638 calls)

     Parallel routines

     PWSCF        :      3.55s CPU      5.37s WALL


   This run was terminated on:  12: 3:41   4Feb2026            

=------------------------------------------------------------------------------=
   JOB DONE.
=------------------------------------------------------------------------------=
