
     Program PWSCF v.7.3.1 starts on  3Feb2026 at 14:30:41 

     This program is part of the open-source Quantum ESPRESSO suite
     for quantum simulation of materials; please cite
         "P. Giannozzi et al., J. Phys.:Condens. Matter 21 395502 (2009);
         "P. Giannozzi et al., J. Phys.:Condens. Matter 29 465901 (2017);
         "P. Giannozzi et al., J. Chem. Phys. 152 154105 (2020);
          URL http://www.quantum-espresso.org", 
     in publications or presentations arising from this work. More details at
     http://www.quantum-espresso.org/quote

     Parallel version (MPI), running on   128 processors

     MPI processes distributed on     1 nodes
     241024 MiB available memory on the printing compute node when the environment starts

     Waiting for input...
     Reading input from standard input

     Current dimensions of program PWSCF are:
     Max number of different atomic species (ntypx) = 10
     Max number of k-points (npk) =  40000
     Max angular momentum in pseudopotentials (lmaxx) =  4
     file O.pbe-mt.UPF: wavefunction(s)  0S 0P 0D renormalized

     K-points division:     npool     =       4
     R & G space division:  proc/nbgrp/npool/nimage =      32
     Subspace diagonalization in iterative solution of the eigenvalue problem:
     a serial algorithm will be used


     Parallelization info
     --------------------
     sticks:   dense  smooth     PW     G-vecs:    dense   smooth      PW
     Min          89      89     24                 4231     4231     604
     Max          90      90     25                 4234     4234     609
     Sum        2857    2857    769               135455   135455   19357

     Using Slab Decomposition



     bravais-lattice index     =            4
     lattice parameter (alat)  =       9.2850  a.u.
     unit-cell volume          =     762.5513 (a.u.)^3
     number of atoms/cell      =            9
     number of atomic types    =            2
     number of electrons       =        48.00
     number of Kohn-Sham states=           24
     kinetic-energy cutoff     =     120.0000  Ry
     charge density cutoff     =     480.0000  Ry
     scf convergence threshold =      1.0E-07
     mixing beta               =       0.7000
     number of iterations used =            8  plain     mixing
     Exchange-correlation= SLA  PW   PBE  PBE
                           (   1   4   3   4   0   0   0)

     celldm(1)=   9.285000  celldm(2)=   0.000000  celldm(3)=   1.100000
     celldm(4)=   0.000000  celldm(5)=   0.000000  celldm(6)=   0.000000

     crystal axes: (cart. coord. in units of alat)
               a(1) = (   1.000000   0.000000   0.000000 )  
               a(2) = (  -0.500000   0.866025   0.000000 )  
               a(3) = (   0.000000   0.000000   1.100000 )  

     reciprocal axes: (cart. coord. in units 2 pi/alat)
               b(1) = (  1.000000  0.577350 -0.000000 )  
               b(2) = (  0.000000  1.154701  0.000000 )  
               b(3) = (  0.000000 -0.000000  0.909091 )  


     PseudoPot. # 1 for Si read from file:
     ./Si.pbe-mt_gipaw.UPF
     MD5 check sum: 6403528c9575c057caf2f4a55eeaaaf3
     Pseudo is Norm-conserving, Zval =  4.0
     Generated by new atomic code, or converted to UPF format
     Using radial grid of 1141 points,  2 beta functions with: 
                l(1) =   1
                l(2) =   2

     PseudoPot. # 2 for O  read from file:
     ./O.pbe-mt.UPF
     MD5 check sum: 0e6f701a033a22f8ce6a91b40f8bdab8
     Pseudo is Norm-conserving, Zval =  6.0
     Generated by new atomic code, or converted to UPF format
     Using radial grid of  473 points,  2 beta functions with: 
                l(1) =   0
                l(2) =   1

     atomic species   valence    mass     pseudopotential
     Si                4.00    28.08600     Si( 1.00)
     O                 6.00    16.00000     O ( 1.00)

      6 Sym. Ops. (no inversion) found ( 4 have fractional translation)



   Cartesian axes

     site n.     atom                  positions (alat units)
         1        Si     tau(   1) = (  -0.2349350   0.4069194   0.3666663  )
         2        Si     tau(   2) = (   0.4698700   0.0000000   0.7333330  )
         3        Si     tau(   3) = (   0.2650650   0.4591060   1.0999996  )
         4        O      tau(   4) = (   0.2800500   0.2321814   0.8640500  )
         5        O      tau(   5) = (   0.6589000   0.1264397   0.4973833  )
         6        O      tau(   6) = (   0.5610500   0.5074043   0.1307167  )
         7        O      tau(   7) = (   0.0610500   0.3586211   0.2359500  )
         8        O      tau(   8) = (  -0.2199500   0.6338440   0.6026167  )
         9        O      tau(   9) = (   0.1589000   0.7395857   0.9692833  )

     number of k points=    13
                       cart. coord. in units 2pi/alat
        k(    1) = (   0.0000000   0.0000000   0.0000000), wk =   0.0312500
        k(    2) = (   0.0000000   0.0000000   0.2272727), wk =   0.0625000
        k(    3) = (   0.0000000   0.0000000  -0.4545455), wk =   0.0312500
        k(    4) = (   0.0000000   0.2886751   0.0000000), wk =   0.1875000
        k(    5) = (   0.0000000   0.2886751   0.2272727), wk =   0.1875000
        k(    6) = (   0.0000000   0.2886751  -0.4545455), wk =   0.1875000
        k(    7) = (   0.0000000  -0.5773503   0.0000000), wk =   0.0937500
        k(    8) = (   0.0000000  -0.5773503   0.2272727), wk =   0.1875000
        k(    9) = (   0.0000000  -0.5773503  -0.4545455), wk =   0.0937500
        k(   10) = (   0.2500000   0.4330127   0.0000000), wk =   0.1875000
        k(   11) = (   0.2500000   0.4330127   0.2272727), wk =   0.3750000
        k(   12) = (   0.2500000   0.4330127  -0.4545455), wk =   0.1875000
        k(   13) = (   0.0000000   0.2886751  -0.2272727), wk =   0.1875000

     Dense  grid:   135455 G-vectors     FFT dimensions: (  72,  72,  72)

     Estimated max dynamical RAM per process >       6.27 MB

     Estimated total dynamical RAM >     703.23 MB

     Initial potential from superposition of free atoms

     starting charge      45.0015, renormalised to      48.0000
     Starting wfcs are   81 randomized atomic wfcs

     total cpu time spent up to now is        1.2 secs

     per-process dynamical memory:    12.5 Mb

     Self-consistent Calculation

     iteration #  1     ecut=   120.00 Ry     beta= 0.70
     Davidson diagonalization with overlap
     ethr =  1.00E-02,  avg # of iterations =  2.0

     Threshold (ethr) on eigenvalues was too large:
     Diagonalizing with lowered threshold

     Davidson diagonalization with overlap
     ethr =  7.08E-04,  avg # of iterations =  1.0

     total cpu time spent up to now is        1.6 secs

     total energy              =    -216.71844867 Ry
     estimated scf accuracy    <       0.32894867 Ry

     iteration #  2     ecut=   120.00 Ry     beta= 0.70
     Davidson diagonalization with overlap
     ethr =  6.85E-04,  avg # of iterations =  2.0

     total cpu time spent up to now is        1.8 secs

     total energy              =    -216.77985784 Ry
     estimated scf accuracy    <       0.10389978 Ry

     iteration #  3     ecut=   120.00 Ry     beta= 0.70
     Davidson diagonalization with overlap
     ethr =  2.16E-04,  avg # of iterations =  2.0

     total cpu time spent up to now is        2.0 secs

     total energy              =    -216.80071157 Ry
     estimated scf accuracy    <       0.00345409 Ry

     iteration #  4     ecut=   120.00 Ry     beta= 0.70
     Davidson diagonalization with overlap
     ethr =  7.20E-06,  avg # of iterations =  2.0

     total cpu time spent up to now is        2.2 secs

     total energy              =    -216.80079980 Ry
     estimated scf accuracy    <       0.00054794 Ry

     iteration #  5     ecut=   120.00 Ry     beta= 0.70
     Davidson diagonalization with overlap
     ethr =  1.14E-06,  avg # of iterations =  2.0

     total cpu time spent up to now is        2.4 secs

     total energy              =    -216.80088287 Ry
     estimated scf accuracy    <       0.00001232 Ry

     iteration #  6     ecut=   120.00 Ry     beta= 0.70
     Davidson diagonalization with overlap
     ethr =  2.57E-08,  avg # of iterations =  3.2

     total cpu time spent up to now is        2.6 secs

     total energy              =    -216.80088899 Ry
     estimated scf accuracy    <       0.00000445 Ry

     iteration #  7     ecut=   120.00 Ry     beta= 0.70
     Davidson diagonalization with overlap
     ethr =  9.26E-09,  avg # of iterations =  2.0

     total cpu time spent up to now is        2.9 secs

     End of self-consistent calculation

          k = 0.0000 0.0000 0.0000 ( 16883 PWs)   bands (ev):

   -16.8894 -15.3576 -15.3576 -14.7182 -14.6773 -14.6773  -5.7236  -5.7236
    -2.9743  -2.9471  -2.7791  -2.7791  -0.4340  -0.4340  -0.1847   0.0558
     1.0074   1.0074   1.0359   1.5125   1.5125   1.8294   2.2003   2.2003

          k = 0.0000 0.0000 0.2273 ( 16926 PWs)   bands (ev):

   -16.7673 -15.9155 -14.9029 -14.7155 -14.6950 -14.6597  -6.5040  -4.7116
    -3.1966  -3.0638  -3.0176  -2.4042  -0.5016  -0.2030  -0.1023   0.2419
     0.7380   0.8967   0.9946   1.0264   1.4369   1.9812   2.2922   2.4188

          k = 0.0000 0.0000-0.4545 ( 16884 PWs)   bands (ev):

   -16.4217 -16.4217 -14.7232 -14.7077 -14.7077 -14.6521  -6.7996  -3.7815
    -3.7815  -3.1434  -3.1434  -2.2041  -0.2068  -0.2068  -0.1290   0.5045
     0.5045   0.6751   0.6751   0.9749   1.3021   2.3005   2.3005   2.4265

          k = 0.0000 0.2887 0.0000 ( 16912 PWs)   bands (ev):

   -16.7111 -15.5630 -15.3321 -14.7587 -14.7102 -14.6902  -5.7980  -5.3507
    -3.0733  -3.0091  -2.9114  -2.4801  -0.6216  -0.3115  -0.1403   0.3187
     0.4844   0.9209   0.9956   1.4205   1.5092   1.6755   2.2725   2.3621

          k = 0.0000 0.2887 0.2273 ( 16925 PWs)   bands (ev):

   -16.6082 -15.8840 -15.1241 -14.7478 -14.7055 -14.6922  -6.1772  -4.7706
    -3.4869  -2.9945  -2.7236  -2.4408  -0.6400  -0.1562  -0.1344   0.1063
     0.4739   0.9980   1.0584   1.2124   1.6454   1.6935   2.1177   2.4841

          k = 0.0000 0.2887-0.4545 ( 16958 PWs)   bands (ev):

   -16.3762 -16.2342 -14.9956 -14.7606 -14.7106 -14.6813  -6.3685  -4.1960
    -3.8685  -2.9695  -2.8545  -2.3210  -0.5062  -0.4897   0.0340   0.2677
     0.4233   0.9263   1.0287   1.2034   1.4275   2.0682   2.0964   2.3645

          k = 0.0000-0.5774 0.0000 ( 16932 PWs)   bands (ev):

   -16.3985 -15.9205 -15.3041 -14.7775 -14.7378 -14.7114  -5.8680  -4.8777
    -3.4048  -2.9751  -2.9565  -2.1636  -0.5667  -0.4025  -0.1749   0.2141
     0.4146   0.7554   0.8397   1.4041   1.4726   1.7285   2.2440   2.4786

          k = 0.0000-0.5774 0.2273 ( 16944 PWs)   bands (ev):

   -16.3650 -15.9037 -15.3714 -14.7813 -14.7408 -14.7017  -5.7964  -4.8205
    -3.7098  -2.9577  -2.6574  -2.3441  -0.6416  -0.5625  -0.0098   0.1840
     0.5746   0.7462   1.0597   1.3439   1.5453   1.7898   2.0684   2.3962

          k = 0.0000-0.5774-0.4545 ( 16964 PWs)   bands (ev):

   -16.3277 -15.8859 -15.4391 -14.8023 -14.7232 -14.6996  -5.7182  -4.7612
    -3.9113  -2.8589  -2.5940  -2.4819  -0.7002  -0.6819   0.0744   0.3918
     0.4133   0.9516   1.2365   1.3620   1.6268   1.6745   1.9090   2.3221

          k = 0.2500 0.4330 0.0000 ( 16930 PWs)   bands (ev):

   -16.4076 -15.8942 -15.3309 -14.7739 -14.7347 -14.7087  -5.8982  -4.7408
    -3.6881  -2.9409  -2.8214  -2.1681  -0.5450  -0.3767  -0.2222   0.3165
     0.3795   0.7114   1.0007   1.1466   1.4406   1.8708   2.2061   2.4891

          k = 0.2500 0.4330 0.2273 ( 16929 PWs)   bands (ev):

   -16.3664 -15.9044 -15.3637 -14.7740 -14.7536 -14.7024  -5.8074  -4.7192
    -3.8729  -2.9199  -2.6352  -2.3531  -0.6806  -0.3934  -0.1742   0.2926
     0.5347   0.7422   1.1101   1.2944   1.5277   1.8233   2.0775   2.3589

          k = 0.2500 0.4330-0.4545 ( 16894 PWs)   bands (ev):

   -16.3176 -15.9240 -15.3936 -14.7954 -14.7250 -14.7235  -5.7029  -4.7139
    -4.0181  -2.7629  -2.6765  -2.4800  -0.7376  -0.5139  -0.0613   0.3239
     0.5547   0.7817   1.3554   1.4520   1.5646   1.7933   1.9666   2.1252

          k = 0.0000 0.2887-0.2273 ( 16925 PWs)   bands (ev):

   -16.6059 -15.8945 -15.0992 -14.7492 -14.7320 -14.6813  -6.1748  -4.7695
    -3.4864  -2.9758  -2.7002  -2.5060  -0.6812  -0.2081  -0.0756   0.2345
     0.5282   0.8818   0.9976   1.2359   1.5821   1.7738   2.2081   2.4003

     highest occupied level (ev):     2.4891

!    total energy              =    -216.80088999 Ry
     estimated scf accuracy    <       0.00000009 Ry

     The total energy is the sum of the following terms:
     one-electron contribution =    -104.85427895 Ry
     hartree contribution      =      77.83981826 Ry
     xc contribution           =     -50.82382568 Ry
     ewald contribution        =    -138.96260361 Ry

     convergence has been achieved in   7 iterations

     Writing all to output data dir ./quartz-scf-mt/quartz.save/ :
     XML data file, charge density, pseudopotentials, collected wavefunctions

     init_run     :      0.86s CPU      0.91s WALL (       1 calls)
     electrons    :      1.61s CPU      1.73s WALL (       1 calls)

     Called by init_run:
     wfcinit      :      0.21s CPU      0.21s WALL (       1 calls)
     potinit      :      0.02s CPU      0.03s WALL (       1 calls)
     hinit0       :      0.56s CPU      0.58s WALL (       1 calls)

     Called by electrons:
     c_bands      :      1.29s CPU      1.33s WALL (       8 calls)
     sum_band     :      0.20s CPU      0.22s WALL (       8 calls)
     v_of_rho     :      0.09s CPU      0.10s WALL (       8 calls)
     mix_rho      :      0.01s CPU      0.01s WALL (       8 calls)

     Called by c_bands:
     init_us_2    :      0.02s CPU      0.02s WALL (      68 calls)
     cegterg      :      1.25s CPU      1.28s WALL (      32 calls)

     Called by *egterg:
     cdiaghg      :      0.10s CPU      0.10s WALL (      94 calls)
     h_psi        :      1.23s CPU      1.25s WALL (     102 calls)
     g_psi        :      0.00s CPU      0.00s WALL (      66 calls)

     Called by h_psi:
     h_psi:calbec :      0.03s CPU      0.04s WALL (     102 calls)
     vloc_psi     :      1.17s CPU      1.19s WALL (     102 calls)
     add_vuspsi   :      0.02s CPU      0.03s WALL (     102 calls)

     General routines
     calbec       :      0.03s CPU      0.04s WALL (     102 calls)
     fft          :      0.58s CPU      0.59s WALL (      80 calls)
     ffts         :      0.00s CPU      0.00s WALL (       8 calls)
     fftw         :      1.21s CPU      1.23s WALL (    5758 calls)

     Parallel routines

     PWSCF        :      3.25s CPU      3.62s WALL


   This run was terminated on:  14:30:44   3Feb2026            

=------------------------------------------------------------------------------=
   JOB DONE.
=------------------------------------------------------------------------------=
