
     Program PWSCF v.7.3.1 starts on  3Feb2026 at 14:31:16 

     This program is part of the open-source Quantum ESPRESSO suite
     for quantum simulation of materials; please cite
         "P. Giannozzi et al., J. Phys.:Condens. Matter 21 395502 (2009);
         "P. Giannozzi et al., J. Phys.:Condens. Matter 29 465901 (2017);
         "P. Giannozzi et al., J. Chem. Phys. 152 154105 (2020);
          URL http://www.quantum-espresso.org", 
     in publications or presentations arising from this work. More details at
     http://www.quantum-espresso.org/quote

     Parallel version (MPI), running on   128 processors

     MPI processes distributed on     1 nodes
     240967 MiB available memory on the printing compute node when the environment starts

     Waiting for input...
     Reading input from standard input

     Current dimensions of program PWSCF are:
     Max number of different atomic species (ntypx) = 10
     Max number of k-points (npk) =  40000
     Max angular momentum in pseudopotentials (lmaxx) =  4
     file O.pbe-mt.UPF: wavefunction(s)  0S 0P 0D renormalized

     K-points division:     npool     =       4
     R & G space division:  proc/nbgrp/npool/nimage =      32
     Subspace diagonalization in iterative solution of the eigenvalue problem:
     a serial algorithm will be used


     Parallelization info
     --------------------
     sticks:   dense  smooth     PW     G-vecs:    dense   smooth      PW
     Min         103     103     28                 5327     5327     750
     Max         104     104     29                 5332     5332     753
     Sum        3319    3319    913               170543   170543   24077

     Using Slab Decomposition



     bravais-lattice index     =            4
     lattice parameter (alat)  =       9.2850  a.u.
     unit-cell volume          =     762.5513 (a.u.)^3
     number of atoms/cell      =            9
     number of atomic types    =            2
     number of electrons       =        48.00
     number of Kohn-Sham states=           24
     kinetic-energy cutoff     =     140.0000  Ry
     charge density cutoff     =     560.0000  Ry
     scf convergence threshold =      1.0E-07
     mixing beta               =       0.7000
     number of iterations used =            8  plain     mixing
     Exchange-correlation= SLA  PW   PBE  PBE
                           (   1   4   3   4   0   0   0)

     celldm(1)=   9.285000  celldm(2)=   0.000000  celldm(3)=   1.100000
     celldm(4)=   0.000000  celldm(5)=   0.000000  celldm(6)=   0.000000

     crystal axes: (cart. coord. in units of alat)
               a(1) = (   1.000000   0.000000   0.000000 )  
               a(2) = (  -0.500000   0.866025   0.000000 )  
               a(3) = (   0.000000   0.000000   1.100000 )  

     reciprocal axes: (cart. coord. in units 2 pi/alat)
               b(1) = (  1.000000  0.577350 -0.000000 )  
               b(2) = (  0.000000  1.154701  0.000000 )  
               b(3) = (  0.000000 -0.000000  0.909091 )  


     PseudoPot. # 1 for Si read from file:
     ./Si.pbe-mt_gipaw.UPF
     MD5 check sum: 6403528c9575c057caf2f4a55eeaaaf3
     Pseudo is Norm-conserving, Zval =  4.0
     Generated by new atomic code, or converted to UPF format
     Using radial grid of 1141 points,  2 beta functions with: 
                l(1) =   1
                l(2) =   2

     PseudoPot. # 2 for O  read from file:
     ./O.pbe-mt.UPF
     MD5 check sum: 0e6f701a033a22f8ce6a91b40f8bdab8
     Pseudo is Norm-conserving, Zval =  6.0
     Generated by new atomic code, or converted to UPF format
     Using radial grid of  473 points,  2 beta functions with: 
                l(1) =   0
                l(2) =   1

     atomic species   valence    mass     pseudopotential
     Si                4.00    28.08600     Si( 1.00)
     O                 6.00    16.00000     O ( 1.00)

      6 Sym. Ops. (no inversion) found ( 4 have fractional translation)



   Cartesian axes

     site n.     atom                  positions (alat units)
         1        Si     tau(   1) = (  -0.2349350   0.4069194   0.3666663  )
         2        Si     tau(   2) = (   0.4698700   0.0000000   0.7333330  )
         3        Si     tau(   3) = (   0.2650650   0.4591060   1.0999996  )
         4        O      tau(   4) = (   0.2800500   0.2321814   0.8640500  )
         5        O      tau(   5) = (   0.6589000   0.1264397   0.4973833  )
         6        O      tau(   6) = (   0.5610500   0.5074043   0.1307167  )
         7        O      tau(   7) = (   0.0610500   0.3586211   0.2359500  )
         8        O      tau(   8) = (  -0.2199500   0.6338440   0.6026167  )
         9        O      tau(   9) = (   0.1589000   0.7395857   0.9692833  )

     number of k points=    13
                       cart. coord. in units 2pi/alat
        k(    1) = (   0.0000000   0.0000000   0.0000000), wk =   0.0312500
        k(    2) = (   0.0000000   0.0000000   0.2272727), wk =   0.0625000
        k(    3) = (   0.0000000   0.0000000  -0.4545455), wk =   0.0312500
        k(    4) = (   0.0000000   0.2886751   0.0000000), wk =   0.1875000
        k(    5) = (   0.0000000   0.2886751   0.2272727), wk =   0.1875000
        k(    6) = (   0.0000000   0.2886751  -0.4545455), wk =   0.1875000
        k(    7) = (   0.0000000  -0.5773503   0.0000000), wk =   0.0937500
        k(    8) = (   0.0000000  -0.5773503   0.2272727), wk =   0.1875000
        k(    9) = (   0.0000000  -0.5773503  -0.4545455), wk =   0.0937500
        k(   10) = (   0.2500000   0.4330127   0.0000000), wk =   0.1875000
        k(   11) = (   0.2500000   0.4330127   0.2272727), wk =   0.3750000
        k(   12) = (   0.2500000   0.4330127  -0.4545455), wk =   0.1875000
        k(   13) = (   0.0000000   0.2886751  -0.2272727), wk =   0.1875000

     Dense  grid:   170543 G-vectors     FFT dimensions: (  72,  72,  81)

     Estimated max dynamical RAM per process >       7.49 MB

     Estimated total dynamical RAM >     834.25 MB

     Initial potential from superposition of free atoms

     starting charge      45.0015, renormalised to      48.0000
     Starting wfcs are   81 randomized atomic wfcs

     total cpu time spent up to now is        1.2 secs

     per-process dynamical memory:    13.4 Mb

     Self-consistent Calculation

     iteration #  1     ecut=   140.00 Ry     beta= 0.70
     Davidson diagonalization with overlap
     ethr =  1.00E-02,  avg # of iterations =  2.0

     Threshold (ethr) on eigenvalues was too large:
     Diagonalizing with lowered threshold

     Davidson diagonalization with overlap
     ethr =  7.08E-04,  avg # of iterations =  1.0

     total cpu time spent up to now is        1.6 secs

     total energy              =    -216.71987957 Ry
     estimated scf accuracy    <       0.32926139 Ry

     iteration #  2     ecut=   140.00 Ry     beta= 0.70
     Davidson diagonalization with overlap
     ethr =  6.86E-04,  avg # of iterations =  2.0

     total cpu time spent up to now is        1.8 secs

     total energy              =    -216.78141220 Ry
     estimated scf accuracy    <       0.10409908 Ry

     iteration #  3     ecut=   140.00 Ry     beta= 0.70
     Davidson diagonalization with overlap
     ethr =  2.17E-04,  avg # of iterations =  2.0

     total cpu time spent up to now is        2.0 secs

     total energy              =    -216.80230211 Ry
     estimated scf accuracy    <       0.00345250 Ry

     iteration #  4     ecut=   140.00 Ry     beta= 0.70
     Davidson diagonalization with overlap
     ethr =  7.19E-06,  avg # of iterations =  2.0

     total cpu time spent up to now is        2.2 secs

     total energy              =    -216.80239102 Ry
     estimated scf accuracy    <       0.00055159 Ry

     iteration #  5     ecut=   140.00 Ry     beta= 0.70
     Davidson diagonalization with overlap
     ethr =  1.15E-06,  avg # of iterations =  2.0

     total cpu time spent up to now is        2.5 secs

     total energy              =    -216.80247473 Ry
     estimated scf accuracy    <       0.00001225 Ry

     iteration #  6     ecut=   140.00 Ry     beta= 0.70
     Davidson diagonalization with overlap
     ethr =  2.55E-08,  avg # of iterations =  3.2

     total cpu time spent up to now is        2.7 secs

     total energy              =    -216.80248085 Ry
     estimated scf accuracy    <       0.00000445 Ry

     iteration #  7     ecut=   140.00 Ry     beta= 0.70
     Davidson diagonalization with overlap
     ethr =  9.26E-09,  avg # of iterations =  2.0

     total cpu time spent up to now is        3.0 secs

     End of self-consistent calculation

          k = 0.0000 0.0000 0.0000 ( 21297 PWs)   bands (ev):

   -16.8887 -15.3568 -15.3568 -14.7174 -14.6764 -14.6764  -5.7237  -5.7237
    -2.9744  -2.9472  -2.7792  -2.7792  -0.4341  -0.4341  -0.1849   0.0557
     1.0072   1.0072   1.0357   1.5123   1.5123   1.8292   2.2000   2.2000

          k = 0.0000 0.0000 0.2273 ( 21386 PWs)   bands (ev):

   -16.7666 -15.9147 -14.9021 -14.7146 -14.6941 -14.6588  -6.5041  -4.7116
    -3.1967  -3.0639  -3.0177  -2.4043  -0.5017  -0.2031  -0.1025   0.2418
     0.7378   0.8965   0.9944   1.0261   1.4367   1.9810   2.2919   2.4185

          k = 0.0000 0.0000-0.4545 ( 21350 PWs)   bands (ev):

   -16.4209 -16.4209 -14.7223 -14.7068 -14.7068 -14.6512  -6.7997  -3.7815
    -3.7815  -3.1435  -3.1435  -2.2042  -0.2069  -0.2069  -0.1292   0.5043
     0.5043   0.6749   0.6749   0.9747   1.3019   2.3002   2.3002   2.4262

          k = 0.0000 0.2887 0.0000 ( 21318 PWs)   bands (ev):

   -16.7103 -15.5622 -15.3313 -14.7578 -14.7093 -14.6893  -5.7981  -5.3507
    -3.0734  -3.0092  -2.9115  -2.4802  -0.6217  -0.3116  -0.1404   0.3186
     0.4843   0.9207   0.9954   1.4203   1.5090   1.6753   2.2723   2.3618

          k = 0.0000 0.2887 0.2273 ( 21331 PWs)   bands (ev):

   -16.6075 -15.8832 -15.1233 -14.7470 -14.7046 -14.6913  -6.1773  -4.7707
    -3.4870  -2.9946  -2.7237  -2.4409  -0.6401  -0.1563  -0.1345   0.1062
     0.4737   0.9978   1.0582   1.2122   1.6452   1.6933   2.1175   2.4838

          k = 0.0000 0.2887-0.4545 ( 21346 PWs)   bands (ev):

   -16.3755 -16.2335 -14.9948 -14.7598 -14.7097 -14.6804  -6.3685  -4.1960
    -3.8686  -2.9696  -2.8546  -2.3211  -0.5063  -0.4897   0.0339   0.2676
     0.4231   0.9261   1.0285   1.2032   1.4273   2.0680   2.0962   2.3642

          k = 0.0000-0.5774 0.0000 ( 21344 PWs)   bands (ev):

   -16.3978 -15.9197 -15.3033 -14.7766 -14.7369 -14.7106  -5.8680  -4.8777
    -3.4049  -2.9752  -2.9567  -2.1637  -0.5668  -0.4026  -0.1750   0.2140
     0.4145   0.7553   0.8395   1.4039   1.4724   1.7283   2.2438   2.4783

          k = 0.0000-0.5774 0.2273 ( 21322 PWs)   bands (ev):

   -16.3642 -15.9029 -15.3706 -14.7804 -14.7400 -14.7008  -5.7965  -4.8205
    -3.7099  -2.9578  -2.6576  -2.3442  -0.6417  -0.5626  -0.0099   0.1838
     0.5744   0.7460   1.0596   1.3437   1.5451   1.7896   2.0681   2.3960

          k = 0.0000-0.5774-0.4545 ( 21288 PWs)   bands (ev):

   -16.3270 -15.8851 -15.4383 -14.8015 -14.7223 -14.6987  -5.7183  -4.7612
    -3.9113  -2.8590  -2.5941  -2.4820  -0.7003  -0.6820   0.0742   0.3917
     0.4132   0.9514   1.2364   1.3618   1.6266   1.6744   1.9088   2.3219

          k = 0.2500 0.4330 0.0000 ( 21325 PWs)   bands (ev):

   -16.4069 -15.8934 -15.3301 -14.7730 -14.7338 -14.7078  -5.8982  -4.7408
    -3.6882  -2.9410  -2.8215  -2.1682  -0.5451  -0.3768  -0.2223   0.3163
     0.3794   0.7113   1.0005   1.1464   1.4404   1.8706   2.2058   2.4889

          k = 0.2500 0.4330 0.2273 ( 21320 PWs)   bands (ev):

   -16.3657 -15.9036 -15.3628 -14.7732 -14.7527 -14.7015  -5.8074  -4.7192
    -3.8729  -2.9200  -2.6353  -2.3532  -0.6807  -0.3935  -0.1744   0.2925
     0.5345   0.7421   1.1099   1.2942   1.5275   1.8231   2.0773   2.3587

          k = 0.2500 0.4330-0.4545 ( 21322 PWs)   bands (ev):

   -16.3168 -15.9233 -15.3927 -14.7945 -14.7241 -14.7226  -5.7029  -4.7140
    -4.0181  -2.7630  -2.6767  -2.4802  -0.7377  -0.5140  -0.0615   0.3238
     0.5545   0.7815   1.3552   1.4518   1.5644   1.7931   1.9664   2.1250

          k = 0.0000 0.2887-0.2273 ( 21331 PWs)   bands (ev):

   -16.6052 -15.8937 -15.0984 -14.7484 -14.7311 -14.6804  -6.1748  -4.7695
    -3.4865  -2.9759  -2.7003  -2.5060  -0.6813  -0.2082  -0.0757   0.2344
     0.5281   0.8816   0.9974   1.2357   1.5819   1.7736   2.2079   2.4001

     highest occupied level (ev):     2.4889

!    total energy              =    -216.80248185 Ry
     estimated scf accuracy    <       0.00000009 Ry

     The total energy is the sum of the following terms:
     one-electron contribution =    -104.85699611 Ry
     hartree contribution      =      77.84202330 Ry
     xc contribution           =     -50.82490542 Ry
     ewald contribution        =    -138.96260361 Ry

     convergence has been achieved in   7 iterations

     Writing all to output data dir ./quartz-scf-mt/quartz.save/ :
     XML data file, charge density, pseudopotentials, collected wavefunctions

     init_run     :      0.80s CPU      0.84s WALL (       1 calls)
     electrons    :      1.73s CPU      1.93s WALL (       1 calls)

     Called by init_run:
     wfcinit      :      0.23s CPU      0.24s WALL (       1 calls)
     potinit      :      0.04s CPU      0.04s WALL (       1 calls)
     hinit0       :      0.45s CPU      0.45s WALL (       1 calls)

     Called by electrons:
     c_bands      :      1.38s CPU      1.45s WALL (       8 calls)
     sum_band     :      0.23s CPU      0.24s WALL (       8 calls)
     v_of_rho     :      0.10s CPU      0.11s WALL (       8 calls)
     mix_rho      :      0.01s CPU      0.01s WALL (       8 calls)

     Called by c_bands:
     init_us_2    :      0.02s CPU      0.03s WALL (      68 calls)
     cegterg      :      1.34s CPU      1.40s WALL (      32 calls)

     Called by *egterg:
     cdiaghg      :      0.10s CPU      0.10s WALL (      94 calls)
     h_psi        :      1.31s CPU      1.37s WALL (     102 calls)
     g_psi        :      0.00s CPU      0.00s WALL (      66 calls)

     Called by h_psi:
     h_psi:calbec :      0.04s CPU      0.05s WALL (     102 calls)
     vloc_psi     :      1.23s CPU      1.28s WALL (     102 calls)
     add_vuspsi   :      0.03s CPU      0.03s WALL (     102 calls)

     General routines
     calbec       :      0.04s CPU      0.04s WALL (     102 calls)
     fft          :      0.48s CPU      0.48s WALL (      80 calls)
     ffts         :      0.01s CPU      0.01s WALL (       8 calls)
     fftw         :      1.28s CPU      1.33s WALL (    5760 calls)

     Parallel routines

     PWSCF        :      2.84s CPU      3.36s WALL


   This run was terminated on:  14:31:19   3Feb2026            

=------------------------------------------------------------------------------=
   JOB DONE.
=------------------------------------------------------------------------------=
