
     Program PWSCF v.7.3.1 starts on  3Feb2026 at 14:31:29 

     This program is part of the open-source Quantum ESPRESSO suite
     for quantum simulation of materials; please cite
         "P. Giannozzi et al., J. Phys.:Condens. Matter 21 395502 (2009);
         "P. Giannozzi et al., J. Phys.:Condens. Matter 29 465901 (2017);
         "P. Giannozzi et al., J. Chem. Phys. 152 154105 (2020);
          URL http://www.quantum-espresso.org", 
     in publications or presentations arising from this work. More details at
     http://www.quantum-espresso.org/quote

     Parallel version (MPI), running on   128 processors

     MPI processes distributed on     1 nodes
     240999 MiB available memory on the printing compute node when the environment starts

     Waiting for input...
     Reading input from standard input

     Current dimensions of program PWSCF are:
     Max number of different atomic species (ntypx) = 10
     Max number of k-points (npk) =  40000
     Max angular momentum in pseudopotentials (lmaxx) =  4
     file O.pbe-mt.UPF: wavefunction(s)  0S 0P 0D renormalized

     K-points division:     npool     =       4
     R & G space division:  proc/nbgrp/npool/nimage =      32
     Subspace diagonalization in iterative solution of the eigenvalue problem:
     a serial algorithm will be used


     Parallelization info
     --------------------
     sticks:   dense  smooth     PW     G-vecs:    dense   smooth      PW
     Min         111     111     29                 5915     5915     825
     Max         112     112     30                 5920     5920     832
     Sum        3571    3571    955               189349   189349   26555

     Using Slab Decomposition



     bravais-lattice index     =            4
     lattice parameter (alat)  =       9.2850  a.u.
     unit-cell volume          =     762.5513 (a.u.)^3
     number of atoms/cell      =            9
     number of atomic types    =            2
     number of electrons       =        48.00
     number of Kohn-Sham states=           24
     kinetic-energy cutoff     =     150.0000  Ry
     charge density cutoff     =     600.0000  Ry
     scf convergence threshold =      1.0E-07
     mixing beta               =       0.7000
     number of iterations used =            8  plain     mixing
     Exchange-correlation= SLA  PW   PBE  PBE
                           (   1   4   3   4   0   0   0)

     celldm(1)=   9.285000  celldm(2)=   0.000000  celldm(3)=   1.100000
     celldm(4)=   0.000000  celldm(5)=   0.000000  celldm(6)=   0.000000

     crystal axes: (cart. coord. in units of alat)
               a(1) = (   1.000000   0.000000   0.000000 )  
               a(2) = (  -0.500000   0.866025   0.000000 )  
               a(3) = (   0.000000   0.000000   1.100000 )  

     reciprocal axes: (cart. coord. in units 2 pi/alat)
               b(1) = (  1.000000  0.577350 -0.000000 )  
               b(2) = (  0.000000  1.154701  0.000000 )  
               b(3) = (  0.000000 -0.000000  0.909091 )  


     PseudoPot. # 1 for Si read from file:
     ./Si.pbe-mt_gipaw.UPF
     MD5 check sum: 6403528c9575c057caf2f4a55eeaaaf3
     Pseudo is Norm-conserving, Zval =  4.0
     Generated by new atomic code, or converted to UPF format
     Using radial grid of 1141 points,  2 beta functions with: 
                l(1) =   1
                l(2) =   2

     PseudoPot. # 2 for O  read from file:
     ./O.pbe-mt.UPF
     MD5 check sum: 0e6f701a033a22f8ce6a91b40f8bdab8
     Pseudo is Norm-conserving, Zval =  6.0
     Generated by new atomic code, or converted to UPF format
     Using radial grid of  473 points,  2 beta functions with: 
                l(1) =   0
                l(2) =   1

     atomic species   valence    mass     pseudopotential
     Si                4.00    28.08600     Si( 1.00)
     O                 6.00    16.00000     O ( 1.00)

      6 Sym. Ops. (no inversion) found ( 4 have fractional translation)



   Cartesian axes

     site n.     atom                  positions (alat units)
         1        Si     tau(   1) = (  -0.2349350   0.4069194   0.3666663  )
         2        Si     tau(   2) = (   0.4698700   0.0000000   0.7333330  )
         3        Si     tau(   3) = (   0.2650650   0.4591060   1.0999996  )
         4        O      tau(   4) = (   0.2800500   0.2321814   0.8640500  )
         5        O      tau(   5) = (   0.6589000   0.1264397   0.4973833  )
         6        O      tau(   6) = (   0.5610500   0.5074043   0.1307167  )
         7        O      tau(   7) = (   0.0610500   0.3586211   0.2359500  )
         8        O      tau(   8) = (  -0.2199500   0.6338440   0.6026167  )
         9        O      tau(   9) = (   0.1589000   0.7395857   0.9692833  )

     number of k points=    13
                       cart. coord. in units 2pi/alat
        k(    1) = (   0.0000000   0.0000000   0.0000000), wk =   0.0312500
        k(    2) = (   0.0000000   0.0000000   0.2272727), wk =   0.0625000
        k(    3) = (   0.0000000   0.0000000  -0.4545455), wk =   0.0312500
        k(    4) = (   0.0000000   0.2886751   0.0000000), wk =   0.1875000
        k(    5) = (   0.0000000   0.2886751   0.2272727), wk =   0.1875000
        k(    6) = (   0.0000000   0.2886751  -0.4545455), wk =   0.1875000
        k(    7) = (   0.0000000  -0.5773503   0.0000000), wk =   0.0937500
        k(    8) = (   0.0000000  -0.5773503   0.2272727), wk =   0.1875000
        k(    9) = (   0.0000000  -0.5773503  -0.4545455), wk =   0.0937500
        k(   10) = (   0.2500000   0.4330127   0.0000000), wk =   0.1875000
        k(   11) = (   0.2500000   0.4330127   0.2272727), wk =   0.3750000
        k(   12) = (   0.2500000   0.4330127  -0.4545455), wk =   0.1875000
        k(   13) = (   0.0000000   0.2886751  -0.2272727), wk =   0.1875000

     Dense  grid:   189349 G-vectors     FFT dimensions: (  75,  75,  81)

     Estimated max dynamical RAM per process >       8.23 MB

     Estimated total dynamical RAM >     915.24 MB

     Initial potential from superposition of free atoms

     starting charge      45.0015, renormalised to      48.0000
     Starting wfcs are   81 randomized atomic wfcs

     total cpu time spent up to now is        0.9 secs

     per-process dynamical memory:    14.2 Mb

     Self-consistent Calculation

     iteration #  1     ecut=   150.00 Ry     beta= 0.70
     Davidson diagonalization with overlap
     ethr =  1.00E-02,  avg # of iterations =  2.0

     Threshold (ethr) on eigenvalues was too large:
     Diagonalizing with lowered threshold

     Davidson diagonalization with overlap
     ethr =  7.09E-04,  avg # of iterations =  1.0

     total cpu time spent up to now is        1.5 secs

     total energy              =    -216.72000213 Ry
     estimated scf accuracy    <       0.32942105 Ry

     iteration #  2     ecut=   150.00 Ry     beta= 0.70
     Davidson diagonalization with overlap
     ethr =  6.86E-04,  avg # of iterations =  2.0

     total cpu time spent up to now is        1.8 secs

     total energy              =    -216.78162872 Ry
     estimated scf accuracy    <       0.10426057 Ry

     iteration #  3     ecut=   150.00 Ry     beta= 0.70
     Davidson diagonalization with overlap
     ethr =  2.17E-04,  avg # of iterations =  2.0

     total cpu time spent up to now is        2.1 secs

     total energy              =    -216.80254396 Ry
     estimated scf accuracy    <       0.00345107 Ry

     iteration #  4     ecut=   150.00 Ry     beta= 0.70
     Davidson diagonalization with overlap
     ethr =  7.19E-06,  avg # of iterations =  2.0

     total cpu time spent up to now is        2.3 secs

     total energy              =    -216.80263353 Ry
     estimated scf accuracy    <       0.00055255 Ry

     iteration #  5     ecut=   150.00 Ry     beta= 0.70
     Davidson diagonalization with overlap
     ethr =  1.15E-06,  avg # of iterations =  2.0

     total cpu time spent up to now is        2.6 secs

     total energy              =    -216.80271714 Ry
     estimated scf accuracy    <       0.00001241 Ry

     iteration #  6     ecut=   150.00 Ry     beta= 0.70
     Davidson diagonalization with overlap
     ethr =  2.59E-08,  avg # of iterations =  3.2

     total cpu time spent up to now is        2.9 secs

     total energy              =    -216.80272333 Ry
     estimated scf accuracy    <       0.00000446 Ry

     iteration #  7     ecut=   150.00 Ry     beta= 0.70
     Davidson diagonalization with overlap
     ethr =  9.28E-09,  avg # of iterations =  2.0

     total cpu time spent up to now is        3.2 secs

     End of self-consistent calculation

          k = 0.0000 0.0000 0.0000 ( 23595 PWs)   bands (ev):

   -16.8886 -15.3567 -15.3566 -14.7172 -14.6763 -14.6763  -5.7237  -5.7237
    -2.9744  -2.9473  -2.7792  -2.7792  -0.4342  -0.4342  -0.1849   0.0557
     1.0072   1.0072   1.0357   1.5122   1.5122   1.8291   2.2000   2.2000

          k = 0.0000 0.0000 0.2273 ( 23602 PWs)   bands (ev):

   -16.7665 -15.9146 -14.9019 -14.7145 -14.6939 -14.6587  -6.5041  -4.7116
    -3.1967  -3.0639  -3.0177  -2.4043  -0.5017  -0.2031  -0.1025   0.2418
     0.7378   0.8965   0.9943   1.0261   1.4366   1.9810   2.2919   2.4185

          k = 0.0000 0.0000-0.4545 ( 23668 PWs)   bands (ev):

   -16.4208 -16.4208 -14.7222 -14.7067 -14.7067 -14.6511  -6.7997  -3.7815
    -3.7815  -3.1435  -3.1435  -2.2042  -0.2069  -0.2069  -0.1292   0.5043
     0.5043   0.6749   0.6749   0.9747   1.3019   2.3002   2.3002   2.4261

          k = 0.0000 0.2887 0.0000 ( 23633 PWs)   bands (ev):

   -16.7102 -15.5621 -15.3312 -14.7577 -14.7091 -14.6892  -5.7981  -5.3507
    -3.0734  -3.0092  -2.9115  -2.4803  -0.6217  -0.3116  -0.1404   0.3186
     0.4842   0.9207   0.9954   1.4202   1.5090   1.6753   2.2722   2.3618

          k = 0.0000 0.2887 0.2273 ( 23656 PWs)   bands (ev):

   -16.6073 -15.8831 -15.1231 -14.7468 -14.7044 -14.6912  -6.1773  -4.7707
    -3.4870  -2.9947  -2.7238  -2.4409  -0.6401  -0.1563  -0.1346   0.1061
     0.4737   0.9978   1.0582   1.2121   1.6452   1.6933   2.1175   2.4838

          k = 0.0000 0.2887-0.4545 ( 23660 PWs)   bands (ev):

   -16.3754 -16.2334 -14.9946 -14.7596 -14.7096 -14.6803  -6.3685  -4.1960
    -3.8686  -2.9696  -2.8546  -2.3211  -0.5063  -0.4898   0.0339   0.2675
     0.4231   0.9260   1.0285   1.2031   1.4273   2.0680   2.0962   2.3642

          k = 0.0000-0.5774 0.0000 ( 23646 PWs)   bands (ev):

   -16.3977 -15.9196 -15.3032 -14.7765 -14.7368 -14.7104  -5.8680  -4.8777
    -3.4049  -2.9752  -2.9567  -2.1637  -0.5668  -0.4026  -0.1750   0.2139
     0.4145   0.7552   0.8395   1.4038   1.4723   1.7283   2.2437   2.4783

          k = 0.0000-0.5774 0.2273 ( 23680 PWs)   bands (ev):

   -16.3641 -15.9028 -15.3705 -14.7803 -14.7398 -14.7007  -5.7965  -4.8205
    -3.7099  -2.9579  -2.6576  -2.3442  -0.6417  -0.5626  -0.0099   0.1838
     0.5744   0.7460   1.0595   1.3437   1.5450   1.7895   2.0681   2.3960

          k = 0.0000-0.5774-0.4545 ( 23716 PWs)   bands (ev):

   -16.3269 -15.8850 -15.4382 -14.8013 -14.7221 -14.6986  -5.7183  -4.7612
    -3.9113  -2.8590  -2.5941  -2.4820  -0.7003  -0.6820   0.0742   0.3917
     0.4131   0.9514   1.2363   1.3618   1.6266   1.6743   1.9088   2.3218

          k = 0.2500 0.4330 0.0000 ( 23658 PWs)   bands (ev):

   -16.4068 -15.8933 -15.3300 -14.7729 -14.7337 -14.7077  -5.8982  -4.7408
    -3.6882  -2.9410  -2.8215  -2.1682  -0.5451  -0.3769  -0.2223   0.3163
     0.3794   0.7112   1.0005   1.1464   1.4403   1.8706   2.2058   2.4888

          k = 0.2500 0.4330 0.2273 ( 23669 PWs)   bands (ev):

   -16.3656 -15.9035 -15.3627 -14.7730 -14.7526 -14.7014  -5.8074  -4.7192
    -3.8729  -2.9200  -2.6353  -2.3533  -0.6807  -0.3936  -0.1744   0.2925
     0.5345   0.7420   1.1098   1.2941   1.5275   1.8231   2.0772   2.3587

          k = 0.2500 0.4330-0.4545 ( 23686 PWs)   bands (ev):

   -16.3167 -15.9231 -15.3926 -14.7944 -14.7239 -14.7225  -5.7029  -4.7140
    -4.0181  -2.7630  -2.6767  -2.4802  -0.7377  -0.5141  -0.0615   0.3237
     0.5545   0.7815   1.3552   1.4518   1.5643   1.7930   1.9664   2.1249

          k = 0.0000 0.2887-0.2273 ( 23656 PWs)   bands (ev):

   -16.6051 -15.8936 -15.0982 -14.7482 -14.7310 -14.6802  -6.1748  -4.7695
    -3.4865  -2.9759  -2.7003  -2.5061  -0.6813  -0.2082  -0.0757   0.2343
     0.5280   0.8816   0.9974   1.2357   1.5818   1.7736   2.2078   2.4000

     highest occupied level (ev):     2.4888

!    total energy              =    -216.80272433 Ry
     estimated scf accuracy    <       0.00000009 Ry

     The total energy is the sum of the following terms:
     one-electron contribution =    -104.85736610 Ry
     hartree contribution      =      77.84237353 Ry
     xc contribution           =     -50.82512814 Ry
     ewald contribution        =    -138.96260361 Ry

     convergence has been achieved in   7 iterations

     Writing all to output data dir ./quartz-scf-mt/quartz.save/ :
     XML data file, charge density, pseudopotentials, collected wavefunctions

     init_run     :      0.54s CPU      0.62s WALL (       1 calls)
     electrons    :      2.24s CPU      2.35s WALL (       1 calls)

     Called by init_run:
     wfcinit      :      0.28s CPU      0.30s WALL (       1 calls)
     potinit      :      0.03s CPU      0.04s WALL (       1 calls)
     hinit0       :      0.15s CPU      0.17s WALL (       1 calls)

     Called by electrons:
     c_bands      :      1.80s CPU      1.84s WALL (       8 calls)
     sum_band     :      0.30s CPU      0.31s WALL (       8 calls)
     v_of_rho     :      0.11s CPU      0.12s WALL (       8 calls)
     mix_rho      :      0.02s CPU      0.02s WALL (       8 calls)

     Called by c_bands:
     init_us_2    :      0.03s CPU      0.03s WALL (      68 calls)
     cegterg      :      1.75s CPU      1.78s WALL (      32 calls)

     Called by *egterg:
     cdiaghg      :      0.10s CPU      0.11s WALL (      94 calls)
     h_psi        :      1.76s CPU      1.79s WALL (     102 calls)
     g_psi        :      0.00s CPU      0.00s WALL (      66 calls)

     Called by h_psi:
     h_psi:calbec :      0.05s CPU      0.05s WALL (     102 calls)
     vloc_psi     :      1.66s CPU      1.69s WALL (     102 calls)
     add_vuspsi   :      0.03s CPU      0.04s WALL (     102 calls)

     General routines
     calbec       :      0.05s CPU      0.05s WALL (     102 calls)
     fft          :      0.19s CPU      0.20s WALL (      80 calls)
     ffts         :      0.01s CPU      0.01s WALL (       8 calls)
     fftw         :      1.75s CPU      1.79s WALL (    5758 calls)

     Parallel routines

     PWSCF        :      3.11s CPU      3.54s WALL


   This run was terminated on:  14:31:33   3Feb2026            

=------------------------------------------------------------------------------=
   JOB DONE.
=------------------------------------------------------------------------------=
