
     Program PWSCF v.7.3.1 starts on  3Feb2026 at 14:32:42 

     This program is part of the open-source Quantum ESPRESSO suite
     for quantum simulation of materials; please cite
         "P. Giannozzi et al., J. Phys.:Condens. Matter 21 395502 (2009);
         "P. Giannozzi et al., J. Phys.:Condens. Matter 29 465901 (2017);
         "P. Giannozzi et al., J. Chem. Phys. 152 154105 (2020);
          URL http://www.quantum-espresso.org", 
     in publications or presentations arising from this work. More details at
     http://www.quantum-espresso.org/quote

     Parallel version (MPI), running on   128 processors

     MPI processes distributed on     1 nodes
     240934 MiB available memory on the printing compute node when the environment starts

     Waiting for input...
     Reading input from standard input

     Current dimensions of program PWSCF are:
     Max number of different atomic species (ntypx) = 10
     Max number of k-points (npk) =  40000
     Max angular momentum in pseudopotentials (lmaxx) =  4
     file O.pbe-mt.UPF: wavefunction(s)  0S 0P 0D renormalized

     K-points division:     npool     =       4
     R & G space division:  proc/nbgrp/npool/nimage =      32
     Subspace diagonalization in iterative solution of the eigenvalue problem:
     a serial algorithm will be used


     Parallelization info
     --------------------
     sticks:   dense  smooth     PW     G-vecs:    dense   smooth      PW
     Min         140     140     37                 8424     8424    1172
     Max         141     141     38                 8431     8431    1176
     Sum        4507    4507   1213               269723   269723   37571

     Using Slab Decomposition



     bravais-lattice index     =            4
     lattice parameter (alat)  =       9.2850  a.u.
     unit-cell volume          =     762.5513 (a.u.)^3
     number of atoms/cell      =            9
     number of atomic types    =            2
     number of electrons       =        48.00
     number of Kohn-Sham states=           24
     kinetic-energy cutoff     =     190.0000  Ry
     charge density cutoff     =     760.0000  Ry
     scf convergence threshold =      1.0E-07
     mixing beta               =       0.7000
     number of iterations used =            8  plain     mixing
     Exchange-correlation= SLA  PW   PBE  PBE
                           (   1   4   3   4   0   0   0)

     celldm(1)=   9.285000  celldm(2)=   0.000000  celldm(3)=   1.100000
     celldm(4)=   0.000000  celldm(5)=   0.000000  celldm(6)=   0.000000

     crystal axes: (cart. coord. in units of alat)
               a(1) = (   1.000000   0.000000   0.000000 )  
               a(2) = (  -0.500000   0.866025   0.000000 )  
               a(3) = (   0.000000   0.000000   1.100000 )  

     reciprocal axes: (cart. coord. in units 2 pi/alat)
               b(1) = (  1.000000  0.577350 -0.000000 )  
               b(2) = (  0.000000  1.154701  0.000000 )  
               b(3) = (  0.000000 -0.000000  0.909091 )  


     PseudoPot. # 1 for Si read from file:
     ./Si.pbe-mt_gipaw.UPF
     MD5 check sum: 6403528c9575c057caf2f4a55eeaaaf3
     Pseudo is Norm-conserving, Zval =  4.0
     Generated by new atomic code, or converted to UPF format
     Using radial grid of 1141 points,  2 beta functions with: 
                l(1) =   1
                l(2) =   2

     PseudoPot. # 2 for O  read from file:
     ./O.pbe-mt.UPF
     MD5 check sum: 0e6f701a033a22f8ce6a91b40f8bdab8
     Pseudo is Norm-conserving, Zval =  6.0
     Generated by new atomic code, or converted to UPF format
     Using radial grid of  473 points,  2 beta functions with: 
                l(1) =   0
                l(2) =   1

     atomic species   valence    mass     pseudopotential
     Si                4.00    28.08600     Si( 1.00)
     O                 6.00    16.00000     O ( 1.00)

      6 Sym. Ops. (no inversion) found ( 4 have fractional translation)



   Cartesian axes

     site n.     atom                  positions (alat units)
         1        Si     tau(   1) = (  -0.2349350   0.4069194   0.3666663  )
         2        Si     tau(   2) = (   0.4698700   0.0000000   0.7333330  )
         3        Si     tau(   3) = (   0.2650650   0.4591060   1.0999996  )
         4        O      tau(   4) = (   0.2800500   0.2321814   0.8640500  )
         5        O      tau(   5) = (   0.6589000   0.1264397   0.4973833  )
         6        O      tau(   6) = (   0.5610500   0.5074043   0.1307167  )
         7        O      tau(   7) = (   0.0610500   0.3586211   0.2359500  )
         8        O      tau(   8) = (  -0.2199500   0.6338440   0.6026167  )
         9        O      tau(   9) = (   0.1589000   0.7395857   0.9692833  )

     number of k points=    13
                       cart. coord. in units 2pi/alat
        k(    1) = (   0.0000000   0.0000000   0.0000000), wk =   0.0312500
        k(    2) = (   0.0000000   0.0000000   0.2272727), wk =   0.0625000
        k(    3) = (   0.0000000   0.0000000  -0.4545455), wk =   0.0312500
        k(    4) = (   0.0000000   0.2886751   0.0000000), wk =   0.1875000
        k(    5) = (   0.0000000   0.2886751   0.2272727), wk =   0.1875000
        k(    6) = (   0.0000000   0.2886751  -0.4545455), wk =   0.1875000
        k(    7) = (   0.0000000  -0.5773503   0.0000000), wk =   0.0937500
        k(    8) = (   0.0000000  -0.5773503   0.2272727), wk =   0.1875000
        k(    9) = (   0.0000000  -0.5773503  -0.4545455), wk =   0.0937500
        k(   10) = (   0.2500000   0.4330127   0.0000000), wk =   0.1875000
        k(   11) = (   0.2500000   0.4330127   0.2272727), wk =   0.3750000
        k(   12) = (   0.2500000   0.4330127  -0.4545455), wk =   0.1875000
        k(   13) = (   0.0000000   0.2886751  -0.2272727), wk =   0.1875000

     Dense  grid:   269723 G-vectors     FFT dimensions: (  81,  81,  90)

     Estimated max dynamical RAM per process >      11.20 MB

     Estimated total dynamical RAM >       1.21 GB

     Initial potential from superposition of free atoms

     starting charge      45.0015, renormalised to      48.0000
     Starting wfcs are   81 randomized atomic wfcs

     total cpu time spent up to now is        1.1 secs

     per-process dynamical memory:    16.5 Mb

     Self-consistent Calculation

     iteration #  1     ecut=   190.00 Ry     beta= 0.70
     Davidson diagonalization with overlap
     ethr =  1.00E-02,  avg # of iterations =  2.0

     Threshold (ethr) on eigenvalues was too large:
     Diagonalizing with lowered threshold

     Davidson diagonalization with overlap
     ethr =  7.10E-04,  avg # of iterations =  1.0

     total cpu time spent up to now is        1.7 secs

     total energy              =    -216.71993657 Ry
     estimated scf accuracy    <       0.32974342 Ry

     iteration #  2     ecut=   190.00 Ry     beta= 0.70
     Davidson diagonalization with overlap
     ethr =  6.87E-04,  avg # of iterations =  2.0

     total cpu time spent up to now is        2.1 secs

     total energy              =    -216.78181626 Ry
     estimated scf accuracy    <       0.10463966 Ry

     iteration #  3     ecut=   190.00 Ry     beta= 0.70
     Davidson diagonalization with overlap
     ethr =  2.18E-04,  avg # of iterations =  2.0

     total cpu time spent up to now is        2.5 secs

     total energy              =    -216.80279290 Ry
     estimated scf accuracy    <       0.00344806 Ry

     iteration #  4     ecut=   190.00 Ry     beta= 0.70
     Davidson diagonalization with overlap
     ethr =  7.18E-06,  avg # of iterations =  2.0

     total cpu time spent up to now is        2.8 secs

     total energy              =    -216.80288437 Ry
     estimated scf accuracy    <       0.00055997 Ry

     iteration #  5     ecut=   190.00 Ry     beta= 0.70
     Davidson diagonalization with overlap
     ethr =  1.17E-06,  avg # of iterations =  2.0

     total cpu time spent up to now is        3.2 secs

     total energy              =    -216.80296866 Ry
     estimated scf accuracy    <       0.00001259 Ry

     iteration #  6     ecut=   190.00 Ry     beta= 0.70
     Davidson diagonalization with overlap
     ethr =  2.62E-08,  avg # of iterations =  3.2

     total cpu time spent up to now is        3.6 secs

     total energy              =    -216.80297495 Ry
     estimated scf accuracy    <       0.00000453 Ry

     iteration #  7     ecut=   190.00 Ry     beta= 0.70
     Davidson diagonalization with overlap
     ethr =  9.43E-09,  avg # of iterations =  2.0

     total cpu time spent up to now is        4.0 secs

     End of self-consistent calculation

          k = 0.0000 0.0000 0.0000 ( 33759 PWs)   bands (ev):

   -16.8884 -15.3564 -15.3564 -14.7170 -14.6760 -14.6760  -5.7237  -5.7237
    -2.9745  -2.9473  -2.7793  -2.7793  -0.4342  -0.4342  -0.1850   0.0556
     1.0071   1.0071   1.0356   1.5121   1.5121   1.8290   2.1999   2.1999

          k = 0.0000 0.0000 0.2273 ( 33777 PWs)   bands (ev):

   -16.7663 -15.9144 -14.9017 -14.7142 -14.6937 -14.6584  -6.5041  -4.7116
    -3.1968  -3.0640  -3.0178  -2.4044  -0.5018  -0.2032  -0.1026   0.2417
     0.7377   0.8964   0.9942   1.0260   1.4365   1.9808   2.2917   2.4184

          k = 0.0000 0.0000-0.4545 ( 33692 PWs)   bands (ev):

   -16.4206 -16.4206 -14.7219 -14.7064 -14.7064 -14.6508  -6.7997  -3.7816
    -3.7816  -3.1436  -3.1436  -2.2043  -0.2070  -0.2070  -0.1293   0.5042
     0.5042   0.6748   0.6748   0.9746   1.3018   2.3001   2.3001   2.4260

          k = 0.0000 0.2887 0.0000 ( 33751 PWs)   bands (ev):

   -16.7100 -15.5619 -15.3309 -14.7574 -14.7089 -14.6889  -5.7981  -5.3508
    -3.0734  -3.0092  -2.9116  -2.4803  -0.6217  -0.3117  -0.1405   0.3185
     0.4842   0.9206   0.9953   1.4201   1.5088   1.6752   2.2721   2.3617

          k = 0.0000 0.2887 0.2273 ( 33736 PWs)   bands (ev):

   -16.6071 -15.8829 -15.1229 -14.7466 -14.7042 -14.6909  -6.1773  -4.7707
    -3.4871  -2.9947  -2.7238  -2.4410  -0.6401  -0.1564  -0.1346   0.1061
     0.4736   0.9977   1.0581   1.2120   1.6451   1.6932   2.1173   2.4836

          k = 0.0000 0.2887-0.4545 ( 33712 PWs)   bands (ev):

   -16.3752 -16.2332 -14.9944 -14.7594 -14.7093 -14.6800  -6.3685  -4.1961
    -3.8686  -2.9697  -2.8547  -2.3212  -0.5064  -0.4898   0.0338   0.2674
     0.4230   0.9260   1.0284   1.2030   1.4272   2.0678   2.0961   2.3641

          k = 0.0000-0.5774 0.0000 ( 33740 PWs)   bands (ev):

   -16.3975 -15.9194 -15.3029 -14.7762 -14.7365 -14.7102  -5.8681  -4.8777
    -3.4049  -2.9752  -2.9567  -2.1638  -0.5669  -0.4026  -0.1751   0.2139
     0.4144   0.7552   0.8394   1.4037   1.4722   1.7281   2.2436   2.4782

          k = 0.0000-0.5774 0.2273 ( 33706 PWs)   bands (ev):

   -16.3639 -15.9025 -15.3703 -14.7800 -14.7396 -14.7004  -5.7965  -4.8206
    -3.7099  -2.9579  -2.6576  -2.3443  -0.6418  -0.5627  -0.0100   0.1837
     0.5743   0.7459   1.0594   1.3436   1.5449   1.7894   2.0680   2.3958

          k = 0.0000-0.5774-0.4545 ( 33684 PWs)   bands (ev):

   -16.3267 -15.8848 -15.4379 -14.8011 -14.7219 -14.6983  -5.7183  -4.7612
    -3.9114  -2.8591  -2.5942  -2.4820  -0.7004  -0.6820   0.0741   0.3916
     0.4130   0.9513   1.2362   1.3617   1.6265   1.6742   1.9087   2.3217

          k = 0.2500 0.4330 0.0000 ( 33708 PWs)   bands (ev):

   -16.4066 -15.8931 -15.3297 -14.7726 -14.7334 -14.7074  -5.8982  -4.7408
    -3.6882  -2.9411  -2.8216  -2.1683  -0.5452  -0.3769  -0.2224   0.3162
     0.3793   0.7111   1.0004   1.1463   1.4402   1.8704   2.2057   2.4887

          k = 0.2500 0.4330 0.2273 ( 33747 PWs)   bands (ev):

   -16.3654 -15.9033 -15.3625 -14.7728 -14.7523 -14.7011  -5.8075  -4.7193
    -3.8730  -2.9201  -2.6354  -2.3533  -0.6808  -0.3936  -0.1745   0.2924
     0.5344   0.7419   1.1097   1.2940   1.5274   1.8229   2.0771   2.3585

          k = 0.2500 0.4330-0.4545 ( 33672 PWs)   bands (ev):

   -16.3165 -15.9229 -15.3924 -14.7942 -14.7237 -14.7222  -5.7029  -4.7140
    -4.0181  -2.7631  -2.6767  -2.4802  -0.7378  -0.5141  -0.0616   0.3236
     0.5544   0.7814   1.3551   1.4517   1.5642   1.7929   1.9663   2.1248

          k = 0.0000 0.2887-0.2273 ( 33736 PWs)   bands (ev):

   -16.6049 -15.8934 -15.0980 -14.7480 -14.7307 -14.6800  -6.1748  -4.7695
    -3.4865  -2.9759  -2.7004  -2.5061  -0.6814  -0.2083  -0.0758   0.2343
     0.5279   0.8815   0.9973   1.2356   1.5818   1.7734   2.2077   2.3999

     highest occupied level (ev):     2.4887

!    total energy              =    -216.80297597 Ry
     estimated scf accuracy    <       0.00000010 Ry

     The total energy is the sum of the following terms:
     one-electron contribution =    -104.85772938 Ry
     hartree contribution      =      77.84279498 Ry
     xc contribution           =     -50.82543796 Ry
     ewald contribution        =    -138.96260361 Ry

     convergence has been achieved in   7 iterations

     Writing all to output data dir ./quartz-scf-mt/quartz.save/ :
     XML data file, charge density, pseudopotentials, collected wavefunctions

     init_run     :      0.73s CPU      0.80s WALL (       1 calls)
     electrons    :      2.77s CPU      2.98s WALL (       1 calls)

     Called by init_run:
     wfcinit      :      0.35s CPU      0.37s WALL (       1 calls)
     potinit      :      0.02s CPU      0.04s WALL (       1 calls)
     hinit0       :      0.20s CPU      0.22s WALL (       1 calls)

     Called by electrons:
     c_bands      :      2.25s CPU      2.30s WALL (       8 calls)
     sum_band     :      0.37s CPU      0.40s WALL (       8 calls)
     v_of_rho     :      0.12s CPU      0.14s WALL (       8 calls)
     mix_rho      :      0.02s CPU      0.02s WALL (       8 calls)

     Called by c_bands:
     init_us_2    :      0.04s CPU      0.04s WALL (      68 calls)
     cegterg      :      2.19s CPU      2.22s WALL (      32 calls)

     Called by *egterg:
     cdiaghg      :      0.10s CPU      0.11s WALL (      94 calls)
     h_psi        :      2.18s CPU      2.23s WALL (     102 calls)
     g_psi        :      0.01s CPU      0.01s WALL (      66 calls)

     Called by h_psi:
     h_psi:calbec :      0.07s CPU      0.08s WALL (     102 calls)
     vloc_psi     :      2.04s CPU      2.09s WALL (     102 calls)
     add_vuspsi   :      0.05s CPU      0.05s WALL (     102 calls)

     General routines
     calbec       :      0.07s CPU      0.07s WALL (     102 calls)
     fft          :      0.25s CPU      0.26s WALL (      80 calls)
     ffts         :      0.01s CPU      0.01s WALL (       8 calls)
     fftw         :      2.13s CPU      2.18s WALL (    5760 calls)

     Parallel routines

     PWSCF        :      3.79s CPU      4.77s WALL


   This run was terminated on:  14:32:46   3Feb2026            

=------------------------------------------------------------------------------=
   JOB DONE.
=------------------------------------------------------------------------------=
