
     Program PWSCF v.7.3.1 starts on  3Feb2026 at 14:32:58 

     This program is part of the open-source Quantum ESPRESSO suite
     for quantum simulation of materials; please cite
         "P. Giannozzi et al., J. Phys.:Condens. Matter 21 395502 (2009);
         "P. Giannozzi et al., J. Phys.:Condens. Matter 29 465901 (2017);
         "P. Giannozzi et al., J. Chem. Phys. 152 154105 (2020);
          URL http://www.quantum-espresso.org", 
     in publications or presentations arising from this work. More details at
     http://www.quantum-espresso.org/quote

     Parallel version (MPI), running on   128 processors

     MPI processes distributed on     1 nodes
     240946 MiB available memory on the printing compute node when the environment starts

     Waiting for input...
     Reading input from standard input

     Current dimensions of program PWSCF are:
     Max number of different atomic species (ntypx) = 10
     Max number of k-points (npk) =  40000
     Max angular momentum in pseudopotentials (lmaxx) =  4
     file O.pbe-mt.UPF: wavefunction(s)  0S 0P 0D renormalized

     K-points division:     npool     =       4
     R & G space division:  proc/nbgrp/npool/nimage =      32
     Subspace diagonalization in iterative solution of the eigenvalue problem:
     a serial algorithm will be used


     Parallelization info
     --------------------
     sticks:   dense  smooth     PW     G-vecs:    dense   smooth      PW
     Min         148     148     40                 9098     9098    1260
     Max         149     149     41                 9105     9105    1266
     Sum        4753    4753   1285               291223   291223   40427

     Using Slab Decomposition



     bravais-lattice index     =            4
     lattice parameter (alat)  =       9.2850  a.u.
     unit-cell volume          =     762.5513 (a.u.)^3
     number of atoms/cell      =            9
     number of atomic types    =            2
     number of electrons       =        48.00
     number of Kohn-Sham states=           24
     kinetic-energy cutoff     =     200.0000  Ry
     charge density cutoff     =     800.0000  Ry
     scf convergence threshold =      1.0E-07
     mixing beta               =       0.7000
     number of iterations used =            8  plain     mixing
     Exchange-correlation= SLA  PW   PBE  PBE
                           (   1   4   3   4   0   0   0)

     celldm(1)=   9.285000  celldm(2)=   0.000000  celldm(3)=   1.100000
     celldm(4)=   0.000000  celldm(5)=   0.000000  celldm(6)=   0.000000

     crystal axes: (cart. coord. in units of alat)
               a(1) = (   1.000000   0.000000   0.000000 )  
               a(2) = (  -0.500000   0.866025   0.000000 )  
               a(3) = (   0.000000   0.000000   1.100000 )  

     reciprocal axes: (cart. coord. in units 2 pi/alat)
               b(1) = (  1.000000  0.577350 -0.000000 )  
               b(2) = (  0.000000  1.154701  0.000000 )  
               b(3) = (  0.000000 -0.000000  0.909091 )  


     PseudoPot. # 1 for Si read from file:
     ./Si.pbe-mt_gipaw.UPF
     MD5 check sum: 6403528c9575c057caf2f4a55eeaaaf3
     Pseudo is Norm-conserving, Zval =  4.0
     Generated by new atomic code, or converted to UPF format
     Using radial grid of 1141 points,  2 beta functions with: 
                l(1) =   1
                l(2) =   2

     PseudoPot. # 2 for O  read from file:
     ./O.pbe-mt.UPF
     MD5 check sum: 0e6f701a033a22f8ce6a91b40f8bdab8
     Pseudo is Norm-conserving, Zval =  6.0
     Generated by new atomic code, or converted to UPF format
     Using radial grid of  473 points,  2 beta functions with: 
                l(1) =   0
                l(2) =   1

     atomic species   valence    mass     pseudopotential
     Si                4.00    28.08600     Si( 1.00)
     O                 6.00    16.00000     O ( 1.00)

      6 Sym. Ops. (no inversion) found ( 4 have fractional translation)



   Cartesian axes

     site n.     atom                  positions (alat units)
         1        Si     tau(   1) = (  -0.2349350   0.4069194   0.3666663  )
         2        Si     tau(   2) = (   0.4698700   0.0000000   0.7333330  )
         3        Si     tau(   3) = (   0.2650650   0.4591060   1.0999996  )
         4        O      tau(   4) = (   0.2800500   0.2321814   0.8640500  )
         5        O      tau(   5) = (   0.6589000   0.1264397   0.4973833  )
         6        O      tau(   6) = (   0.5610500   0.5074043   0.1307167  )
         7        O      tau(   7) = (   0.0610500   0.3586211   0.2359500  )
         8        O      tau(   8) = (  -0.2199500   0.6338440   0.6026167  )
         9        O      tau(   9) = (   0.1589000   0.7395857   0.9692833  )

     number of k points=    13
                       cart. coord. in units 2pi/alat
        k(    1) = (   0.0000000   0.0000000   0.0000000), wk =   0.0312500
        k(    2) = (   0.0000000   0.0000000   0.2272727), wk =   0.0625000
        k(    3) = (   0.0000000   0.0000000  -0.4545455), wk =   0.0312500
        k(    4) = (   0.0000000   0.2886751   0.0000000), wk =   0.1875000
        k(    5) = (   0.0000000   0.2886751   0.2272727), wk =   0.1875000
        k(    6) = (   0.0000000   0.2886751  -0.4545455), wk =   0.1875000
        k(    7) = (   0.0000000  -0.5773503   0.0000000), wk =   0.0937500
        k(    8) = (   0.0000000  -0.5773503   0.2272727), wk =   0.1875000
        k(    9) = (   0.0000000  -0.5773503  -0.4545455), wk =   0.0937500
        k(   10) = (   0.2500000   0.4330127   0.0000000), wk =   0.1875000
        k(   11) = (   0.2500000   0.4330127   0.2272727), wk =   0.3750000
        k(   12) = (   0.2500000   0.4330127  -0.4545455), wk =   0.1875000
        k(   13) = (   0.0000000   0.2886751  -0.2272727), wk =   0.1875000

     Dense  grid:   291223 G-vectors     FFT dimensions: (  90,  90,  96)

     Estimated max dynamical RAM per process >      12.26 MB

     Estimated total dynamical RAM >       1.32 GB

     Initial potential from superposition of free atoms

     starting charge      45.0015, renormalised to      48.0000
     Starting wfcs are   81 randomized atomic wfcs

     total cpu time spent up to now is        1.3 secs

     per-process dynamical memory:    17.9 Mb

     Self-consistent Calculation

     iteration #  1     ecut=   200.00 Ry     beta= 0.70
     Davidson diagonalization with overlap
     ethr =  1.00E-02,  avg # of iterations =  2.0

     Threshold (ethr) on eigenvalues was too large:
     Diagonalizing with lowered threshold

     Davidson diagonalization with overlap
     ethr =  7.11E-04,  avg # of iterations =  1.0

     total cpu time spent up to now is        1.9 secs

     total energy              =    -216.71986410 Ry
     estimated scf accuracy    <       0.32987979 Ry

     iteration #  2     ecut=   200.00 Ry     beta= 0.70
     Davidson diagonalization with overlap
     ethr =  6.87E-04,  avg # of iterations =  2.0

     total cpu time spent up to now is        2.3 secs

     total energy              =    -216.78182325 Ry
     estimated scf accuracy    <       0.10479325 Ry

     iteration #  3     ecut=   200.00 Ry     beta= 0.70
     Davidson diagonalization with overlap
     ethr =  2.18E-04,  avg # of iterations =  2.0

     total cpu time spent up to now is        2.7 secs

     total energy              =    -216.80282776 Ry
     estimated scf accuracy    <       0.00344557 Ry

     iteration #  4     ecut=   200.00 Ry     beta= 0.70
     Davidson diagonalization with overlap
     ethr =  7.18E-06,  avg # of iterations =  2.0

     total cpu time spent up to now is        3.0 secs

     total energy              =    -216.80291943 Ry
     estimated scf accuracy    <       0.00056224 Ry

     iteration #  5     ecut=   200.00 Ry     beta= 0.70
     Davidson diagonalization with overlap
     ethr =  1.17E-06,  avg # of iterations =  2.0

     total cpu time spent up to now is        3.3 secs

     total energy              =    -216.80300400 Ry
     estimated scf accuracy    <       0.00001263 Ry

     iteration #  6     ecut=   200.00 Ry     beta= 0.70
     Davidson diagonalization with overlap
     ethr =  2.63E-08,  avg # of iterations =  3.2

     total cpu time spent up to now is        3.7 secs

     total energy              =    -216.80301032 Ry
     estimated scf accuracy    <       0.00000451 Ry

     iteration #  7     ecut=   200.00 Ry     beta= 0.70
     Davidson diagonalization with overlap
     ethr =  9.40E-09,  avg # of iterations =  2.0

     total cpu time spent up to now is        4.1 secs

     End of self-consistent calculation

          k = 0.0000 0.0000 0.0000 ( 36321 PWs)   bands (ev):

   -16.8883 -15.3564 -15.3564 -14.7169 -14.6760 -14.6760  -5.7237  -5.7237
    -2.9745  -2.9473  -2.7793  -2.7793  -0.4342  -0.4342  -0.1850   0.0556
     1.0070   1.0070   1.0356   1.5121   1.5121   1.8290   2.1998   2.1999

          k = 0.0000 0.0000 0.2273 ( 36388 PWs)   bands (ev):

   -16.7662 -15.9144 -14.9016 -14.7142 -14.6936 -14.6584  -6.5041  -4.7117
    -3.1968  -3.0640  -3.0178  -2.4044  -0.5018  -0.2032  -0.1026   0.2417
     0.7377   0.8964   0.9942   1.0260   1.4365   1.9808   2.2917   2.4184

          k = 0.0000 0.0000-0.4545 ( 36514 PWs)   bands (ev):

   -16.4206 -16.4206 -14.7219 -14.7064 -14.7064 -14.6507  -6.7997  -3.7816
    -3.7816  -3.1436  -3.1436  -2.2043  -0.2070  -0.2070  -0.1293   0.5042
     0.5042   0.6748   0.6748   0.9746   1.3017   2.3001   2.3001   2.4260

          k = 0.0000 0.2887 0.0000 ( 36418 PWs)   bands (ev):

   -16.7100 -15.5618 -15.3309 -14.7574 -14.7088 -14.6889  -5.7981  -5.3508
    -3.0735  -3.0093  -2.9116  -2.4804  -0.6217  -0.3117  -0.1405   0.3185
     0.4841   0.9206   0.9953   1.4201   1.5088   1.6751   2.2721   2.3616

          k = 0.0000 0.2887 0.2273 ( 36413 PWs)   bands (ev):

   -16.6071 -15.8828 -15.1228 -14.7465 -14.7041 -14.6909  -6.1773  -4.7707
    -3.4871  -2.9947  -2.7238  -2.4410  -0.6401  -0.1564  -0.1347   0.1061
     0.4736   0.9977   1.0580   1.2120   1.6450   1.6932   2.1173   2.4836

          k = 0.0000 0.2887-0.4545 ( 36438 PWs)   bands (ev):

   -16.3751 -16.2331 -14.9943 -14.7593 -14.7092 -14.6800  -6.3686  -4.1961
    -3.8686  -2.9697  -2.8547  -2.3212  -0.5064  -0.4898   0.0338   0.2674
     0.4230   0.9259   1.0284   1.2030   1.4272   2.0678   2.0960   2.3641

          k = 0.0000-0.5774 0.0000 ( 36412 PWs)   bands (ev):

   -16.3974 -15.9194 -15.3029 -14.7762 -14.7365 -14.7101  -5.8681  -4.8777
    -3.4049  -2.9753  -2.9568  -2.1638  -0.5669  -0.4026  -0.1751   0.2138
     0.4144   0.7551   0.8394   1.4037   1.4722   1.7281   2.2436   2.4781

          k = 0.0000-0.5774 0.2273 ( 36462 PWs)   bands (ev):

   -16.3639 -15.9025 -15.3702 -14.7799 -14.7395 -14.7004  -5.7965  -4.8206
    -3.7099  -2.9579  -2.6577  -2.3443  -0.6418  -0.5627  -0.0100   0.1837
     0.5743   0.7459   1.0594   1.3435   1.5449   1.7894   2.0680   2.3958

          k = 0.0000-0.5774-0.4545 ( 36384 PWs)   bands (ev):

   -16.3266 -15.8847 -15.4379 -14.8010 -14.7218 -14.6983  -5.7183  -4.7612
    -3.9114  -2.8591  -2.5942  -2.4821  -0.7004  -0.6821   0.0741   0.3915
     0.4130   0.9513   1.2362   1.3617   1.6264   1.6742   1.9087   2.3217

          k = 0.2500 0.4330 0.0000 ( 36441 PWs)   bands (ev):

   -16.4065 -15.8930 -15.3297 -14.7726 -14.7333 -14.7073  -5.8982  -4.7408
    -3.6882  -2.9411  -2.8216  -2.1683  -0.5452  -0.3769  -0.2224   0.3162
     0.3793   0.7111   1.0004   1.1462   1.4402   1.8704   2.2057   2.4887

          k = 0.2500 0.4330 0.2273 ( 36432 PWs)   bands (ev):

   -16.3653 -15.9032 -15.3624 -14.7727 -14.7523 -14.7011  -5.8075  -4.7193
    -3.8730  -2.9201  -2.6354  -2.3533  -0.6808  -0.3936  -0.1745   0.2924
     0.5344   0.7419   1.1097   1.2940   1.5274   1.8229   2.0771   2.3585

          k = 0.2500 0.4330-0.4545 ( 36430 PWs)   bands (ev):

   -16.3165 -15.9229 -15.3923 -14.7941 -14.7236 -14.7221  -5.7029  -4.7140
    -4.0182  -2.7631  -2.6768  -2.4803  -0.7378  -0.5141  -0.0616   0.3236
     0.5544   0.7814   1.3550   1.4517   1.5642   1.7929   1.9663   2.1248

          k = 0.0000 0.2887-0.2273 ( 36413 PWs)   bands (ev):

   -16.6049 -15.8934 -15.0979 -14.7479 -14.7306 -14.6799  -6.1749  -4.7695
    -3.4865  -2.9760  -2.7004  -2.5061  -0.6814  -0.2083  -0.0758   0.2342
     0.5279   0.8815   0.9972   1.2356   1.5817   1.7734   2.2077   2.3999

     highest occupied level (ev):     2.4887

!    total energy              =    -216.80301133 Ry
     estimated scf accuracy    <       0.00000010 Ry

     The total energy is the sum of the following terms:
     one-electron contribution =    -104.85775453 Ry
     hartree contribution      =      77.84281828 Ry
     xc contribution           =     -50.82547147 Ry
     ewald contribution        =    -138.96260361 Ry

     convergence has been achieved in   7 iterations

     Writing all to output data dir ./quartz-scf-mt/quartz.save/ :
     XML data file, charge density, pseudopotentials, collected wavefunctions

     init_run     :      0.95s CPU      1.03s WALL (       1 calls)
     electrons    :      2.69s CPU      2.83s WALL (       1 calls)

     Called by init_run:
     wfcinit      :      0.33s CPU      0.35s WALL (       1 calls)
     potinit      :      0.02s CPU      0.04s WALL (       1 calls)
     hinit0       :      0.43s CPU      0.45s WALL (       1 calls)

     Called by electrons:
     c_bands      :      2.14s CPU      2.19s WALL (       8 calls)
     sum_band     :      0.36s CPU      0.38s WALL (       8 calls)
     v_of_rho     :      0.14s CPU      0.17s WALL (       8 calls)
     mix_rho      :      0.02s CPU      0.02s WALL (       8 calls)

     Called by c_bands:
     init_us_2    :      0.04s CPU      0.05s WALL (      68 calls)
     cegterg      :      2.07s CPU      2.10s WALL (      32 calls)

     Called by *egterg:
     cdiaghg      :      0.11s CPU      0.11s WALL (      94 calls)
     h_psi        :      2.02s CPU      2.07s WALL (     102 calls)
     g_psi        :      0.01s CPU      0.01s WALL (      66 calls)

     Called by h_psi:
     h_psi:calbec :      0.08s CPU      0.08s WALL (     102 calls)
     vloc_psi     :      1.87s CPU      1.92s WALL (     102 calls)
     add_vuspsi   :      0.05s CPU      0.05s WALL (     102 calls)

     General routines
     calbec       :      0.08s CPU      0.08s WALL (     102 calls)
     fft          :      0.47s CPU      0.49s WALL (      80 calls)
     ffts         :      0.01s CPU      0.01s WALL (       8 calls)
     fftw         :      1.91s CPU      1.96s WALL (    5760 calls)

     Parallel routines

     PWSCF        :      3.94s CPU      4.83s WALL


   This run was terminated on:  14:33: 3   3Feb2026            

=------------------------------------------------------------------------------=
   JOB DONE.
=------------------------------------------------------------------------------=
