
     Program PWSCF v.7.3.1 starts on  3Feb2026 at 14:29: 7 

     This program is part of the open-source Quantum ESPRESSO suite
     for quantum simulation of materials; please cite
         "P. Giannozzi et al., J. Phys.:Condens. Matter 21 395502 (2009);
         "P. Giannozzi et al., J. Phys.:Condens. Matter 29 465901 (2017);
         "P. Giannozzi et al., J. Chem. Phys. 152 154105 (2020);
          URL http://www.quantum-espresso.org", 
     in publications or presentations arising from this work. More details at
     http://www.quantum-espresso.org/quote

     Parallel version (MPI), running on   128 processors

     MPI processes distributed on     1 nodes
     241142 MiB available memory on the printing compute node when the environment starts

     Waiting for input...
     Reading input from standard input

     Current dimensions of program PWSCF are:
     Max number of different atomic species (ntypx) = 10
     Max number of k-points (npk) =  40000
     Max angular momentum in pseudopotentials (lmaxx) =  4
     file O.pbe-mt.UPF: wavefunction(s)  0S 0P 0D renormalized

     K-points division:     npool     =       8
     R & G space division:  proc/nbgrp/npool/nimage =      16
     Subspace diagonalization in iterative solution of the eigenvalue problem:
     a serial algorithm will be used


     Parallelization info
     --------------------
     sticks:   dense  smooth     PW     G-vecs:    dense   smooth      PW
     Min          44      44     13                 1055     1055     169
     Max          47      47     14                 1056     1056     172
     Sum         721     721    211                16883    16883    2725

     Using Slab Decomposition



     bravais-lattice index     =            4
     lattice parameter (alat)  =       9.2850  a.u.
     unit-cell volume          =     762.5513 (a.u.)^3
     number of atoms/cell      =            9
     number of atomic types    =            2
     number of electrons       =        48.00
     number of Kohn-Sham states=           24
     kinetic-energy cutoff     =      30.0000  Ry
     charge density cutoff     =     120.0000  Ry
     scf convergence threshold =      1.0E-07
     mixing beta               =       0.7000
     number of iterations used =            8  plain     mixing
     Exchange-correlation= SLA  PW   PBE  PBE
                           (   1   4   3   4   0   0   0)

     celldm(1)=   9.285000  celldm(2)=   0.000000  celldm(3)=   1.100000
     celldm(4)=   0.000000  celldm(5)=   0.000000  celldm(6)=   0.000000

     crystal axes: (cart. coord. in units of alat)
               a(1) = (   1.000000   0.000000   0.000000 )  
               a(2) = (  -0.500000   0.866025   0.000000 )  
               a(3) = (   0.000000   0.000000   1.100000 )  

     reciprocal axes: (cart. coord. in units 2 pi/alat)
               b(1) = (  1.000000  0.577350 -0.000000 )  
               b(2) = (  0.000000  1.154701  0.000000 )  
               b(3) = (  0.000000 -0.000000  0.909091 )  


     PseudoPot. # 1 for Si read from file:
     ./Si.pbe-mt_gipaw.UPF
     MD5 check sum: 6403528c9575c057caf2f4a55eeaaaf3
     Pseudo is Norm-conserving, Zval =  4.0
     Generated by new atomic code, or converted to UPF format
     Using radial grid of 1141 points,  2 beta functions with: 
                l(1) =   1
                l(2) =   2

     PseudoPot. # 2 for O  read from file:
     ./O.pbe-mt.UPF
     MD5 check sum: 0e6f701a033a22f8ce6a91b40f8bdab8
     Pseudo is Norm-conserving, Zval =  6.0
     Generated by new atomic code, or converted to UPF format
     Using radial grid of  473 points,  2 beta functions with: 
                l(1) =   0
                l(2) =   1

     atomic species   valence    mass     pseudopotential
     Si                4.00    28.08600     Si( 1.00)
     O                 6.00    16.00000     O ( 1.00)

      6 Sym. Ops. (no inversion) found ( 4 have fractional translation)



   Cartesian axes

     site n.     atom                  positions (alat units)
         1        Si     tau(   1) = (  -0.2349350   0.4069194   0.3666663  )
         2        Si     tau(   2) = (   0.4698700   0.0000000   0.7333330  )
         3        Si     tau(   3) = (   0.2650650   0.4591060   1.0999996  )
         4        O      tau(   4) = (   0.2800500   0.2321814   0.8640500  )
         5        O      tau(   5) = (   0.6589000   0.1264397   0.4973833  )
         6        O      tau(   6) = (   0.5610500   0.5074043   0.1307167  )
         7        O      tau(   7) = (   0.0610500   0.3586211   0.2359500  )
         8        O      tau(   8) = (  -0.2199500   0.6338440   0.6026167  )
         9        O      tau(   9) = (   0.1589000   0.7395857   0.9692833  )

     number of k points=    13
                       cart. coord. in units 2pi/alat
        k(    1) = (   0.0000000   0.0000000   0.0000000), wk =   0.0312500
        k(    2) = (   0.0000000   0.0000000   0.2272727), wk =   0.0625000
        k(    3) = (   0.0000000   0.0000000  -0.4545455), wk =   0.0312500
        k(    4) = (   0.0000000   0.2886751   0.0000000), wk =   0.1875000
        k(    5) = (   0.0000000   0.2886751   0.2272727), wk =   0.1875000
        k(    6) = (   0.0000000   0.2886751  -0.4545455), wk =   0.1875000
        k(    7) = (   0.0000000  -0.5773503   0.0000000), wk =   0.0937500
        k(    8) = (   0.0000000  -0.5773503   0.2272727), wk =   0.1875000
        k(    9) = (   0.0000000  -0.5773503  -0.4545455), wk =   0.0937500
        k(   10) = (   0.2500000   0.4330127   0.0000000), wk =   0.1875000
        k(   11) = (   0.2500000   0.4330127   0.2272727), wk =   0.3750000
        k(   12) = (   0.2500000   0.4330127  -0.4545455), wk =   0.1875000
        k(   13) = (   0.0000000   0.2886751  -0.2272727), wk =   0.1875000

     Dense  grid:    16883 G-vectors     FFT dimensions: (  36,  36,  36)

     Estimated max dynamical RAM per process >       1.71 MB

     Estimated total dynamical RAM >     189.83 MB

     Initial potential from superposition of free atoms

     starting charge      45.0015, renormalised to      48.0000
     Starting wfcs are   81 randomized atomic wfcs

     total cpu time spent up to now is        0.7 secs

     per-process dynamical memory:     8.4 Mb

     Self-consistent Calculation

     iteration #  1     ecut=    30.00 Ry     beta= 0.70
     Davidson diagonalization with overlap
     ethr =  1.00E-02,  avg # of iterations =  2.0

     total cpu time spent up to now is        0.7 secs

     total energy              =    -212.20569301 Ry
     estimated scf accuracy    <       0.68930386 Ry

     iteration #  2     ecut=    30.00 Ry     beta= 0.70
     Davidson diagonalization with overlap
     ethr =  1.44E-03,  avg # of iterations =  2.0

     total cpu time spent up to now is        0.8 secs

     total energy              =    -212.31843744 Ry
     estimated scf accuracy    <       0.12618075 Ry

     iteration #  3     ecut=    30.00 Ry     beta= 0.70
     Davidson diagonalization with overlap
     ethr =  2.63E-04,  avg # of iterations =  2.0

     total cpu time spent up to now is        0.8 secs

     total energy              =    -212.33974852 Ry
     estimated scf accuracy    <       0.00672498 Ry

     iteration #  4     ecut=    30.00 Ry     beta= 0.70
     Davidson diagonalization with overlap
     ethr =  1.40E-05,  avg # of iterations =  1.0

     total cpu time spent up to now is        0.8 secs

     total energy              =    -212.33992723 Ry
     estimated scf accuracy    <       0.00036786 Ry

     iteration #  5     ecut=    30.00 Ry     beta= 0.70
     Davidson diagonalization with overlap
     ethr =  7.66E-07,  avg # of iterations =  2.0

     total cpu time spent up to now is        0.9 secs

     total energy              =    -212.34005449 Ry
     estimated scf accuracy    <       0.00005557 Ry

     iteration #  6     ecut=    30.00 Ry     beta= 0.70
     Davidson diagonalization with overlap
     ethr =  1.16E-07,  avg # of iterations =  2.0

     total cpu time spent up to now is        0.9 secs

     total energy              =    -212.34006688 Ry
     estimated scf accuracy    <       0.00000093 Ry

     iteration #  7     ecut=    30.00 Ry     beta= 0.70
     Davidson diagonalization with overlap
     ethr =  1.95E-09,  avg # of iterations =  2.0

     total cpu time spent up to now is        0.9 secs

     total energy              =    -212.34006682 Ry
     estimated scf accuracy    <       0.00000023 Ry

     iteration #  8     ecut=    30.00 Ry     beta= 0.70
     Davidson diagonalization with overlap
     ethr =  4.87E-10,  avg # of iterations =  2.0

     total cpu time spent up to now is        1.0 secs

     End of self-consistent calculation

          k = 0.0000 0.0000 0.0000 (  2099 PWs)   bands (ev):

   -18.3097 -16.9688 -16.9688 -16.4307 -16.4117 -16.4116  -5.5874  -5.5874
    -2.7165  -2.6615  -2.4714  -2.4714  -0.0942  -0.0942   0.1321   0.3440
     1.4302   1.4302   1.5336   1.9281   1.9281   2.3490   2.7443   2.7444

          k = 0.0000 0.0000 0.2273 (  2088 PWs)   bands (ev):

   -18.1998 -17.4457 -16.5914 -16.4291 -16.4211 -16.3987  -6.3381  -4.5454
    -2.9455  -2.7418  -2.7192  -2.0570  -0.1566   0.1341   0.2008   0.6125
     1.1194   1.3261   1.4235   1.4353   1.8872   2.5520   2.8870   2.9984

          k = 0.0000 0.0000-0.4545 (  2082 PWs)   bands (ev):

   -17.8899 -17.8899 -16.4452 -16.4265 -16.4265 -16.3925  -6.6145  -3.5603
    -3.5603  -2.8413  -2.8413  -1.8703   0.0134   0.0134   0.2145   0.9230
     0.9230   1.1340   1.1340   1.4811   1.7799   2.8927   2.8927   3.0763

          k = 0.0000 0.2887 0.0000 (  2092 PWs)   bands (ev):

   -18.1473 -17.1427 -16.9491 -16.4700 -16.4374 -16.4167  -5.6653  -5.2200
    -2.8093  -2.7243  -2.6142  -2.1620  -0.3242   0.0120   0.1845   0.6426
     0.8460   1.3721   1.4379   1.8756   1.9608   2.1837   2.8601   2.9374

          k = 0.0000 0.2887 0.2273 (  2117 PWs)   bands (ev):

   -18.0587 -17.4231 -16.7725 -16.4664 -16.4282 -16.4250  -6.0581  -4.6384
    -3.2891  -2.7295  -2.4604  -2.1501  -0.3810   0.0804   0.1714   0.4434
     0.7605   1.3669   1.5015   1.6318   2.0574   2.1416   2.6254   3.0255

          k = 0.0000 0.2887-0.4545 (  2122 PWs)   bands (ev):

   -17.8549 -17.7275 -16.6637 -16.4740 -16.4369 -16.4172  -6.2464  -4.0579
    -3.7063  -2.7010  -2.6027  -2.0246  -0.2999  -0.2665   0.3381   0.6049
     0.7572   1.2916   1.4257   1.6217   1.8469   2.5241   2.5567   2.9143

          k = 0.0000-0.5774 0.0000 (  2122 PWs)   bands (ev):

   -17.8716 -17.4523 -16.9291 -16.4895 -16.4587 -16.4370  -5.7607  -4.7500
    -3.2527  -2.7264  -2.6822  -1.8395  -0.3715  -0.2013   0.1052   0.5686
     0.7131   1.1096   1.1678   1.8430   1.8761   2.1673   2.7451   3.0376

          k = 0.0000-0.5774 0.2273 (  2118 PWs)   bands (ev):

   -17.8439 -17.4378 -16.9809 -16.4922 -16.4601 -16.4299  -5.6840  -4.6997
    -3.5562  -2.7002  -2.3814  -2.0469  -0.4278  -0.3539   0.2998   0.5703
     0.8803   1.0831   1.4329   1.7686   1.9587   2.2840   2.5575   2.9302

          k = 0.0000-0.5774-0.4545 (  2112 PWs)   bands (ev):

   -17.8120 -17.4226 -17.0323 -16.5065 -16.4486 -16.4299  -5.6126  -4.6415
    -3.7732  -2.5988  -2.3069  -2.1993  -0.4309  -0.4247   0.4274   0.7530
     0.7554   1.3041   1.6452   1.7947   2.0822   2.1353   2.4256   2.8394

          k = 0.2500 0.4330 0.0000 (  2124 PWs)   bands (ev):

   -17.8796 -17.4280 -16.9535 -16.4854 -16.4568 -16.4359  -5.7980  -4.6441
    -3.5179  -2.6996  -2.5682  -1.8478  -0.3313  -0.1236   0.0185   0.6240
     0.6770   1.0306   1.3472   1.5897   1.8658   2.3233   2.7409   3.0227

          k = 0.2500 0.4330 0.2273 (  2124 PWs)   bands (ev):

   -17.8463 -17.4382 -16.9757 -16.4861 -16.4697 -16.4323  -5.7073  -4.6134
    -3.7181  -2.6638  -2.3809  -2.0575  -0.4452  -0.1880   0.0942   0.6079
     0.8852   1.0888   1.5060   1.6641   1.9619   2.2727   2.5816   2.8777

          k = 0.2500 0.4330-0.4545 (  2128 PWs)   bands (ev):

   -17.8062 -17.4548 -16.9981 -16.5000 -16.4510 -16.4501  -5.6110  -4.6233
    -3.8806  -2.5295  -2.4061  -2.2152  -0.5039  -0.2769   0.1890   0.6389
     0.9536   1.1175   1.7340   1.8524   1.9628   2.2261   2.4478   2.6305

          k = 0.0000 0.2887-0.2273 (  2117 PWs)   bands (ev):

   -18.0554 -17.4319 -16.7512 -16.4666 -16.4521 -16.4154  -6.0524  -4.6483
    -3.2909  -2.7086  -2.4400  -2.2097  -0.4172   0.0154   0.2376   0.5362
     0.8459   1.2917   1.3831   1.6873   2.0116   2.2335   2.7084   2.9126

     highest occupied level (ev):     3.0763

!    total energy              =    -212.34006689 Ry
     estimated scf accuracy    <       0.00000002 Ry

     The total energy is the sum of the following terms:
     one-electron contribution =     -96.07428870 Ry
     hartree contribution      =      72.46015813 Ry
     xc contribution           =     -49.76333270 Ry
     ewald contribution        =    -138.96260362 Ry

     convergence has been achieved in   8 iterations

     Writing all to output data dir ./quartz-scf-mt/quartz.save/ :
     XML data file, charge density, pseudopotentials, collected wavefunctions

     init_run     :      0.32s CPU      0.37s WALL (       1 calls)
     electrons    :      0.31s CPU      0.35s WALL (       1 calls)

     Called by init_run:
     wfcinit      :      0.03s CPU      0.04s WALL (       1 calls)
     potinit      :      0.01s CPU      0.02s WALL (       1 calls)
     hinit0       :      0.26s CPU      0.27s WALL (       1 calls)

     Called by electrons:
     c_bands      :      0.22s CPU      0.24s WALL (       8 calls)
     sum_band     :      0.04s CPU      0.05s WALL (       8 calls)
     v_of_rho     :      0.02s CPU      0.03s WALL (       9 calls)
     mix_rho      :      0.00s CPU      0.00s WALL (       8 calls)

     Called by c_bands:
     init_us_2    :      0.00s CPU      0.00s WALL (      34 calls)
     cegterg      :      0.21s CPU      0.22s WALL (      16 calls)

     Called by *egterg:
     cdiaghg      :      0.05s CPU      0.05s WALL (      46 calls)
     h_psi        :      0.18s CPU      0.19s WALL (      48 calls)
     g_psi        :      0.00s CPU      0.00s WALL (      30 calls)

     Called by h_psi:
     h_psi:calbec :      0.01s CPU      0.01s WALL (      48 calls)
     vloc_psi     :      0.17s CPU      0.18s WALL (      48 calls)
     add_vuspsi   :      0.00s CPU      0.00s WALL (      48 calls)

     General routines
     calbec       :      0.01s CPU      0.01s WALL (      48 calls)
     fft          :      0.26s CPU      0.27s WALL (      89 calls)
     ffts         :      0.00s CPU      0.00s WALL (       8 calls)
     fftw         :      0.18s CPU      0.19s WALL (    2852 calls)

     Parallel routines

     PWSCF        :      0.88s CPU      1.08s WALL


   This run was terminated on:  14:29: 8   3Feb2026            

=------------------------------------------------------------------------------=
   JOB DONE.
=------------------------------------------------------------------------------=
