
     Program PWSCF v.7.3.1 starts on  3Feb2026 at 14:29:23 

     This program is part of the open-source Quantum ESPRESSO suite
     for quantum simulation of materials; please cite
         "P. Giannozzi et al., J. Phys.:Condens. Matter 21 395502 (2009);
         "P. Giannozzi et al., J. Phys.:Condens. Matter 29 465901 (2017);
         "P. Giannozzi et al., J. Chem. Phys. 152 154105 (2020);
          URL http://www.quantum-espresso.org", 
     in publications or presentations arising from this work. More details at
     http://www.quantum-espresso.org/quote

     Parallel version (MPI), running on   128 processors

     MPI processes distributed on     1 nodes
     241110 MiB available memory on the printing compute node when the environment starts

     Waiting for input...
     Reading input from standard input

     Current dimensions of program PWSCF are:
     Max number of different atomic species (ntypx) = 10
     Max number of k-points (npk) =  40000
     Max angular momentum in pseudopotentials (lmaxx) =  4
     file O.pbe-mt.UPF: wavefunction(s)  0S 0P 0D renormalized

     K-points division:     npool     =       8
     R & G space division:  proc/nbgrp/npool/nimage =      16
     Subspace diagonalization in iterative solution of the eigenvalue problem:
     a serial algorithm will be used


     Parallelization info
     --------------------
     sticks:   dense  smooth     PW     G-vecs:    dense   smooth      PW
     Min          74      74     21                 2270     2270     349
     Max          76      76     22                 2271     2271     352
     Sum        1189    1189    349                36321    36321    5617

     Using Slab Decomposition



     bravais-lattice index     =            4
     lattice parameter (alat)  =       9.2850  a.u.
     unit-cell volume          =     762.5513 (a.u.)^3
     number of atoms/cell      =            9
     number of atomic types    =            2
     number of electrons       =        48.00
     number of Kohn-Sham states=           24
     kinetic-energy cutoff     =      50.0000  Ry
     charge density cutoff     =     200.0000  Ry
     scf convergence threshold =      1.0E-07
     mixing beta               =       0.7000
     number of iterations used =            8  plain     mixing
     Exchange-correlation= SLA  PW   PBE  PBE
                           (   1   4   3   4   0   0   0)

     celldm(1)=   9.285000  celldm(2)=   0.000000  celldm(3)=   1.100000
     celldm(4)=   0.000000  celldm(5)=   0.000000  celldm(6)=   0.000000

     crystal axes: (cart. coord. in units of alat)
               a(1) = (   1.000000   0.000000   0.000000 )  
               a(2) = (  -0.500000   0.866025   0.000000 )  
               a(3) = (   0.000000   0.000000   1.100000 )  

     reciprocal axes: (cart. coord. in units 2 pi/alat)
               b(1) = (  1.000000  0.577350 -0.000000 )  
               b(2) = (  0.000000  1.154701  0.000000 )  
               b(3) = (  0.000000 -0.000000  0.909091 )  


     PseudoPot. # 1 for Si read from file:
     ./Si.pbe-mt_gipaw.UPF
     MD5 check sum: 6403528c9575c057caf2f4a55eeaaaf3
     Pseudo is Norm-conserving, Zval =  4.0
     Generated by new atomic code, or converted to UPF format
     Using radial grid of 1141 points,  2 beta functions with: 
                l(1) =   1
                l(2) =   2

     PseudoPot. # 2 for O  read from file:
     ./O.pbe-mt.UPF
     MD5 check sum: 0e6f701a033a22f8ce6a91b40f8bdab8
     Pseudo is Norm-conserving, Zval =  6.0
     Generated by new atomic code, or converted to UPF format
     Using radial grid of  473 points,  2 beta functions with: 
                l(1) =   0
                l(2) =   1

     atomic species   valence    mass     pseudopotential
     Si                4.00    28.08600     Si( 1.00)
     O                 6.00    16.00000     O ( 1.00)

      6 Sym. Ops. (no inversion) found ( 4 have fractional translation)



   Cartesian axes

     site n.     atom                  positions (alat units)
         1        Si     tau(   1) = (  -0.2349350   0.4069194   0.3666663  )
         2        Si     tau(   2) = (   0.4698700   0.0000000   0.7333330  )
         3        Si     tau(   3) = (   0.2650650   0.4591060   1.0999996  )
         4        O      tau(   4) = (   0.2800500   0.2321814   0.8640500  )
         5        O      tau(   5) = (   0.6589000   0.1264397   0.4973833  )
         6        O      tau(   6) = (   0.5610500   0.5074043   0.1307167  )
         7        O      tau(   7) = (   0.0610500   0.3586211   0.2359500  )
         8        O      tau(   8) = (  -0.2199500   0.6338440   0.6026167  )
         9        O      tau(   9) = (   0.1589000   0.7395857   0.9692833  )

     number of k points=    13
                       cart. coord. in units 2pi/alat
        k(    1) = (   0.0000000   0.0000000   0.0000000), wk =   0.0312500
        k(    2) = (   0.0000000   0.0000000   0.2272727), wk =   0.0625000
        k(    3) = (   0.0000000   0.0000000  -0.4545455), wk =   0.0312500
        k(    4) = (   0.0000000   0.2886751   0.0000000), wk =   0.1875000
        k(    5) = (   0.0000000   0.2886751   0.2272727), wk =   0.1875000
        k(    6) = (   0.0000000   0.2886751  -0.4545455), wk =   0.1875000
        k(    7) = (   0.0000000  -0.5773503   0.0000000), wk =   0.0937500
        k(    8) = (   0.0000000  -0.5773503   0.2272727), wk =   0.1875000
        k(    9) = (   0.0000000  -0.5773503  -0.4545455), wk =   0.0937500
        k(   10) = (   0.2500000   0.4330127   0.0000000), wk =   0.1875000
        k(   11) = (   0.2500000   0.4330127   0.2272727), wk =   0.3750000
        k(   12) = (   0.2500000   0.4330127  -0.4545455), wk =   0.1875000
        k(   13) = (   0.0000000   0.2886751  -0.2272727), wk =   0.1875000

     Dense  grid:    36321 G-vectors     FFT dimensions: (  45,  45,  45)

     Estimated max dynamical RAM per process >       3.13 MB

     Estimated total dynamical RAM >     338.30 MB

     Initial potential from superposition of free atoms

     starting charge      45.0015, renormalised to      48.0000
     Starting wfcs are   81 randomized atomic wfcs

     total cpu time spent up to now is        0.5 secs

     per-process dynamical memory:     9.5 Mb

     Self-consistent Calculation

     iteration #  1     ecut=    50.00 Ry     beta= 0.70
     Davidson diagonalization with overlap
     ethr =  1.00E-02,  avg # of iterations =  2.0

     Threshold (ethr) on eigenvalues was too large:
     Diagonalizing with lowered threshold

     Davidson diagonalization with overlap
     ethr =  5.98E-04,  avg # of iterations =  1.0

     total cpu time spent up to now is        0.7 secs

     total energy              =    -216.33587668 Ry
     estimated scf accuracy    <       0.27822009 Ry

     iteration #  2     ecut=    50.00 Ry     beta= 0.70
     Davidson diagonalization with overlap
     ethr =  5.80E-04,  avg # of iterations =  2.0

     total cpu time spent up to now is        0.7 secs

     total energy              =    -216.37308533 Ry
     estimated scf accuracy    <       0.06272323 Ry

     iteration #  3     ecut=    50.00 Ry     beta= 0.70
     Davidson diagonalization with overlap
     ethr =  1.31E-04,  avg # of iterations =  2.0

     total cpu time spent up to now is        0.8 secs

     total energy              =    -216.38687959 Ry
     estimated scf accuracy    <       0.00457514 Ry

     iteration #  4     ecut=    50.00 Ry     beta= 0.70
     Davidson diagonalization with overlap
     ethr =  9.53E-06,  avg # of iterations =  1.0

     total cpu time spent up to now is        0.8 secs

     total energy              =    -216.38699955 Ry
     estimated scf accuracy    <       0.00038365 Ry

     iteration #  5     ecut=    50.00 Ry     beta= 0.70
     Davidson diagonalization with overlap
     ethr =  7.99E-07,  avg # of iterations =  2.0

     total cpu time spent up to now is        0.9 secs

     total energy              =    -216.38712812 Ry
     estimated scf accuracy    <       0.00001304 Ry

     iteration #  6     ecut=    50.00 Ry     beta= 0.70
     Davidson diagonalization with overlap
     ethr =  2.72E-08,  avg # of iterations =  2.0

     total cpu time spent up to now is        1.0 secs

     total energy              =    -216.38713001 Ry
     estimated scf accuracy    <       0.00000020 Ry

     iteration #  7     ecut=    50.00 Ry     beta= 0.70
     Davidson diagonalization with overlap
     ethr =  4.07E-10,  avg # of iterations =  3.0

     total cpu time spent up to now is        1.0 secs

     End of self-consistent calculation

          k = 0.0000 0.0000 0.0000 (  4571 PWs)   bands (ev):

   -17.0117 -15.4975 -15.4975 -14.8679 -14.8292 -14.8292  -5.7204  -5.7204
    -2.9719  -2.9355  -2.7650  -2.7650  -0.4144  -0.4144  -0.1607   0.0711
     1.0188   1.0188   1.0552   1.5352   1.5352   1.8477   2.2417   2.2417

          k = 0.0000 0.0000 0.2273 (  4601 PWs)   bands (ev):

   -16.8908 -16.0480 -15.0505 -14.8655 -14.8463 -14.8120  -6.4997  -4.7151
    -3.1926  -3.0560  -3.0114  -2.3993  -0.4976  -0.1848  -0.0839   0.2512
     0.7537   0.9086   1.0072   1.0470   1.4505   1.9950   2.3183   2.4519

          k = 0.0000 0.0000-0.4545 (  4558 PWs)   bands (ev):

   -16.5484 -16.5484 -14.8741 -14.8583 -14.8582 -14.8045  -6.7903  -3.7768
    -3.7768  -3.1310  -3.1310  -2.1840  -0.1969  -0.1969  -0.1016   0.5323
     0.5323   0.6943   0.6943   0.9969   1.3195   2.3377   2.3377   2.4613

          k = 0.0000 0.2887 0.0000 (  4580 PWs)   bands (ev):

   -16.8350 -15.7000 -15.4727 -14.9081 -14.8612 -14.8414  -5.7963  -5.3492
    -3.0676  -2.9988  -2.9037  -2.4694  -0.6098  -0.2964  -0.1226   0.3309
     0.5028   0.9357   1.0158   1.4433   1.5303   1.6973   2.3002   2.3966

          k = 0.0000 0.2887 0.2273 (  4550 PWs)   bands (ev):

   -16.7331 -16.0169 -15.2673 -14.8979 -14.8560 -14.8437  -6.1675  -4.7679
    -3.4755  -2.9801  -2.7127  -2.4271  -0.6308  -0.1388  -0.1092   0.1245
     0.4989   1.0240   1.0826   1.2372   1.6748   1.7173   2.1523   2.5248

          k = 0.0000 0.2887-0.4545 (  4540 PWs)   bands (ev):

   -16.5037 -16.3629 -15.1406 -14.9102 -14.8616 -14.8330  -6.3577  -4.1879
    -3.8624  -2.9544  -2.8399  -2.3055  -0.4938  -0.4767   0.0621   0.2914
     0.4490   0.9508   1.0592   1.2305   1.4546   2.1021   2.1294   2.4045

          k = 0.0000-0.5774 0.0000 (  4528 PWs)   bands (ev):

   -16.5254 -16.0526 -15.4451 -14.9267 -14.8880 -14.8621  -5.8624  -4.8708
    -3.3953  -2.9601  -2.9407  -2.1407  -0.5473  -0.3834  -0.1514   0.2368
     0.4364   0.7796   0.8661   1.4349   1.5062   1.7691   2.2789   2.5179

          k = 0.0000-0.5774 0.2273 (  4552 PWs)   bands (ev):

   -16.4924 -16.0361 -15.5109 -14.9305 -14.8911 -14.8529  -5.7940  -4.8164
    -3.7009  -2.9446  -2.6433  -2.3285  -0.6290  -0.5492   0.0111   0.2015
     0.5958   0.7670   1.0835   1.3722   1.5723   1.8215   2.1010   2.4338

          k = 0.0000-0.5774-0.4545 (  4536 PWs)   bands (ev):

   -16.4559 -16.0186 -15.5769 -14.9508 -14.8741 -14.8509  -5.7120  -4.7541
    -3.9003  -2.8473  -2.5764  -2.4670  -0.6897  -0.6719   0.0923   0.4214
     0.4359   0.9849   1.2688   1.3941   1.6564   1.7038   1.9508   2.3567

          k = 0.2500 0.4330 0.0000 (  4544 PWs)   bands (ev):

   -16.5344 -16.0267 -15.4716 -14.9233 -14.8850 -14.8593  -5.8899  -4.7363
    -3.6819  -2.9263  -2.8073  -2.1513  -0.5299  -0.3582  -0.2040   0.3381
     0.3984   0.7331   1.0251   1.1700   1.4733   1.9065   2.2397   2.5302

          k = 0.2500 0.4330 0.2273 (  4546 PWs)   bands (ev):

   -16.4939 -16.0368 -15.5033 -14.9233 -14.9035 -14.8536  -5.8006  -4.7159
    -3.8646  -2.9071  -2.6205  -2.3386  -0.6676  -0.3800  -0.1520   0.3153
     0.5549   0.7642   1.1378   1.3226   1.5572   1.8557   2.1111   2.3971

          k = 0.2500 0.4330-0.4545 (  4542 PWs)   bands (ev):

   -16.4459 -16.0561 -15.5323 -14.9439 -14.8758 -14.8744  -5.6981  -4.7085
    -4.0094  -2.7480  -2.6617  -2.4678  -0.7273  -0.5036  -0.0371   0.3510
     0.5795   0.8104   1.3872   1.4815   1.5907   1.8238   2.0007   2.1599

          k = 0.0000 0.2887-0.2273 (  4550 PWs)   bands (ev):

   -16.7309 -16.0273 -15.2428 -14.8990 -14.8823 -14.8329  -6.1661  -4.7667
    -3.4740  -2.9631  -2.6872  -2.4948  -0.6695  -0.1897  -0.0508   0.2578
     0.5512   0.9047   1.0208   1.2637   1.6086   1.8012   2.2406   2.4397

     highest occupied level (ev):     2.5302

!    total energy              =    -216.38713009 Ry
     estimated scf accuracy    <          3.5E-09 Ry

     The total energy is the sum of the following terms:
     one-electron contribution =    -103.99415430 Ry
     hartree contribution      =      77.31914149 Ry
     xc contribution           =     -50.74951362 Ry
     ewald contribution        =    -138.96260365 Ry

     convergence has been achieved in   7 iterations

     Writing all to output data dir ./quartz-scf-mt/quartz.save/ :
     XML data file, charge density, pseudopotentials, collected wavefunctions

     init_run     :      0.21s CPU      0.25s WALL (       1 calls)
     electrons    :      0.43s CPU      0.52s WALL (       1 calls)

     Called by init_run:
     wfcinit      :      0.06s CPU      0.06s WALL (       1 calls)
     potinit      :      0.01s CPU      0.02s WALL (       1 calls)
     hinit0       :      0.12s CPU      0.13s WALL (       1 calls)

     Called by electrons:
     c_bands      :      0.33s CPU      0.36s WALL (       8 calls)
     sum_band     :      0.06s CPU      0.07s WALL (       8 calls)
     v_of_rho     :      0.04s CPU      0.04s WALL (       8 calls)
     mix_rho      :      0.00s CPU      0.01s WALL (       8 calls)

     Called by c_bands:
     init_us_2    :      0.00s CPU      0.01s WALL (      34 calls)
     cegterg      :      0.32s CPU      0.35s WALL (      16 calls)

     Called by *egterg:
     cdiaghg      :      0.04s CPU      0.05s WALL (      44 calls)
     h_psi        :      0.30s CPU      0.32s WALL (      48 calls)
     g_psi        :      0.00s CPU      0.00s WALL (      30 calls)

     Called by h_psi:
     h_psi:calbec :      0.01s CPU      0.01s WALL (      48 calls)
     vloc_psi     :      0.28s CPU      0.30s WALL (      48 calls)
     add_vuspsi   :      0.01s CPU      0.01s WALL (      48 calls)

     General routines
     calbec       :      0.01s CPU      0.01s WALL (      48 calls)
     fft          :      0.13s CPU      0.13s WALL (      80 calls)
     ffts         :      0.00s CPU      0.00s WALL (       8 calls)
     fftw         :      0.30s CPU      0.32s WALL (    2818 calls)

     Parallel routines

     PWSCF        :      0.88s CPU      1.19s WALL


   This run was terminated on:  14:29:25   3Feb2026            

=------------------------------------------------------------------------------=
   JOB DONE.
=------------------------------------------------------------------------------=
