
     Program PWSCF v.7.3.1 starts on  3Feb2026 at 14:29:32 

     This program is part of the open-source Quantum ESPRESSO suite
     for quantum simulation of materials; please cite
         "P. Giannozzi et al., J. Phys.:Condens. Matter 21 395502 (2009);
         "P. Giannozzi et al., J. Phys.:Condens. Matter 29 465901 (2017);
         "P. Giannozzi et al., J. Chem. Phys. 152 154105 (2020);
          URL http://www.quantum-espresso.org", 
     in publications or presentations arising from this work. More details at
     http://www.quantum-espresso.org/quote

     Parallel version (MPI), running on   128 processors

     MPI processes distributed on     1 nodes
     241131 MiB available memory on the printing compute node when the environment starts

     Waiting for input...
     Reading input from standard input

     Current dimensions of program PWSCF are:
     Max number of different atomic species (ntypx) = 10
     Max number of k-points (npk) =  40000
     Max angular momentum in pseudopotentials (lmaxx) =  4
     file O.pbe-mt.UPF: wavefunction(s)  0S 0P 0D renormalized

     K-points division:     npool     =       8
     R & G space division:  proc/nbgrp/npool/nimage =      16
     Subspace diagonalization in iterative solution of the eigenvalue problem:
     a serial algorithm will be used


     Parallelization info
     --------------------
     sticks:   dense  smooth     PW     G-vecs:    dense   smooth      PW
     Min          88      88     25                 2984     2984     447
     Max          89      89     26                 2989     2989     449
     Sum        1417    1417    409                47775    47775    7167

     Using Slab Decomposition



     bravais-lattice index     =            4
     lattice parameter (alat)  =       9.2850  a.u.
     unit-cell volume          =     762.5513 (a.u.)^3
     number of atoms/cell      =            9
     number of atomic types    =            2
     number of electrons       =        48.00
     number of Kohn-Sham states=           24
     kinetic-energy cutoff     =      60.0000  Ry
     charge density cutoff     =     240.0000  Ry
     scf convergence threshold =      1.0E-07
     mixing beta               =       0.7000
     number of iterations used =            8  plain     mixing
     Exchange-correlation= SLA  PW   PBE  PBE
                           (   1   4   3   4   0   0   0)

     celldm(1)=   9.285000  celldm(2)=   0.000000  celldm(3)=   1.100000
     celldm(4)=   0.000000  celldm(5)=   0.000000  celldm(6)=   0.000000

     crystal axes: (cart. coord. in units of alat)
               a(1) = (   1.000000   0.000000   0.000000 )  
               a(2) = (  -0.500000   0.866025   0.000000 )  
               a(3) = (   0.000000   0.000000   1.100000 )  

     reciprocal axes: (cart. coord. in units 2 pi/alat)
               b(1) = (  1.000000  0.577350 -0.000000 )  
               b(2) = (  0.000000  1.154701  0.000000 )  
               b(3) = (  0.000000 -0.000000  0.909091 )  


     PseudoPot. # 1 for Si read from file:
     ./Si.pbe-mt_gipaw.UPF
     MD5 check sum: 6403528c9575c057caf2f4a55eeaaaf3
     Pseudo is Norm-conserving, Zval =  4.0
     Generated by new atomic code, or converted to UPF format
     Using radial grid of 1141 points,  2 beta functions with: 
                l(1) =   1
                l(2) =   2

     PseudoPot. # 2 for O  read from file:
     ./O.pbe-mt.UPF
     MD5 check sum: 0e6f701a033a22f8ce6a91b40f8bdab8
     Pseudo is Norm-conserving, Zval =  6.0
     Generated by new atomic code, or converted to UPF format
     Using radial grid of  473 points,  2 beta functions with: 
                l(1) =   0
                l(2) =   1

     atomic species   valence    mass     pseudopotential
     Si                4.00    28.08600     Si( 1.00)
     O                 6.00    16.00000     O ( 1.00)

      6 Sym. Ops. (no inversion) found ( 4 have fractional translation)



   Cartesian axes

     site n.     atom                  positions (alat units)
         1        Si     tau(   1) = (  -0.2349350   0.4069194   0.3666663  )
         2        Si     tau(   2) = (   0.4698700   0.0000000   0.7333330  )
         3        Si     tau(   3) = (   0.2650650   0.4591060   1.0999996  )
         4        O      tau(   4) = (   0.2800500   0.2321814   0.8640500  )
         5        O      tau(   5) = (   0.6589000   0.1264397   0.4973833  )
         6        O      tau(   6) = (   0.5610500   0.5074043   0.1307167  )
         7        O      tau(   7) = (   0.0610500   0.3586211   0.2359500  )
         8        O      tau(   8) = (  -0.2199500   0.6338440   0.6026167  )
         9        O      tau(   9) = (   0.1589000   0.7395857   0.9692833  )

     number of k points=    13
                       cart. coord. in units 2pi/alat
        k(    1) = (   0.0000000   0.0000000   0.0000000), wk =   0.0312500
        k(    2) = (   0.0000000   0.0000000   0.2272727), wk =   0.0625000
        k(    3) = (   0.0000000   0.0000000  -0.4545455), wk =   0.0312500
        k(    4) = (   0.0000000   0.2886751   0.0000000), wk =   0.1875000
        k(    5) = (   0.0000000   0.2886751   0.2272727), wk =   0.1875000
        k(    6) = (   0.0000000   0.2886751  -0.4545455), wk =   0.1875000
        k(    7) = (   0.0000000  -0.5773503   0.0000000), wk =   0.0937500
        k(    8) = (   0.0000000  -0.5773503   0.2272727), wk =   0.1875000
        k(    9) = (   0.0000000  -0.5773503  -0.4545455), wk =   0.0937500
        k(   10) = (   0.2500000   0.4330127   0.0000000), wk =   0.1875000
        k(   11) = (   0.2500000   0.4330127   0.2272727), wk =   0.3750000
        k(   12) = (   0.2500000   0.4330127  -0.4545455), wk =   0.1875000
        k(   13) = (   0.0000000   0.2886751  -0.2272727), wk =   0.1875000

     Dense  grid:    47775 G-vectors     FFT dimensions: (  45,  45,  54)

     Estimated max dynamical RAM per process >       4.01 MB

     Estimated total dynamical RAM >     431.01 MB

     Initial potential from superposition of free atoms

     starting charge      45.0015, renormalised to      48.0000
     Starting wfcs are   81 randomized atomic wfcs

     total cpu time spent up to now is        0.6 secs

     per-process dynamical memory:     9.2 Mb

     Self-consistent Calculation

     iteration #  1     ecut=    60.00 Ry     beta= 0.70
     Davidson diagonalization with overlap
     ethr =  1.00E-02,  avg # of iterations =  2.0

     Threshold (ethr) on eigenvalues was too large:
     Diagonalizing with lowered threshold

     Davidson diagonalization with overlap
     ethr =  6.80E-04,  avg # of iterations =  1.0

     total cpu time spent up to now is        0.8 secs

     total energy              =    -216.63963216 Ry
     estimated scf accuracy    <       0.31641092 Ry

     iteration #  2     ecut=    60.00 Ry     beta= 0.70
     Davidson diagonalization with overlap
     ethr =  6.59E-04,  avg # of iterations =  2.0

     total cpu time spent up to now is        0.8 secs

     total energy              =    -216.69494803 Ry
     estimated scf accuracy    <       0.09330776 Ry

     iteration #  3     ecut=    60.00 Ry     beta= 0.70
     Davidson diagonalization with overlap
     ethr =  1.94E-04,  avg # of iterations =  2.0

     total cpu time spent up to now is        0.9 secs

     total energy              =    -216.71416575 Ry
     estimated scf accuracy    <       0.00363617 Ry

     iteration #  4     ecut=    60.00 Ry     beta= 0.70
     Davidson diagonalization with overlap
     ethr =  7.58E-06,  avg # of iterations =  2.0

     total cpu time spent up to now is        1.0 secs

     total energy              =    -216.71424019 Ry
     estimated scf accuracy    <       0.00045914 Ry

     iteration #  5     ecut=    60.00 Ry     beta= 0.70
     Davidson diagonalization with overlap
     ethr =  9.57E-07,  avg # of iterations =  2.0

     total cpu time spent up to now is        1.1 secs

     total energy              =    -216.71431908 Ry
     estimated scf accuracy    <       0.00000854 Ry

     iteration #  6     ecut=    60.00 Ry     beta= 0.70
     Davidson diagonalization with overlap
     ethr =  1.78E-08,  avg # of iterations =  3.0

     total cpu time spent up to now is        1.1 secs

     total energy              =    -216.71432319 Ry
     estimated scf accuracy    <       0.00000327 Ry

     iteration #  7     ecut=    60.00 Ry     beta= 0.70
     Davidson diagonalization with overlap
     ethr =  6.82E-09,  avg # of iterations =  2.0

     total cpu time spent up to now is        1.2 secs

     End of self-consistent calculation

          k = 0.0000 0.0000 0.0000 (  5989 PWs)   bands (ev):

   -16.9098 -15.3811 -15.3810 -14.7434 -14.7028 -14.7028  -5.7266  -5.7266
    -2.9728  -2.9455  -2.7784  -2.7784  -0.4319  -0.4319  -0.1811   0.0568
     1.0164   1.0164   1.0450   1.5172   1.5172   1.8361   2.2090   2.2091

          k = 0.0000 0.0000 0.2273 (  6019 PWs)   bands (ev):

   -16.7879 -15.9377 -14.9277 -14.7407 -14.7203 -14.6853  -6.5076  -4.7140
    -3.1979  -3.0639  -3.0168  -2.4020  -0.5008  -0.2007  -0.1002   0.2436
     0.7437   0.9032   0.9999   1.0294   1.4406   1.9863   2.2978   2.4275

          k = 0.0000 0.0000-0.4545 (  5990 PWs)   bands (ev):

   -16.4429 -16.4429 -14.7486 -14.7330 -14.7330 -14.6777  -6.8030  -3.7815
    -3.7815  -3.1420  -3.1420  -2.2004  -0.2056  -0.2056  -0.1283   0.5090
     0.5090   0.6812   0.6812   0.9818   1.3095   2.3094   2.3094   2.4347

          k = 0.0000 0.2887 0.0000 (  5992 PWs)   bands (ev):

   -16.7317 -15.5860 -15.3557 -14.7838 -14.7355 -14.7156  -5.8007  -5.3535
    -3.0724  -3.0086  -2.9104  -2.4778  -0.6199  -0.3092  -0.1381   0.3222
     0.4893   0.9284   1.0025   1.4260   1.5157   1.6812   2.2801   2.3713

          k = 0.0000 0.2887 0.2273 (  5996 PWs)   bands (ev):

   -16.6291 -15.9063 -15.1481 -14.7730 -14.7307 -14.7177  -6.1805  -4.7729
    -3.4874  -2.9931  -2.7223  -2.4383  -0.6381  -0.1549  -0.1325   0.1089
     0.4779   1.0035   1.0669   1.2184   1.6512   1.7005   2.1258   2.4932

          k = 0.0000 0.2887-0.4545 (  6002 PWs)   bands (ev):

   -16.3976 -16.2558 -15.0199 -14.7857 -14.7359 -14.7068  -6.3720  -4.1973
    -3.8699  -2.9689  -2.8532  -2.3175  -0.5042  -0.4886   0.0353   0.2717
     0.4273   0.9307   1.0348   1.2099   1.4331   2.0756   2.1035   2.3724

          k = 0.0000-0.5774 0.0000 (  5976 PWs)   bands (ev):

   -16.4198 -15.9426 -15.3278 -14.8025 -14.7630 -14.7367  -5.8709  -4.8794
    -3.4050  -2.9737  -2.9544  -2.1583  -0.5646  -0.4020  -0.1715   0.2185
     0.4179   0.7596   0.8450   1.4113   1.4807   1.7367   2.2522   2.4890

          k = 0.0000-0.5774 0.2273 (  5982 PWs)   bands (ev):

   -16.3863 -15.9258 -15.3948 -14.8063 -14.7661 -14.7271  -5.7996  -4.8226
    -3.7101  -2.9569  -2.6552  -2.3403  -0.6396  -0.5609  -0.0060   0.1875
     0.5789   0.7503   1.0647   1.3499   1.5530   1.7979   2.0760   2.4063

          k = 0.0000-0.5774-0.4545 (  5956 PWs)   bands (ev):

   -16.3492 -15.9081 -15.4622 -14.8272 -14.7485 -14.7250  -5.7210  -4.7628
    -3.9113  -2.8563  -2.5903  -2.4779  -0.6965  -0.6797   0.0789   0.3962
     0.4181   0.9569   1.2437   1.3700   1.6344   1.6816   1.9192   2.3339

          k = 0.2500 0.4330 0.0000 (  6001 PWs)   bands (ev):

   -16.4288 -15.9164 -15.3545 -14.7990 -14.7599 -14.7340  -5.9012  -4.7434
    -3.6892  -2.9403  -2.8203  -2.1645  -0.5436  -0.3755  -0.2203   0.3196
     0.3823   0.7159   1.0054   1.1525   1.4464   1.8785   2.2121   2.4980

          k = 0.2500 0.4330 0.2273 (  5975 PWs)   bands (ev):

   -16.3878 -15.9266 -15.3871 -14.7991 -14.7787 -14.7278  -5.8103  -4.7211
    -3.8736  -2.9182  -2.6323  -2.3496  -0.6781  -0.3916  -0.1709   0.2962
     0.5391   0.7469   1.1165   1.3013   1.5352   1.8316   2.0862   2.3683

          k = 0.2500 0.4330-0.4545 (  5964 PWs)   bands (ev):

   -16.3391 -15.9461 -15.4168 -14.8203 -14.7503 -14.7488  -5.7055  -4.7157
    -4.0191  -2.7601  -2.6732  -2.4764  -0.7349  -0.5116  -0.0565   0.3280
     0.5601   0.7872   1.3624   1.4594   1.5722   1.8016   1.9749   2.1362

          k = 0.0000 0.2887-0.2273 (  5996 PWs)   bands (ev):

   -16.6268 -15.9167 -15.1233 -14.7744 -14.7572 -14.7067  -6.1780  -4.7716
    -3.4866  -2.9748  -2.6983  -2.5035  -0.6795  -0.2064  -0.0738   0.2373
     0.5323   0.8882   1.0033   1.2423   1.5875   1.7802   2.2173   2.4087

     highest occupied level (ev):     2.4980

!    total energy              =    -216.71432386 Ry
     estimated scf accuracy    <       0.00000002 Ry

     The total energy is the sum of the following terms:
     one-electron contribution =    -104.67118988 Ry
     hartree contribution      =      77.73334881 Ry
     xc contribution           =     -50.81387917 Ry
     ewald contribution        =    -138.96260362 Ry

     convergence has been achieved in   7 iterations

     Writing all to output data dir ./quartz-scf-mt/quartz.save/ :
     XML data file, charge density, pseudopotentials, collected wavefunctions

     init_run     :      0.28s CPU      0.32s WALL (       1 calls)
     electrons    :      0.59s CPU      0.65s WALL (       1 calls)

     Called by init_run:
     wfcinit      :      0.07s CPU      0.08s WALL (       1 calls)
     potinit      :      0.02s CPU      0.02s WALL (       1 calls)
     hinit0       :      0.17s CPU      0.17s WALL (       1 calls)

     Called by electrons:
     c_bands      :      0.45s CPU      0.46s WALL (       8 calls)
     sum_band     :      0.07s CPU      0.09s WALL (       8 calls)
     v_of_rho     :      0.05s CPU      0.05s WALL (       8 calls)
     mix_rho      :      0.01s CPU      0.01s WALL (       8 calls)

     Called by c_bands:
     init_us_2    :      0.01s CPU      0.01s WALL (      34 calls)
     cegterg      :      0.43s CPU      0.44s WALL (      16 calls)

     Called by *egterg:
     cdiaghg      :      0.05s CPU      0.05s WALL (      46 calls)
     h_psi        :      0.40s CPU      0.42s WALL (      50 calls)
     g_psi        :      0.00s CPU      0.00s WALL (      32 calls)

     Called by h_psi:
     h_psi:calbec :      0.01s CPU      0.01s WALL (      50 calls)
     vloc_psi     :      0.37s CPU      0.39s WALL (      50 calls)
     add_vuspsi   :      0.01s CPU      0.01s WALL (      50 calls)

     General routines
     calbec       :      0.01s CPU      0.01s WALL (      50 calls)
     fft          :      0.17s CPU      0.17s WALL (      80 calls)
     ffts         :      0.00s CPU      0.00s WALL (       8 calls)
     fftw         :      0.39s CPU      0.42s WALL (    2854 calls)

     Parallel routines

     PWSCF        :      1.12s CPU      1.33s WALL


   This run was terminated on:  14:29:34   3Feb2026            

=------------------------------------------------------------------------------=
   JOB DONE.
=------------------------------------------------------------------------------=
