
     Program PWSCF v.7.3.1 starts on  3Feb2026 at 14:29:41 

     This program is part of the open-source Quantum ESPRESSO suite
     for quantum simulation of materials; please cite
         "P. Giannozzi et al., J. Phys.:Condens. Matter 21 395502 (2009);
         "P. Giannozzi et al., J. Phys.:Condens. Matter 29 465901 (2017);
         "P. Giannozzi et al., J. Chem. Phys. 152 154105 (2020);
          URL http://www.quantum-espresso.org", 
     in publications or presentations arising from this work. More details at
     http://www.quantum-espresso.org/quote

     Parallel version (MPI), running on   128 processors

     MPI processes distributed on     1 nodes
     241087 MiB available memory on the printing compute node when the environment starts

     Waiting for input...
     Reading input from standard input

     Current dimensions of program PWSCF are:
     Max number of different atomic species (ntypx) = 10
     Max number of k-points (npk) =  40000
     Max angular momentum in pseudopotentials (lmaxx) =  4
     file O.pbe-mt.UPF: wavefunction(s)  0S 0P 0D renormalized

     K-points division:     npool     =       8
     R & G space division:  proc/nbgrp/npool/nimage =      16
     Subspace diagonalization in iterative solution of the eigenvalue problem:
     a serial algorithm will be used


     Parallelization info
     --------------------
     sticks:   dense  smooth     PW     G-vecs:    dense   smooth      PW
     Min         103     103     28                 3769     3769     559
     Max         104     104     29                 3776     3776     561
     Sum        1663    1663    463                60361    60361    8963

     Using Slab Decomposition



     bravais-lattice index     =            4
     lattice parameter (alat)  =       9.2850  a.u.
     unit-cell volume          =     762.5513 (a.u.)^3
     number of atoms/cell      =            9
     number of atomic types    =            2
     number of electrons       =        48.00
     number of Kohn-Sham states=           24
     kinetic-energy cutoff     =      70.0000  Ry
     charge density cutoff     =     280.0000  Ry
     scf convergence threshold =      1.0E-07
     mixing beta               =       0.7000
     number of iterations used =            8  plain     mixing
     Exchange-correlation= SLA  PW   PBE  PBE
                           (   1   4   3   4   0   0   0)

     celldm(1)=   9.285000  celldm(2)=   0.000000  celldm(3)=   1.100000
     celldm(4)=   0.000000  celldm(5)=   0.000000  celldm(6)=   0.000000

     crystal axes: (cart. coord. in units of alat)
               a(1) = (   1.000000   0.000000   0.000000 )  
               a(2) = (  -0.500000   0.866025   0.000000 )  
               a(3) = (   0.000000   0.000000   1.100000 )  

     reciprocal axes: (cart. coord. in units 2 pi/alat)
               b(1) = (  1.000000  0.577350 -0.000000 )  
               b(2) = (  0.000000  1.154701  0.000000 )  
               b(3) = (  0.000000 -0.000000  0.909091 )  


     PseudoPot. # 1 for Si read from file:
     ./Si.pbe-mt_gipaw.UPF
     MD5 check sum: 6403528c9575c057caf2f4a55eeaaaf3
     Pseudo is Norm-conserving, Zval =  4.0
     Generated by new atomic code, or converted to UPF format
     Using radial grid of 1141 points,  2 beta functions with: 
                l(1) =   1
                l(2) =   2

     PseudoPot. # 2 for O  read from file:
     ./O.pbe-mt.UPF
     MD5 check sum: 0e6f701a033a22f8ce6a91b40f8bdab8
     Pseudo is Norm-conserving, Zval =  6.0
     Generated by new atomic code, or converted to UPF format
     Using radial grid of  473 points,  2 beta functions with: 
                l(1) =   0
                l(2) =   1

     atomic species   valence    mass     pseudopotential
     Si                4.00    28.08600     Si( 1.00)
     O                 6.00    16.00000     O ( 1.00)

      6 Sym. Ops. (no inversion) found ( 4 have fractional translation)



   Cartesian axes

     site n.     atom                  positions (alat units)
         1        Si     tau(   1) = (  -0.2349350   0.4069194   0.3666663  )
         2        Si     tau(   2) = (   0.4698700   0.0000000   0.7333330  )
         3        Si     tau(   3) = (   0.2650650   0.4591060   1.0999996  )
         4        O      tau(   4) = (   0.2800500   0.2321814   0.8640500  )
         5        O      tau(   5) = (   0.6589000   0.1264397   0.4973833  )
         6        O      tau(   6) = (   0.5610500   0.5074043   0.1307167  )
         7        O      tau(   7) = (   0.0610500   0.3586211   0.2359500  )
         8        O      tau(   8) = (  -0.2199500   0.6338440   0.6026167  )
         9        O      tau(   9) = (   0.1589000   0.7395857   0.9692833  )

     number of k points=    13
                       cart. coord. in units 2pi/alat
        k(    1) = (   0.0000000   0.0000000   0.0000000), wk =   0.0312500
        k(    2) = (   0.0000000   0.0000000   0.2272727), wk =   0.0625000
        k(    3) = (   0.0000000   0.0000000  -0.4545455), wk =   0.0312500
        k(    4) = (   0.0000000   0.2886751   0.0000000), wk =   0.1875000
        k(    5) = (   0.0000000   0.2886751   0.2272727), wk =   0.1875000
        k(    6) = (   0.0000000   0.2886751  -0.4545455), wk =   0.1875000
        k(    7) = (   0.0000000  -0.5773503   0.0000000), wk =   0.0937500
        k(    8) = (   0.0000000  -0.5773503   0.2272727), wk =   0.1875000
        k(    9) = (   0.0000000  -0.5773503  -0.4545455), wk =   0.0937500
        k(   10) = (   0.2500000   0.4330127   0.0000000), wk =   0.1875000
        k(   11) = (   0.2500000   0.4330127   0.2272727), wk =   0.3750000
        k(   12) = (   0.2500000   0.4330127  -0.4545455), wk =   0.1875000
        k(   13) = (   0.0000000   0.2886751  -0.2272727), wk =   0.1875000

     Dense  grid:    60361 G-vectors     FFT dimensions: (  50,  50,  60)

     Estimated max dynamical RAM per process >       4.93 MB

     Estimated total dynamical RAM >     528.21 MB

     Initial potential from superposition of free atoms

     starting charge      45.0015, renormalised to      48.0000
     Starting wfcs are   81 randomized atomic wfcs

     total cpu time spent up to now is        0.7 secs

     per-process dynamical memory:     9.8 Mb

     Self-consistent Calculation

     iteration #  1     ecut=    70.00 Ry     beta= 0.70
     Davidson diagonalization with overlap
     ethr =  1.00E-02,  avg # of iterations =  2.0

     Threshold (ethr) on eigenvalues was too large:
     Diagonalizing with lowered threshold

     Davidson diagonalization with overlap
     ethr =  7.00E-04,  avg # of iterations =  1.0

     total cpu time spent up to now is        0.9 secs

     total energy              =    -216.70390753 Ry
     estimated scf accuracy    <       0.32617179 Ry

     iteration #  2     ecut=    70.00 Ry     beta= 0.70
     Davidson diagonalization with overlap
     ethr =  6.80E-04,  avg # of iterations =  2.0

     total cpu time spent up to now is        1.0 secs

     total energy              =    -216.76399964 Ry
     estimated scf accuracy    <       0.10167444 Ry

     iteration #  3     ecut=    70.00 Ry     beta= 0.70
     Davidson diagonalization with overlap
     ethr =  2.12E-04,  avg # of iterations =  2.0

     total cpu time spent up to now is        1.1 secs

     total energy              =    -216.78451556 Ry
     estimated scf accuracy    <       0.00348085 Ry

     iteration #  4     ecut=    70.00 Ry     beta= 0.70
     Davidson diagonalization with overlap
     ethr =  7.25E-06,  avg # of iterations =  2.0

     total cpu time spent up to now is        1.1 secs

     total energy              =    -216.78459868 Ry
     estimated scf accuracy    <       0.00052301 Ry

     iteration #  5     ecut=    70.00 Ry     beta= 0.70
     Davidson diagonalization with overlap
     ethr =  1.09E-06,  avg # of iterations =  2.0

     total cpu time spent up to now is        1.2 secs

     total energy              =    -216.78467955 Ry
     estimated scf accuracy    <       0.00001168 Ry

     iteration #  6     ecut=    70.00 Ry     beta= 0.70
     Davidson diagonalization with overlap
     ethr =  2.43E-08,  avg # of iterations =  3.2

     total cpu time spent up to now is        1.3 secs

     total energy              =    -216.78468525 Ry
     estimated scf accuracy    <       0.00000422 Ry

     iteration #  7     ecut=    70.00 Ry     beta= 0.70
     Davidson diagonalization with overlap
     ethr =  8.78E-09,  avg # of iterations =  2.0

     total cpu time spent up to now is        1.4 secs

     End of self-consistent calculation

          k = 0.0000 0.0000 0.0000 (  7647 PWs)   bands (ev):

   -16.8916 -15.3601 -15.3601 -14.7209 -14.6800 -14.6800  -5.7239  -5.7239
    -2.9746  -2.9473  -2.7793  -2.7793  -0.4339  -0.4339  -0.1849   0.0557
     1.0074   1.0074   1.0362   1.5126   1.5126   1.8298   2.2005   2.2005

          k = 0.0000 0.0000 0.2273 (  7593 PWs)   bands (ev):

   -16.7695 -15.9179 -14.9055 -14.7181 -14.6976 -14.6624  -6.5041  -4.7117
    -3.1968  -3.0638  -3.0177  -2.4040  -0.5014  -0.2025  -0.1021   0.2420
     0.7386   0.8971   0.9949   1.0265   1.4373   1.9817   2.2929   2.4196

          k = 0.0000 0.0000-0.4545 (  7516 PWs)   bands (ev):

   -16.4238 -16.4238 -14.7258 -14.7102 -14.7102 -14.6546  -6.7995  -3.7813
    -3.7813  -3.1432  -3.1432  -2.2036  -0.2062  -0.2062  -0.1281   0.5050
     0.5050   0.6756   0.6756   0.9754   1.3027   2.3016   2.3016   2.4276

          k = 0.0000 0.2887 0.0000 (  7553 PWs)   bands (ev):

   -16.7132 -15.5654 -15.3345 -14.7612 -14.7127 -14.6928  -5.7980  -5.3507
    -3.0733  -3.0090  -2.9112  -2.4800  -0.6211  -0.3110  -0.1398   0.3192
     0.4846   0.9214   0.9963   1.4212   1.5097   1.6763   2.2734   2.3629

          k = 0.0000 0.2887 0.2273 (  7558 PWs)   bands (ev):

   -16.6103 -15.8863 -15.1265 -14.7504 -14.7080 -14.6948  -6.1772  -4.7707
    -3.4869  -2.9944  -2.7236  -2.4406  -0.6397  -0.1558  -0.1339   0.1066
     0.4742   0.9983   1.0593   1.2131   1.6461   1.6941   2.1187   2.4850

          k = 0.0000 0.2887-0.4545 (  7530 PWs)   bands (ev):

   -16.3784 -16.2365 -14.9980 -14.7632 -14.7131 -14.6839  -6.3684  -4.1959
    -3.8684  -2.9692  -2.8542  -2.3208  -0.5057  -0.4892   0.0347   0.2681
     0.4237   0.9269   1.0295   1.2043   1.4282   2.0693   2.0976   2.3655

          k = 0.0000-0.5774 0.0000 (  7506 PWs)   bands (ev):

   -16.4007 -15.9227 -15.3065 -14.7799 -14.7403 -14.7140  -5.8678  -4.8775
    -3.4048  -2.9749  -2.9562  -2.1635  -0.5662  -0.4017  -0.1743   0.2148
     0.4154   0.7561   0.8403   1.4051   1.4733   1.7294   2.2452   2.4797

          k = 0.0000-0.5774 0.2273 (  7526 PWs)   bands (ev):

   -16.3672 -15.9059 -15.3738 -14.7838 -14.7434 -14.7043  -5.7964  -4.8204
    -3.7098  -2.9575  -2.6573  -2.3439  -0.6412  -0.5620  -0.0094   0.1846
     0.5751   0.7469   1.0604   1.3446   1.5461   1.7908   2.0694   2.3974

          k = 0.0000-0.5774-0.4545 (  7560 PWs)   bands (ev):

   -16.3300 -15.8882 -15.4415 -14.8049 -14.7257 -14.7022  -5.7183  -4.7613
    -3.9114  -2.8587  -2.5940  -2.4819  -0.6999  -0.6815   0.0746   0.3925
     0.4137   0.9520   1.2375   1.3623   1.6276   1.6750   1.9100   2.3230

          k = 0.2500 0.4330 0.0000 (  7552 PWs)   bands (ev):

   -16.4099 -15.8965 -15.3333 -14.7764 -14.7373 -14.7113  -5.8982  -4.7408
    -3.6882  -2.9409  -2.8214  -2.1680  -0.5446  -0.3763  -0.2219   0.3169
     0.3801   0.7118   1.0012   1.1472   1.4412   1.8717   2.2069   2.4901

          k = 0.2500 0.4330 0.2273 (  7538 PWs)   bands (ev):

   -16.3687 -15.9067 -15.3660 -14.7766 -14.7561 -14.7050  -5.8074  -4.7192
    -3.8728  -2.9197  -2.6351  -2.3530  -0.6802  -0.3931  -0.1738   0.2932
     0.5353   0.7429   1.1106   1.2950   1.5286   1.8241   2.0785   2.3599

          k = 0.2500 0.4330-0.4545 (  7556 PWs)   bands (ev):

   -16.3198 -15.9263 -15.3959 -14.7980 -14.7275 -14.7260  -5.7029  -4.7140
    -4.0180  -2.7628  -2.6766  -2.4801  -0.7372  -0.5137  -0.0613   0.3245
     0.5554   0.7823   1.3559   1.4527   1.5651   1.7940   1.9675   2.1262

          k = 0.0000 0.2887-0.2273 (  7558 PWs)   bands (ev):

   -16.6081 -15.8968 -15.1017 -14.7518 -14.7345 -14.6839  -6.1747  -4.7695
    -3.4864  -2.9758  -2.7002  -2.5058  -0.6808  -0.2077  -0.0749   0.2348
     0.5286   0.8824   0.9980   1.2366   1.5826   1.7746   2.2089   2.4012

     highest occupied level (ev):     2.4901

!    total energy              =    -216.78468618 Ry
     estimated scf accuracy    <       0.00000008 Ry

     The total energy is the sum of the following terms:
     one-electron contribution =    -104.82195790 Ry
     hartree contribution      =      77.82089887 Ry
     xc contribution           =     -50.82102353 Ry
     ewald contribution        =    -138.96260361 Ry

     convergence has been achieved in   7 iterations

     Writing all to output data dir ./quartz-scf-mt/quartz.save/ :
     XML data file, charge density, pseudopotentials, collected wavefunctions

     init_run     :      0.41s CPU      0.44s WALL (       1 calls)
     electrons    :      0.64s CPU      0.70s WALL (       1 calls)

     Called by init_run:
     wfcinit      :      0.07s CPU      0.09s WALL (       1 calls)
     potinit      :      0.02s CPU      0.03s WALL (       1 calls)
     hinit0       :      0.27s CPU      0.27s WALL (       1 calls)

     Called by electrons:
     c_bands      :      0.46s CPU      0.49s WALL (       8 calls)
     sum_band     :      0.08s CPU      0.09s WALL (       8 calls)
     v_of_rho     :      0.06s CPU      0.06s WALL (       8 calls)
     mix_rho      :      0.01s CPU      0.01s WALL (       8 calls)

     Called by c_bands:
     init_us_2    :      0.01s CPU      0.01s WALL (      34 calls)
     cegterg      :      0.44s CPU      0.47s WALL (      16 calls)

     Called by *egterg:
     cdiaghg      :      0.05s CPU      0.05s WALL (      47 calls)
     h_psi        :      0.42s CPU      0.44s WALL (      51 calls)
     g_psi        :      0.00s CPU      0.00s WALL (      33 calls)

     Called by h_psi:
     h_psi:calbec :      0.01s CPU      0.02s WALL (      51 calls)
     vloc_psi     :      0.39s CPU      0.41s WALL (      51 calls)
     add_vuspsi   :      0.01s CPU      0.01s WALL (      51 calls)

     General routines
     calbec       :      0.01s CPU      0.02s WALL (      51 calls)
     fft          :      0.28s CPU      0.28s WALL (      80 calls)
     ffts         :      0.00s CPU      0.00s WALL (       8 calls)
     fftw         :      0.40s CPU      0.43s WALL (    2866 calls)

     Parallel routines

     PWSCF        :      1.26s CPU      1.51s WALL


   This run was terminated on:  14:29:43   3Feb2026            

=------------------------------------------------------------------------------=
   JOB DONE.
=------------------------------------------------------------------------------=
