
     Program PWSCF v.7.3.1 starts on 25Feb2026 at 20: 4:43 

     This program is part of the open-source Quantum ESPRESSO suite
     for quantum simulation of materials; please cite
         "P. Giannozzi et al., J. Phys.:Condens. Matter 21 395502 (2009);
         "P. Giannozzi et al., J. Phys.:Condens. Matter 29 465901 (2017);
         "P. Giannozzi et al., J. Chem. Phys. 152 154105 (2020);
          URL http://www.quantum-espresso.org", 
     in publications or presentations arising from this work. More details at
     http://www.quantum-espresso.org/quote

     Parallel version (MPI), running on   128 processors

     MPI processes distributed on     1 nodes
     234222 MiB available memory on the printing compute node when the environment starts

     Waiting for input...
     Reading input from standard input

     Current dimensions of program PWSCF are:
     Max number of different atomic species (ntypx) = 10
     Max number of k-points (npk) =  40000
     Max angular momentum in pseudopotentials (lmaxx) =  4

     K-points division:     npool     =       4
     R & G space division:  proc/nbgrp/npool/nimage =      32
     Subspace diagonalization in iterative solution of the eigenvalue problem:
     a serial algorithm will be used


     Parallelization info
     --------------------
     sticks:   dense  smooth     PW     G-vecs:    dense   smooth      PW
     Min         257     257     73                11168    11168    1695
     Max         258     258     74                11171    11171    1698
     Sum        8247    8247   2357               357413   357413   54287

     Using Slab Decomposition



     bravais-lattice index     =            7
     lattice parameter (alat)  =      11.0861  a.u.
     unit-cell volume          =     371.6919 (a.u.)^3
     number of atoms/cell      =            2
     number of atomic types    =            1
     number of electrons       =        28.00
     number of Kohn-Sham states=           14
     kinetic-energy cutoff     =     370.0000  Ry
     charge density cutoff     =    1480.0000  Ry
     scf convergence threshold =      1.0E-07
     mixing beta               =       0.7000
     number of iterations used =            8  plain     mixing
     Exchange-correlation=  SLA  PW   GGX  GGC
                           (   1   4   2   2   0   0   0)

     celldm(1)=  11.086120  celldm(2)=   0.000000  celldm(3)=   0.545600
     celldm(4)=   0.000000  celldm(5)=   0.000000  celldm(6)=   0.000000

     crystal axes: (cart. coord. in units of alat)
               a(1) = (   0.500000  -0.500000   0.272800 )  
               a(2) = (   0.500000   0.500000   0.272800 )  
               a(3) = (  -0.500000  -0.500000   0.272800 )  

     reciprocal axes: (cart. coord. in units 2 pi/alat)
               b(1) = (  1.000000 -1.000000  0.000000 )  
               b(2) = (  0.000000  1.000000  1.832845 )  
               b(3) = ( -1.000000  0.000000  1.832845 )  


     PseudoPot. # 1 for Sn read from file:
     ./Sn.pw91-n-van.UPF
     MD5 check sum: a38d2a872edd1a4efd76c0a1a38f7031
     Pseudo is Ultrasoft + core correction, Zval = 14.0
     Generated by new atomic code, or converted to UPF format
     Using radial grid of  891 points,  6 beta functions with: 
                l(1) =   0
                l(2) =   0
                l(3) =   1
                l(4) =   1
                l(5) =   2
                l(6) =   2
     Q(r) pseudized with  8 coefficients,  rinner =    1.100   1.100   1.100
                                                       1.100   1.100

     atomic species   valence    mass     pseudopotential
     Sn               14.00   118.70000     Sn( 1.00)

     16 Sym. Ops., with inversion, found (12 have fractional translation)



   Cartesian axes

     site n.     atom                  positions (alat units)
         1        Sn     tau(   1) = (   0.0000000  -0.2500000   0.0682000  )
         2        Sn     tau(   2) = (   0.0000000   0.2500000  -0.0682000  )

     number of k points=   244

     Number of k-points >= 100: set verbosity='high' to print them.

     Dense  grid:   357413 G-vectors     FFT dimensions: ( 108, 108, 108)

     Estimated max dynamical RAM per process >      38.33 MB

     Estimated total dynamical RAM >       4.54 GB

     Initial potential from superposition of free atoms

     starting charge      27.9964, renormalised to      28.0000
     Starting wfcs are   18 randomized atomic wfcs

     total cpu time spent up to now is        3.5 secs

     per-process dynamical memory:    38.7 Mb

     Self-consistent Calculation

     iteration #  1     ecut=   370.00 Ry     beta= 0.70
     Davidson diagonalization with overlap
     ethr =  1.00E-02,  avg # of iterations =  3.1

     Threshold (ethr) on eigenvalues was too large:
     Diagonalizing with lowered threshold

     Davidson diagonalization with overlap
     ethr =  8.31E-05,  avg # of iterations =  4.5

     total cpu time spent up to now is       14.6 secs

     total energy              =    -325.44667464 Ry
     estimated scf accuracy    <       0.02865172 Ry

     iteration #  2     ecut=   370.00 Ry     beta= 0.70
     Davidson diagonalization with overlap
     ethr =  1.02E-04,  avg # of iterations =  4.8

     total cpu time spent up to now is       21.9 secs

     total energy              =    -325.56364448 Ry
     estimated scf accuracy    <       0.02385664 Ry

     iteration #  3     ecut=   370.00 Ry     beta= 0.70
     Davidson diagonalization with overlap
     ethr =  8.52E-05,  avg # of iterations =  2.0

     total cpu time spent up to now is       26.8 secs

     total energy              =    -325.58861879 Ry
     estimated scf accuracy    <       0.00546725 Ry

     iteration #  4     ecut=   370.00 Ry     beta= 0.70
     Davidson diagonalization with overlap
     ethr =  1.95E-05,  avg # of iterations =  2.1

     total cpu time spent up to now is       31.7 secs

     total energy              =    -325.59900405 Ry
     estimated scf accuracy    <       0.00100415 Ry

     iteration #  5     ecut=   370.00 Ry     beta= 0.70
     Davidson diagonalization with overlap
     ethr =  3.59E-06,  avg # of iterations =  2.9

     total cpu time spent up to now is       37.1 secs

     total energy              =    -325.59920880 Ry
     estimated scf accuracy    <       0.00000934 Ry

     iteration #  6     ecut=   370.00 Ry     beta= 0.70
     Davidson diagonalization with overlap
     ethr =  3.33E-08,  avg # of iterations =  4.3

     total cpu time spent up to now is       42.9 secs

     total energy              =    -325.59921488 Ry
     estimated scf accuracy    <       0.00000088 Ry

     iteration #  7     ecut=   370.00 Ry     beta= 0.70
     Davidson diagonalization with overlap
     ethr =  3.14E-09,  avg # of iterations =  2.4

     total cpu time spent up to now is       48.4 secs

     End of self-consistent calculation

     Number of k-points >= 100: set verbosity='high' to print the bands.

     highest occupied level (ev):    11.9540

!    total energy              =    -325.59921510 Ry
     estimated scf accuracy    <          7.3E-09 Ry

     The total energy is the sum of the following terms:
     one-electron contribution =    -109.19249705 Ry
     hartree contribution      =      75.13174987 Ry
     xc contribution           =     -95.20118839 Ry
     ewald contribution        =    -196.33727952 Ry

     convergence has been achieved in   7 iterations

     Writing all to output data dir ./beta-EOS/beta.save/ :
     XML data file, charge density, pseudopotentials, collected wavefunctions

     init_run     :      3.08s CPU      3.16s WALL (       1 calls)
     electrons    :     44.22s CPU     45.08s WALL (       1 calls)

     Called by init_run:
     wfcinit      :      2.15s CPU      2.18s WALL (       1 calls)
     potinit      :      0.07s CPU      0.08s WALL (       1 calls)
     hinit0       :      0.49s CPU      0.51s WALL (       1 calls)

     Called by electrons:
     c_bands      :     37.22s CPU     37.85s WALL (       8 calls)
     sum_band     :      6.44s CPU      6.53s WALL (       8 calls)
     v_of_rho     :      0.38s CPU      0.42s WALL (       8 calls)
     newd         :      0.15s CPU      0.17s WALL (       8 calls)
     mix_rho      :      0.04s CPU      0.04s WALL (       8 calls)

     Called by c_bands:
     init_us_2    :      0.67s CPU      0.70s WALL (    1037 calls)
     cegterg      :     34.59s CPU     34.94s WALL (     488 calls)

     Called by *egterg:
     cdiaghg      :      0.80s CPU      0.81s WALL (    2133 calls)
     h_psi        :     32.55s CPU     32.86s WALL (    2255 calls)
     s_psi        :      0.49s CPU      0.49s WALL (    2255 calls)
     g_psi        :      0.07s CPU      0.07s WALL (    1706 calls)

     Called by h_psi:
     h_psi:calbec :      1.06s CPU      1.07s WALL (    2255 calls)
     vloc_psi     :     30.81s CPU     31.10s WALL (    2255 calls)
     add_vuspsi   :      0.54s CPU      0.54s WALL (    2255 calls)

     General routines
     calbec       :      1.23s CPU      1.25s WALL (    2743 calls)
     fft          :      0.67s CPU      0.70s WALL (      89 calls)
     ffts         :      0.02s CPU      0.03s WALL (       8 calls)
     fftw         :     32.47s CPU     32.76s WALL (   44384 calls)

     Parallel routines

     PWSCF        :     48.33s CPU     52.13s WALL


   This run was terminated on:  20: 5:36  25Feb2026            

=------------------------------------------------------------------------------=
   JOB DONE.
=------------------------------------------------------------------------------=
