
     Program PWSCF v.7.3.1 starts on 25Feb2026 at 20: 5:38 

     This program is part of the open-source Quantum ESPRESSO suite
     for quantum simulation of materials; please cite
         "P. Giannozzi et al., J. Phys.:Condens. Matter 21 395502 (2009);
         "P. Giannozzi et al., J. Phys.:Condens. Matter 29 465901 (2017);
         "P. Giannozzi et al., J. Chem. Phys. 152 154105 (2020);
          URL http://www.quantum-espresso.org", 
     in publications or presentations arising from this work. More details at
     http://www.quantum-espresso.org/quote

     Parallel version (MPI), running on   128 processors

     MPI processes distributed on     1 nodes
     234237 MiB available memory on the printing compute node when the environment starts

     Waiting for input...
     Reading input from standard input

     Current dimensions of program PWSCF are:
     Max number of different atomic species (ntypx) = 10
     Max number of k-points (npk) =  40000
     Max angular momentum in pseudopotentials (lmaxx) =  4

     K-points division:     npool     =       4
     R & G space division:  proc/nbgrp/npool/nimage =      32
     Subspace diagonalization in iterative solution of the eigenvalue problem:
     a serial algorithm will be used


     Parallelization info
     --------------------
     sticks:   dense  smooth     PW     G-vecs:    dense   smooth      PW
     Min         258     258     73                11237    11237    1705
     Max         259     259     74                11240    11240    1708
     Sum        8281    8281   2361               359621   359621   54607

     Using Slab Decomposition



     bravais-lattice index     =            7
     lattice parameter (alat)  =      11.1082  a.u.
     unit-cell volume          =     373.9132 (a.u.)^3
     number of atoms/cell      =            2
     number of atomic types    =            1
     number of electrons       =        28.00
     number of Kohn-Sham states=           14
     kinetic-energy cutoff     =     370.0000  Ry
     charge density cutoff     =    1480.0000  Ry
     scf convergence threshold =      1.0E-07
     mixing beta               =       0.7000
     number of iterations used =            8  plain     mixing
     Exchange-correlation=  SLA  PW   GGX  GGC
                           (   1   4   2   2   0   0   0)

     celldm(1)=  11.108160  celldm(2)=   0.000000  celldm(3)=   0.545600
     celldm(4)=   0.000000  celldm(5)=   0.000000  celldm(6)=   0.000000

     crystal axes: (cart. coord. in units of alat)
               a(1) = (   0.500000  -0.500000   0.272800 )  
               a(2) = (   0.500000   0.500000   0.272800 )  
               a(3) = (  -0.500000  -0.500000   0.272800 )  

     reciprocal axes: (cart. coord. in units 2 pi/alat)
               b(1) = (  1.000000 -1.000000  0.000000 )  
               b(2) = (  0.000000  1.000000  1.832845 )  
               b(3) = ( -1.000000  0.000000  1.832845 )  


     PseudoPot. # 1 for Sn read from file:
     ./Sn.pw91-n-van.UPF
     MD5 check sum: a38d2a872edd1a4efd76c0a1a38f7031
     Pseudo is Ultrasoft + core correction, Zval = 14.0
     Generated by new atomic code, or converted to UPF format
     Using radial grid of  891 points,  6 beta functions with: 
                l(1) =   0
                l(2) =   0
                l(3) =   1
                l(4) =   1
                l(5) =   2
                l(6) =   2
     Q(r) pseudized with  8 coefficients,  rinner =    1.100   1.100   1.100
                                                       1.100   1.100

     atomic species   valence    mass     pseudopotential
     Sn               14.00   118.70000     Sn( 1.00)

     16 Sym. Ops., with inversion, found (12 have fractional translation)



   Cartesian axes

     site n.     atom                  positions (alat units)
         1        Sn     tau(   1) = (   0.0000000  -0.2500000   0.0682000  )
         2        Sn     tau(   2) = (   0.0000000   0.2500000  -0.0682000  )

     number of k points=   244

     Number of k-points >= 100: set verbosity='high' to print them.

     Dense  grid:   359621 G-vectors     FFT dimensions: ( 108, 108, 108)

     Estimated max dynamical RAM per process >      38.52 MB

     Estimated total dynamical RAM >       4.56 GB

     Initial potential from superposition of free atoms

     starting charge      27.9964, renormalised to      28.0000
     Starting wfcs are   18 randomized atomic wfcs

     total cpu time spent up to now is        3.5 secs

     per-process dynamical memory:    38.9 Mb

     Self-consistent Calculation

     iteration #  1     ecut=   370.00 Ry     beta= 0.70
     Davidson diagonalization with overlap
     ethr =  1.00E-02,  avg # of iterations =  3.0

     Threshold (ethr) on eigenvalues was too large:
     Diagonalizing with lowered threshold

     Davidson diagonalization with overlap
     ethr =  8.32E-05,  avg # of iterations =  4.5

     total cpu time spent up to now is       14.7 secs

     total energy              =    -325.44721218 Ry
     estimated scf accuracy    <       0.02860512 Ry

     iteration #  2     ecut=   370.00 Ry     beta= 0.70
     Davidson diagonalization with overlap
     ethr =  1.02E-04,  avg # of iterations =  4.8

     total cpu time spent up to now is       22.1 secs

     total energy              =    -325.56382456 Ry
     estimated scf accuracy    <       0.02388376 Ry

     iteration #  3     ecut=   370.00 Ry     beta= 0.70
     Davidson diagonalization with overlap
     ethr =  8.53E-05,  avg # of iterations =  2.0

     total cpu time spent up to now is       26.9 secs

     total energy              =    -325.58879576 Ry
     estimated scf accuracy    <       0.00547421 Ry

     iteration #  4     ecut=   370.00 Ry     beta= 0.70
     Davidson diagonalization with overlap
     ethr =  1.96E-05,  avg # of iterations =  2.1

     total cpu time spent up to now is       31.9 secs

     total energy              =    -325.59960313 Ry
     estimated scf accuracy    <       0.00102804 Ry

     iteration #  5     ecut=   370.00 Ry     beta= 0.70
     Davidson diagonalization with overlap
     ethr =  3.67E-06,  avg # of iterations =  2.8

     total cpu time spent up to now is       37.2 secs

     total energy              =    -325.59980835 Ry
     estimated scf accuracy    <       0.00000671 Ry

     iteration #  6     ecut=   370.00 Ry     beta= 0.70
     Davidson diagonalization with overlap
     ethr =  2.40E-08,  avg # of iterations =  4.5

     total cpu time spent up to now is       43.3 secs

     total energy              =    -325.59985930 Ry
     estimated scf accuracy    <       0.00000263 Ry

     iteration #  7     ecut=   370.00 Ry     beta= 0.70
     Davidson diagonalization with overlap
     ethr =  9.38E-09,  avg # of iterations =  1.2

     total cpu time spent up to now is       47.7 secs

     total energy              =    -325.59985957 Ry
     estimated scf accuracy    <       0.00000052 Ry

     iteration #  8     ecut=   370.00 Ry     beta= 0.70
     Davidson diagonalization with overlap
     ethr =  1.87E-09,  avg # of iterations =  2.7

     total cpu time spent up to now is       52.9 secs

     End of self-consistent calculation

     Number of k-points >= 100: set verbosity='high' to print the bands.

     highest occupied level (ev):    11.8516

!    total energy              =    -325.59985977 Ry
     estimated scf accuracy    <       0.00000001 Ry

     The total energy is the sum of the following terms:
     one-electron contribution =    -109.80984374 Ry
     hartree contribution      =      75.35215767 Ry
     xc contribution           =     -95.19445227 Ry
     ewald contribution        =    -195.94772143 Ry

     convergence has been achieved in   8 iterations

     Writing all to output data dir ./beta-EOS/beta.save/ :
     XML data file, charge density, pseudopotentials, collected wavefunctions

     init_run     :      3.07s CPU      3.21s WALL (       1 calls)
     electrons    :     48.53s CPU     49.49s WALL (       1 calls)

     Called by init_run:
     wfcinit      :      2.16s CPU      2.21s WALL (       1 calls)
     potinit      :      0.06s CPU      0.09s WALL (       1 calls)
     hinit0       :      0.49s CPU      0.51s WALL (       1 calls)

     Called by electrons:
     c_bands      :     40.62s CPU     41.32s WALL (       9 calls)
     sum_band     :      7.28s CPU      7.35s WALL (       9 calls)
     v_of_rho     :      0.43s CPU      0.47s WALL (       9 calls)
     newd         :      0.16s CPU      0.19s WALL (       9 calls)
     mix_rho      :      0.05s CPU      0.05s WALL (       9 calls)

     Called by c_bands:
     init_us_2    :      0.77s CPU      0.80s WALL (    1159 calls)
     cegterg      :     37.58s CPU     37.95s WALL (     549 calls)

     Called by *egterg:
     cdiaghg      :      0.85s CPU      0.86s WALL (    2290 calls)
     h_psi        :     35.29s CPU     35.64s WALL (    2412 calls)
     s_psi        :      0.53s CPU      0.53s WALL (    2412 calls)
     g_psi        :      0.07s CPU      0.07s WALL (    1802 calls)

     Called by h_psi:
     h_psi:calbec :      1.16s CPU      1.18s WALL (    2412 calls)
     vloc_psi     :     33.36s CPU     33.68s WALL (    2412 calls)
     add_vuspsi   :      0.59s CPU      0.60s WALL (    2412 calls)

     General routines
     calbec       :      1.37s CPU      1.38s WALL (    2961 calls)
     fft          :      0.67s CPU      0.73s WALL (     100 calls)
     ffts         :      0.02s CPU      0.03s WALL (       9 calls)
     fftw         :     35.40s CPU     35.72s WALL (   48332 calls)

     Parallel routines

     PWSCF        :     52.61s CPU     57.00s WALL


   This run was terminated on:  20: 6:35  25Feb2026            

=------------------------------------------------------------------------------=
   JOB DONE.
=------------------------------------------------------------------------------=
