
     Program PWSCF v.7.3.1 starts on 25Feb2026 at 20:10:55 

     This program is part of the open-source Quantum ESPRESSO suite
     for quantum simulation of materials; please cite
         "P. Giannozzi et al., J. Phys.:Condens. Matter 21 395502 (2009);
         "P. Giannozzi et al., J. Phys.:Condens. Matter 29 465901 (2017);
         "P. Giannozzi et al., J. Chem. Phys. 152 154105 (2020);
          URL http://www.quantum-espresso.org", 
     in publications or presentations arising from this work. More details at
     http://www.quantum-espresso.org/quote

     Parallel version (MPI), running on   128 processors

     MPI processes distributed on     1 nodes
     234305 MiB available memory on the printing compute node when the environment starts

     Waiting for input...
     Reading input from standard input

     Current dimensions of program PWSCF are:
     Max number of different atomic species (ntypx) = 10
     Max number of k-points (npk) =  40000
     Max angular momentum in pseudopotentials (lmaxx) =  4

     K-points division:     npool     =       4
     R & G space division:  proc/nbgrp/npool/nimage =      32
     Subspace diagonalization in iterative solution of the eigenvalue problem:
     a serial algorithm will be used


     Parallelization info
     --------------------
     sticks:   dense  smooth     PW     G-vecs:    dense   smooth      PW
     Min         263     263     74                11574    11574    1749
     Max         264     264     75                11576    11576    1753
     Sum        8443    8443   2389               370413   370413   56047

     Using Slab Decomposition



     bravais-lattice index     =            7
     lattice parameter (alat)  =      11.2184  a.u.
     unit-cell volume          =     385.1523 (a.u.)^3
     number of atoms/cell      =            2
     number of atomic types    =            1
     number of electrons       =        28.00
     number of Kohn-Sham states=           14
     kinetic-energy cutoff     =     370.0000  Ry
     charge density cutoff     =    1480.0000  Ry
     scf convergence threshold =      1.0E-07
     mixing beta               =       0.7000
     number of iterations used =            8  plain     mixing
     Exchange-correlation=  SLA  PW   GGX  GGC
                           (   1   4   2   2   0   0   0)

     celldm(1)=  11.218360  celldm(2)=   0.000000  celldm(3)=   0.545600
     celldm(4)=   0.000000  celldm(5)=   0.000000  celldm(6)=   0.000000

     crystal axes: (cart. coord. in units of alat)
               a(1) = (   0.500000  -0.500000   0.272800 )  
               a(2) = (   0.500000   0.500000   0.272800 )  
               a(3) = (  -0.500000  -0.500000   0.272800 )  

     reciprocal axes: (cart. coord. in units 2 pi/alat)
               b(1) = (  1.000000 -1.000000  0.000000 )  
               b(2) = (  0.000000  1.000000  1.832845 )  
               b(3) = ( -1.000000  0.000000  1.832845 )  


     PseudoPot. # 1 for Sn read from file:
     ./Sn.pw91-n-van.UPF
     MD5 check sum: a38d2a872edd1a4efd76c0a1a38f7031
     Pseudo is Ultrasoft + core correction, Zval = 14.0
     Generated by new atomic code, or converted to UPF format
     Using radial grid of  891 points,  6 beta functions with: 
                l(1) =   0
                l(2) =   0
                l(3) =   1
                l(4) =   1
                l(5) =   2
                l(6) =   2
     Q(r) pseudized with  8 coefficients,  rinner =    1.100   1.100   1.100
                                                       1.100   1.100

     atomic species   valence    mass     pseudopotential
     Sn               14.00   118.70000     Sn( 1.00)

     16 Sym. Ops., with inversion, found (12 have fractional translation)



   Cartesian axes

     site n.     atom                  positions (alat units)
         1        Sn     tau(   1) = (   0.0000000  -0.2500000   0.0682000  )
         2        Sn     tau(   2) = (   0.0000000   0.2500000  -0.0682000  )

     number of k points=   244

     Number of k-points >= 100: set verbosity='high' to print them.

     Dense  grid:   370413 G-vectors     FFT dimensions: ( 108, 108, 108)

     Estimated max dynamical RAM per process >      39.48 MB

     Estimated total dynamical RAM >       4.67 GB

     Initial potential from superposition of free atoms

     starting charge      27.9964, renormalised to      28.0000
     Starting wfcs are   18 randomized atomic wfcs

     total cpu time spent up to now is        3.5 secs

     per-process dynamical memory:    39.3 Mb

     Self-consistent Calculation

     iteration #  1     ecut=   370.00 Ry     beta= 0.70
     Davidson diagonalization with overlap
     ethr =  1.00E-02,  avg # of iterations =  3.0

     Threshold (ethr) on eigenvalues was too large:
     Diagonalizing with lowered threshold

     Davidson diagonalization with overlap
     ethr =  9.05E-05,  avg # of iterations =  4.4

     total cpu time spent up to now is       14.8 secs

     total energy              =    -325.44382988 Ry
     estimated scf accuracy    <       0.03077775 Ry

     iteration #  2     ecut=   370.00 Ry     beta= 0.70
     Davidson diagonalization with overlap
     ethr =  1.10E-04,  avg # of iterations =  4.8

     total cpu time spent up to now is       22.2 secs

     total energy              =    -325.56467100 Ry
     estimated scf accuracy    <       0.02553572 Ry

     iteration #  3     ecut=   370.00 Ry     beta= 0.70
     Davidson diagonalization with overlap
     ethr =  9.12E-05,  avg # of iterations =  2.0

     total cpu time spent up to now is       27.1 secs

     total energy              =    -325.58880842 Ry
     estimated scf accuracy    <       0.00578533 Ry

     iteration #  4     ecut=   370.00 Ry     beta= 0.70
     Davidson diagonalization with overlap
     ethr =  2.07E-05,  avg # of iterations =  2.1

     total cpu time spent up to now is       32.1 secs

     total energy              =    -325.60193321 Ry
     estimated scf accuracy    <       0.00133226 Ry

     iteration #  5     ecut=   370.00 Ry     beta= 0.70
     Davidson diagonalization with overlap
     ethr =  4.76E-06,  avg # of iterations =  2.8

     total cpu time spent up to now is       37.4 secs

     total energy              =    -325.60221081 Ry
     estimated scf accuracy    <       0.00001216 Ry

     iteration #  6     ecut=   370.00 Ry     beta= 0.70
     Davidson diagonalization with overlap
     ethr =  4.34E-08,  avg # of iterations =  4.4

     total cpu time spent up to now is       43.4 secs

     total energy              =    -325.60223703 Ry
     estimated scf accuracy    <       0.00000141 Ry

     iteration #  7     ecut=   370.00 Ry     beta= 0.70
     Davidson diagonalization with overlap
     ethr =  5.05E-09,  avg # of iterations =  1.9

     total cpu time spent up to now is       48.2 secs

     total energy              =    -325.60223703 Ry
     estimated scf accuracy    <       0.00000130 Ry

     iteration #  8     ecut=   370.00 Ry     beta= 0.70
     Davidson diagonalization with overlap
     ethr =  4.63E-09,  avg # of iterations =  2.7

     total cpu time spent up to now is       53.5 secs

     total energy              =    -325.60223713 Ry
     estimated scf accuracy    <       0.00000010 Ry

     iteration #  9     ecut=   370.00 Ry     beta= 0.70
     Davidson diagonalization with overlap
     ethr =  3.64E-10,  avg # of iterations =  2.7

     total cpu time spent up to now is       58.7 secs

     End of self-consistent calculation

     Number of k-points >= 100: set verbosity='high' to print the bands.

     highest occupied level (ev):    11.3511

!    total energy              =    -325.60223718 Ry
     estimated scf accuracy    <       0.00000002 Ry

     The total energy is the sum of the following terms:
     one-electron contribution =    -112.86316781 Ry
     hartree contribution      =      76.44539424 Ry
     xc contribution           =     -95.16157245 Ry
     ewald contribution        =    -194.02289116 Ry

     convergence has been achieved in   9 iterations

     Writing all to output data dir ./beta-EOS/beta.save/ :
     XML data file, charge density, pseudopotentials, collected wavefunctions

     init_run     :      3.11s CPU      3.21s WALL (       1 calls)
     electrons    :     54.28s CPU     55.26s WALL (       1 calls)

     Called by init_run:
     wfcinit      :      2.16s CPU      2.20s WALL (       1 calls)
     potinit      :      0.06s CPU      0.09s WALL (       1 calls)
     hinit0       :      0.50s CPU      0.51s WALL (       1 calls)

     Called by electrons:
     c_bands      :     45.32s CPU     46.04s WALL (      10 calls)
     sum_band     :      8.27s CPU      8.36s WALL (      10 calls)
     v_of_rho     :      0.46s CPU      0.52s WALL (      10 calls)
     newd         :      0.18s CPU      0.21s WALL (      10 calls)
     mix_rho      :      0.06s CPU      0.06s WALL (      10 calls)

     Called by c_bands:
     init_us_2    :      0.88s CPU      0.92s WALL (    1281 calls)
     cegterg      :     41.87s CPU     42.24s WALL (     610 calls)

     Called by *egterg:
     cdiaghg      :      0.94s CPU      0.95s WALL (    2564 calls)
     h_psi        :     38.95s CPU     39.32s WALL (    2686 calls)
     s_psi        :      0.59s CPU      0.60s WALL (    2686 calls)
     g_psi        :      0.08s CPU      0.08s WALL (    2015 calls)

     Called by h_psi:
     h_psi:calbec :      1.36s CPU      1.37s WALL (    2686 calls)
     vloc_psi     :     36.71s CPU     37.06s WALL (    2686 calls)
     add_vuspsi   :      0.68s CPU      0.68s WALL (    2686 calls)

     General routines
     calbec       :      1.60s CPU      1.62s WALL (    3296 calls)
     fft          :      0.70s CPU      0.76s WALL (     111 calls)
     ffts         :      0.03s CPU      0.03s WALL (      10 calls)
     fftw         :     39.05s CPU     39.41s WALL (   53100 calls)

     Parallel routines

     PWSCF        :     58.45s CPU   1m 3.40s WALL


   This run was terminated on:  20:11:58  25Feb2026            

=------------------------------------------------------------------------------=
   JOB DONE.
=------------------------------------------------------------------------------=
