
     Program PWSCF v.7.3.1 starts on 25Feb2026 at 20:12: 2 

     This program is part of the open-source Quantum ESPRESSO suite
     for quantum simulation of materials; please cite
         "P. Giannozzi et al., J. Phys.:Condens. Matter 21 395502 (2009);
         "P. Giannozzi et al., J. Phys.:Condens. Matter 29 465901 (2017);
         "P. Giannozzi et al., J. Chem. Phys. 152 154105 (2020);
          URL http://www.quantum-espresso.org", 
     in publications or presentations arising from this work. More details at
     http://www.quantum-espresso.org/quote

     Parallel version (MPI), running on   128 processors

     MPI processes distributed on     1 nodes
     234192 MiB available memory on the printing compute node when the environment starts

     Waiting for input...
     Reading input from standard input

     Current dimensions of program PWSCF are:
     Max number of different atomic species (ntypx) = 10
     Max number of k-points (npk) =  40000
     Max angular momentum in pseudopotentials (lmaxx) =  4

     K-points division:     npool     =       4
     R & G space division:  proc/nbgrp/npool/nimage =      32
     Subspace diagonalization in iterative solution of the eigenvalue problem:
     a serial algorithm will be used


     Parallelization info
     --------------------
     sticks:   dense  smooth     PW     G-vecs:    dense   smooth      PW
     Min         265     265     74                11644    11644    1756
     Max         266     266     75                11645    11645    1760
     Sum        8491    8491   2393               372613   372613   56265

     Using Slab Decomposition



     bravais-lattice index     =            7
     lattice parameter (alat)  =      11.2404  a.u.
     unit-cell volume          =     387.4268 (a.u.)^3
     number of atoms/cell      =            2
     number of atomic types    =            1
     number of electrons       =        28.00
     number of Kohn-Sham states=           14
     kinetic-energy cutoff     =     370.0000  Ry
     charge density cutoff     =    1480.0000  Ry
     scf convergence threshold =      1.0E-07
     mixing beta               =       0.7000
     number of iterations used =            8  plain     mixing
     Exchange-correlation=  SLA  PW   GGX  GGC
                           (   1   4   2   2   0   0   0)

     celldm(1)=  11.240400  celldm(2)=   0.000000  celldm(3)=   0.545600
     celldm(4)=   0.000000  celldm(5)=   0.000000  celldm(6)=   0.000000

     crystal axes: (cart. coord. in units of alat)
               a(1) = (   0.500000  -0.500000   0.272800 )  
               a(2) = (   0.500000   0.500000   0.272800 )  
               a(3) = (  -0.500000  -0.500000   0.272800 )  

     reciprocal axes: (cart. coord. in units 2 pi/alat)
               b(1) = (  1.000000 -1.000000  0.000000 )  
               b(2) = (  0.000000  1.000000  1.832845 )  
               b(3) = ( -1.000000  0.000000  1.832845 )  


     PseudoPot. # 1 for Sn read from file:
     ./Sn.pw91-n-van.UPF
     MD5 check sum: a38d2a872edd1a4efd76c0a1a38f7031
     Pseudo is Ultrasoft + core correction, Zval = 14.0
     Generated by new atomic code, or converted to UPF format
     Using radial grid of  891 points,  6 beta functions with: 
                l(1) =   0
                l(2) =   0
                l(3) =   1
                l(4) =   1
                l(5) =   2
                l(6) =   2
     Q(r) pseudized with  8 coefficients,  rinner =    1.100   1.100   1.100
                                                       1.100   1.100

     atomic species   valence    mass     pseudopotential
     Sn               14.00   118.70000     Sn( 1.00)

     16 Sym. Ops., with inversion, found (12 have fractional translation)



   Cartesian axes

     site n.     atom                  positions (alat units)
         1        Sn     tau(   1) = (   0.0000000  -0.2500000   0.0682000  )
         2        Sn     tau(   2) = (   0.0000000   0.2500000  -0.0682000  )

     number of k points=   244

     Number of k-points >= 100: set verbosity='high' to print them.

     Dense  grid:   372613 G-vectors     FFT dimensions: ( 108, 108, 108)

     Estimated max dynamical RAM per process >      39.68 MB

     Estimated total dynamical RAM >       4.69 GB

     Initial potential from superposition of free atoms

     starting charge      27.9964, renormalised to      28.0000
     Starting wfcs are   18 randomized atomic wfcs

     total cpu time spent up to now is        3.5 secs

     per-process dynamical memory:    39.6 Mb

     Self-consistent Calculation

     iteration #  1     ecut=   370.00 Ry     beta= 0.70
     Davidson diagonalization with overlap
     ethr =  1.00E-02,  avg # of iterations =  3.0

     Threshold (ethr) on eigenvalues was too large:
     Diagonalizing with lowered threshold

     Davidson diagonalization with overlap
     ethr =  9.18E-05,  avg # of iterations =  4.4

     total cpu time spent up to now is       14.8 secs

     total energy              =    -325.44309713 Ry
     estimated scf accuracy    <       0.03121681 Ry

     iteration #  2     ecut=   370.00 Ry     beta= 0.70
     Davidson diagonalization with overlap
     ethr =  1.11E-04,  avg # of iterations =  4.8

     total cpu time spent up to now is       22.3 secs

     total energy              =    -325.56473997 Ry
     estimated scf accuracy    <       0.02580389 Ry

     iteration #  3     ecut=   370.00 Ry     beta= 0.70
     Davidson diagonalization with overlap
     ethr =  9.22E-05,  avg # of iterations =  2.0

     total cpu time spent up to now is       27.1 secs

     total energy              =    -325.58879282 Ry
     estimated scf accuracy    <       0.00583633 Ry

     iteration #  4     ecut=   370.00 Ry     beta= 0.70
     Davidson diagonalization with overlap
     ethr =  2.08E-05,  avg # of iterations =  2.1

     total cpu time spent up to now is       32.1 secs

     total energy              =    -325.60226261 Ry
     estimated scf accuracy    <       0.00137750 Ry

     iteration #  5     ecut=   370.00 Ry     beta= 0.70
     Davidson diagonalization with overlap
     ethr =  4.92E-06,  avg # of iterations =  2.8

     total cpu time spent up to now is       37.5 secs

     total energy              =    -325.60255032 Ry
     estimated scf accuracy    <       0.00001148 Ry

     iteration #  6     ecut=   370.00 Ry     beta= 0.70
     Davidson diagonalization with overlap
     ethr =  4.10E-08,  avg # of iterations =  4.3

     total cpu time spent up to now is       43.5 secs

     total energy              =    -325.60257204 Ry
     estimated scf accuracy    <       0.00000144 Ry

     iteration #  7     ecut=   370.00 Ry     beta= 0.70
     Davidson diagonalization with overlap
     ethr =  5.13E-09,  avg # of iterations =  1.8

     total cpu time spent up to now is       48.2 secs

     total energy              =    -325.60257208 Ry
     estimated scf accuracy    <       0.00000134 Ry

     iteration #  8     ecut=   370.00 Ry     beta= 0.70
     Davidson diagonalization with overlap
     ethr =  4.78E-09,  avg # of iterations =  2.6

     total cpu time spent up to now is       53.5 secs

     End of self-consistent calculation

     Number of k-points >= 100: set verbosity='high' to print the bands.

     highest occupied level (ev):    11.2534

!    total energy              =    -325.60257222 Ry
     estimated scf accuracy    <       0.00000009 Ry

     The total energy is the sum of the following terms:
     one-electron contribution =    -113.46756720 Ry
     hartree contribution      =      76.66259593 Ry
     xc contribution           =     -95.15514683 Ry
     ewald contribution        =    -193.64245411 Ry

     convergence has been achieved in   8 iterations

     Writing all to output data dir ./beta-EOS/beta.save/ :
     XML data file, charge density, pseudopotentials, collected wavefunctions

     init_run     :      3.14s CPU      3.24s WALL (       1 calls)
     electrons    :     49.18s CPU     50.10s WALL (       1 calls)

     Called by init_run:
     wfcinit      :      2.18s CPU      2.22s WALL (       1 calls)
     potinit      :      0.06s CPU      0.08s WALL (       1 calls)
     hinit0       :      0.50s CPU      0.51s WALL (       1 calls)

     Called by electrons:
     c_bands      :     41.17s CPU     41.84s WALL (       9 calls)
     sum_band     :      7.37s CPU      7.47s WALL (       9 calls)
     v_of_rho     :      0.43s CPU      0.47s WALL (       9 calls)
     newd         :      0.18s CPU      0.19s WALL (       9 calls)
     mix_rho      :      0.05s CPU      0.05s WALL (       9 calls)

     Called by c_bands:
     init_us_2    :      0.78s CPU      0.82s WALL (    1159 calls)
     cegterg      :     38.20s CPU     38.58s WALL (     549 calls)

     Called by *egterg:
     cdiaghg      :      0.85s CPU      0.86s WALL (    2302 calls)
     h_psi        :     35.75s CPU     36.10s WALL (    2424 calls)
     s_psi        :      0.55s CPU      0.55s WALL (    2424 calls)
     g_psi        :      0.07s CPU      0.07s WALL (    1814 calls)

     Called by h_psi:
     h_psi:calbec :      1.19s CPU      1.21s WALL (    2424 calls)
     vloc_psi     :     33.76s CPU     34.09s WALL (    2424 calls)
     add_vuspsi   :      0.61s CPU      0.62s WALL (    2424 calls)

     General routines
     calbec       :      1.40s CPU      1.42s WALL (    2973 calls)
     fft          :      0.70s CPU      0.73s WALL (     100 calls)
     ffts         :      0.03s CPU      0.03s WALL (       9 calls)
     fftw         :     35.76s CPU     36.12s WALL (   48314 calls)

     Parallel routines

     PWSCF        :     53.36s CPU     58.08s WALL


   This run was terminated on:  20:13: 0  25Feb2026            

=------------------------------------------------------------------------------=
   JOB DONE.
=------------------------------------------------------------------------------=
