
     Program PWSCF v.7.3.1 starts on 25Feb2026 at 20:21:54 

     This program is part of the open-source Quantum ESPRESSO suite
     for quantum simulation of materials; please cite
         "P. Giannozzi et al., J. Phys.:Condens. Matter 21 395502 (2009);
         "P. Giannozzi et al., J. Phys.:Condens. Matter 29 465901 (2017);
         "P. Giannozzi et al., J. Chem. Phys. 152 154105 (2020);
          URL http://www.quantum-espresso.org", 
     in publications or presentations arising from this work. More details at
     http://www.quantum-espresso.org/quote

     Parallel version (MPI), running on   128 processors

     MPI processes distributed on     1 nodes
     233956 MiB available memory on the printing compute node when the environment starts

     Waiting for input...
     Reading input from standard input

     Current dimensions of program PWSCF are:
     Max number of different atomic species (ntypx) = 10
     Max number of k-points (npk) =  40000
     Max angular momentum in pseudopotentials (lmaxx) =  4

     K-points division:     npool     =       4
     R & G space division:  proc/nbgrp/npool/nimage =      32
     Subspace diagonalization in iterative solution of the eigenvalue problem:
     a serial algorithm will be used


     Parallelization info
     --------------------
     sticks:   dense  smooth     PW     G-vecs:    dense   smooth      PW
     Min         275     275     77                12337    12337    1857
     Max         276     276     78                12340    12340    1861
     Sum        8809    8809   2495               394823   394823   59517

     Using Slab Decomposition



     bravais-lattice index     =            7
     lattice parameter (alat)  =      11.4608  a.u.
     unit-cell volume          =     410.6664 (a.u.)^3
     number of atoms/cell      =            2
     number of atomic types    =            1
     number of electrons       =        28.00
     number of Kohn-Sham states=           14
     kinetic-energy cutoff     =     370.0000  Ry
     charge density cutoff     =    1480.0000  Ry
     scf convergence threshold =      1.0E-07
     mixing beta               =       0.7000
     number of iterations used =            8  plain     mixing
     Exchange-correlation=  SLA  PW   GGX  GGC
                           (   1   4   2   2   0   0   0)

     celldm(1)=  11.460800  celldm(2)=   0.000000  celldm(3)=   0.545600
     celldm(4)=   0.000000  celldm(5)=   0.000000  celldm(6)=   0.000000

     crystal axes: (cart. coord. in units of alat)
               a(1) = (   0.500000  -0.500000   0.272800 )  
               a(2) = (   0.500000   0.500000   0.272800 )  
               a(3) = (  -0.500000  -0.500000   0.272800 )  

     reciprocal axes: (cart. coord. in units 2 pi/alat)
               b(1) = (  1.000000 -1.000000  0.000000 )  
               b(2) = (  0.000000  1.000000  1.832845 )  
               b(3) = ( -1.000000  0.000000  1.832845 )  


     PseudoPot. # 1 for Sn read from file:
     ./Sn.pw91-n-van.UPF
     MD5 check sum: a38d2a872edd1a4efd76c0a1a38f7031
     Pseudo is Ultrasoft + core correction, Zval = 14.0
     Generated by new atomic code, or converted to UPF format
     Using radial grid of  891 points,  6 beta functions with: 
                l(1) =   0
                l(2) =   0
                l(3) =   1
                l(4) =   1
                l(5) =   2
                l(6) =   2
     Q(r) pseudized with  8 coefficients,  rinner =    1.100   1.100   1.100
                                                       1.100   1.100

     atomic species   valence    mass     pseudopotential
     Sn               14.00   118.70000     Sn( 1.00)

     16 Sym. Ops., with inversion, found (12 have fractional translation)



   Cartesian axes

     site n.     atom                  positions (alat units)
         1        Sn     tau(   1) = (   0.0000000  -0.2500000   0.0682000  )
         2        Sn     tau(   2) = (   0.0000000   0.2500000  -0.0682000  )

     number of k points=   244

     Number of k-points >= 100: set verbosity='high' to print them.

     Dense  grid:   394823 G-vectors     FFT dimensions: ( 108, 108, 108)

     Estimated max dynamical RAM per process >      41.68 MB

     Estimated total dynamical RAM >       4.93 GB

     Initial potential from superposition of free atoms

     starting charge      27.9964, renormalised to      28.0000
     Starting wfcs are   18 randomized atomic wfcs

     total cpu time spent up to now is        3.6 secs

     per-process dynamical memory:    41.1 Mb

     Self-consistent Calculation

     iteration #  1     ecut=   370.00 Ry     beta= 0.70
     Davidson diagonalization with overlap
     ethr =  1.00E-02,  avg # of iterations =  2.9

     Threshold (ethr) on eigenvalues was too large:
     Diagonalizing with lowered threshold

     Davidson diagonalization with overlap
     ethr =  9.83E-05,  avg # of iterations =  4.4

     total cpu time spent up to now is       15.2 secs

     total energy              =    -325.44413023 Ry
     estimated scf accuracy    <       0.03306418 Ry

     iteration #  2     ecut=   370.00 Ry     beta= 0.70
     Davidson diagonalization with overlap
     ethr =  1.18E-04,  avg # of iterations =  4.6

     total cpu time spent up to now is       22.8 secs

     total energy              =    -325.56300447 Ry
     estimated scf accuracy    <       0.02630158 Ry

     iteration #  3     ecut=   370.00 Ry     beta= 0.70
     Davidson diagonalization with overlap
     ethr =  9.39E-05,  avg # of iterations =  2.0

     total cpu time spent up to now is       27.9 secs

     total energy              =    -325.58694327 Ry
     estimated scf accuracy    <       0.00578642 Ry

     iteration #  4     ecut=   370.00 Ry     beta= 0.70
     Davidson diagonalization with overlap
     ethr =  2.07E-05,  avg # of iterations =  2.1

     total cpu time spent up to now is       32.9 secs

     total energy              =    -325.60324351 Ry
     estimated scf accuracy    <       0.00150101 Ry

     iteration #  5     ecut=   370.00 Ry     beta= 0.70
     Davidson diagonalization with overlap
     ethr =  5.36E-06,  avg # of iterations =  3.0

     total cpu time spent up to now is       38.5 secs

     total energy              =    -325.60358956 Ry
     estimated scf accuracy    <       0.00001912 Ry

     iteration #  6     ecut=   370.00 Ry     beta= 0.70
     Davidson diagonalization with overlap
     ethr =  6.83E-08,  avg # of iterations =  4.2

     total cpu time spent up to now is       44.6 secs

     total energy              =    -325.60363636 Ry
     estimated scf accuracy    <       0.00000038 Ry

     iteration #  7     ecut=   370.00 Ry     beta= 0.70
     Davidson diagonalization with overlap
     ethr =  1.36E-09,  avg # of iterations =  3.4

     total cpu time spent up to now is       50.4 secs

     End of self-consistent calculation

     Number of k-points >= 100: set verbosity='high' to print the bands.

     highest occupied level (ev):    10.3654

!    total energy              =    -325.60363660 Ry
     estimated scf accuracy    <       0.00000006 Ry

     The total energy is the sum of the following terms:
     one-electron contribution =    -119.40391082 Ry
     hartree contribution      =      78.81318372 Ry
     xc contribution           =     -95.09434873 Ry
     ewald contribution        =    -189.91856077 Ry

     convergence has been achieved in   7 iterations

     Writing all to output data dir ./beta-EOS/beta.save/ :
     XML data file, charge density, pseudopotentials, collected wavefunctions

     init_run     :      3.21s CPU      3.32s WALL (       1 calls)
     electrons    :     46.10s CPU     46.85s WALL (       1 calls)

     Called by init_run:
     wfcinit      :      2.22s CPU      2.25s WALL (       1 calls)
     potinit      :      0.06s CPU      0.09s WALL (       1 calls)
     hinit0       :      0.50s CPU      0.52s WALL (       1 calls)

     Called by electrons:
     c_bands      :     38.80s CPU     39.34s WALL (       8 calls)
     sum_band     :      6.73s CPU      6.81s WALL (       8 calls)
     v_of_rho     :      0.37s CPU      0.43s WALL (       8 calls)
     newd         :      0.17s CPU      0.18s WALL (       8 calls)
     mix_rho      :      0.05s CPU      0.05s WALL (       8 calls)

     Called by c_bands:
     init_us_2    :      0.77s CPU      0.79s WALL (    1037 calls)
     cegterg      :     35.63s CPU     35.90s WALL (     488 calls)

     Called by *egterg:
     cdiaghg      :      0.80s CPU      0.81s WALL (    2155 calls)
     h_psi        :     33.23s CPU     33.50s WALL (    2277 calls)
     s_psi        :      0.54s CPU      0.54s WALL (    2277 calls)
     g_psi        :      0.07s CPU      0.07s WALL (    1728 calls)

     Called by h_psi:
     h_psi:calbec :      1.24s CPU      1.25s WALL (    2277 calls)
     vloc_psi     :     31.20s CPU     31.46s WALL (    2277 calls)
     add_vuspsi   :      0.61s CPU      0.62s WALL (    2277 calls)

     General routines
     calbec       :      1.45s CPU      1.46s WALL (    2765 calls)
     fft          :      0.66s CPU      0.71s WALL (      89 calls)
     ffts         :      0.02s CPU      0.03s WALL (       8 calls)
     fftw         :     32.86s CPU     33.13s WALL (   43986 calls)

     Parallel routines

     PWSCF        :     50.40s CPU     54.90s WALL


   This run was terminated on:  20:22:48  25Feb2026            

=------------------------------------------------------------------------------=
   JOB DONE.
=------------------------------------------------------------------------------=
