
     Program PWSCF v.7.3.1 starts on 25Feb2026 at 20:22:51 

     This program is part of the open-source Quantum ESPRESSO suite
     for quantum simulation of materials; please cite
         "P. Giannozzi et al., J. Phys.:Condens. Matter 21 395502 (2009);
         "P. Giannozzi et al., J. Phys.:Condens. Matter 29 465901 (2017);
         "P. Giannozzi et al., J. Chem. Phys. 152 154105 (2020);
          URL http://www.quantum-espresso.org", 
     in publications or presentations arising from this work. More details at
     http://www.quantum-espresso.org/quote

     Parallel version (MPI), running on   128 processors

     MPI processes distributed on     1 nodes
     233990 MiB available memory on the printing compute node when the environment starts

     Waiting for input...
     Reading input from standard input

     Current dimensions of program PWSCF are:
     Max number of different atomic species (ntypx) = 10
     Max number of k-points (npk) =  40000
     Max angular momentum in pseudopotentials (lmaxx) =  4

     K-points division:     npool     =       4
     R & G space division:  proc/nbgrp/npool/nimage =      32
     Subspace diagonalization in iterative solution of the eigenvalue problem:
     a serial algorithm will be used


     Parallelization info
     --------------------
     sticks:   dense  smooth     PW     G-vecs:    dense   smooth      PW
     Min         276     276     78                12402    12402    1872
     Max         277     277     79                12404    12404    1874
     Sum        8851    8851   2515               396903   396903   59933

     Using Slab Decomposition



     bravais-lattice index     =            7
     lattice parameter (alat)  =      11.4828  a.u.
     unit-cell volume          =     413.0402 (a.u.)^3
     number of atoms/cell      =            2
     number of atomic types    =            1
     number of electrons       =        28.00
     number of Kohn-Sham states=           14
     kinetic-energy cutoff     =     370.0000  Ry
     charge density cutoff     =    1480.0000  Ry
     scf convergence threshold =      1.0E-07
     mixing beta               =       0.7000
     number of iterations used =            8  plain     mixing
     Exchange-correlation=  SLA  PW   GGX  GGC
                           (   1   4   2   2   0   0   0)

     celldm(1)=  11.482840  celldm(2)=   0.000000  celldm(3)=   0.545600
     celldm(4)=   0.000000  celldm(5)=   0.000000  celldm(6)=   0.000000

     crystal axes: (cart. coord. in units of alat)
               a(1) = (   0.500000  -0.500000   0.272800 )  
               a(2) = (   0.500000   0.500000   0.272800 )  
               a(3) = (  -0.500000  -0.500000   0.272800 )  

     reciprocal axes: (cart. coord. in units 2 pi/alat)
               b(1) = (  1.000000 -1.000000  0.000000 )  
               b(2) = (  0.000000  1.000000  1.832845 )  
               b(3) = ( -1.000000  0.000000  1.832845 )  


     PseudoPot. # 1 for Sn read from file:
     ./Sn.pw91-n-van.UPF
     MD5 check sum: a38d2a872edd1a4efd76c0a1a38f7031
     Pseudo is Ultrasoft + core correction, Zval = 14.0
     Generated by new atomic code, or converted to UPF format
     Using radial grid of  891 points,  6 beta functions with: 
                l(1) =   0
                l(2) =   0
                l(3) =   1
                l(4) =   1
                l(5) =   2
                l(6) =   2
     Q(r) pseudized with  8 coefficients,  rinner =    1.100   1.100   1.100
                                                       1.100   1.100

     atomic species   valence    mass     pseudopotential
     Sn               14.00   118.70000     Sn( 1.00)

     16 Sym. Ops., with inversion, found (12 have fractional translation)



   Cartesian axes

     site n.     atom                  positions (alat units)
         1        Sn     tau(   1) = (   0.0000000  -0.2500000   0.0682000  )
         2        Sn     tau(   2) = (   0.0000000   0.2500000  -0.0682000  )

     number of k points=   244

     Number of k-points >= 100: set verbosity='high' to print them.

     Dense  grid:   396903 G-vectors     FFT dimensions: ( 108, 108, 108)

     Estimated max dynamical RAM per process >      41.88 MB

     Estimated total dynamical RAM >       4.95 GB

     Initial potential from superposition of free atoms

     starting charge      27.9964, renormalised to      28.0000
     Starting wfcs are   18 randomized atomic wfcs

     total cpu time spent up to now is        3.6 secs

     per-process dynamical memory:    41.2 Mb

     Self-consistent Calculation

     iteration #  1     ecut=   370.00 Ry     beta= 0.70
     Davidson diagonalization with overlap
     ethr =  1.00E-02,  avg # of iterations =  2.9

     Threshold (ethr) on eigenvalues was too large:
     Diagonalizing with lowered threshold

     Davidson diagonalization with overlap
     ethr =  9.90E-05,  avg # of iterations =  4.5

     total cpu time spent up to now is       15.3 secs

     total energy              =    -325.44437880 Ry
     estimated scf accuracy    <       0.03322537 Ry

     iteration #  2     ecut=   370.00 Ry     beta= 0.70
     Davidson diagonalization with overlap
     ethr =  1.19E-04,  avg # of iterations =  4.7

     total cpu time spent up to now is       22.9 secs

     total energy              =    -325.56284254 Ry
     estimated scf accuracy    <       0.02636139 Ry

     iteration #  3     ecut=   370.00 Ry     beta= 0.70
     Davidson diagonalization with overlap
     ethr =  9.41E-05,  avg # of iterations =  2.0

     total cpu time spent up to now is       28.0 secs

     total energy              =    -325.58667326 Ry
     estimated scf accuracy    <       0.00578566 Ry

     iteration #  4     ecut=   370.00 Ry     beta= 0.70
     Davidson diagonalization with overlap
     ethr =  2.07E-05,  avg # of iterations =  2.0

     total cpu time spent up to now is       33.1 secs

     total energy              =    -325.60312441 Ry
     estimated scf accuracy    <       0.00151168 Ry

     iteration #  5     ecut=   370.00 Ry     beta= 0.70
     Davidson diagonalization with overlap
     ethr =  5.40E-06,  avg # of iterations =  2.9

     total cpu time spent up to now is       38.7 secs

     total energy              =    -325.60347647 Ry
     estimated scf accuracy    <       0.00002086 Ry

     iteration #  6     ecut=   370.00 Ry     beta= 0.70
     Davidson diagonalization with overlap
     ethr =  7.45E-08,  avg # of iterations =  4.2

     total cpu time spent up to now is       44.8 secs

     total energy              =    -325.60353105 Ry
     estimated scf accuracy    <       0.00000047 Ry

     iteration #  7     ecut=   370.00 Ry     beta= 0.70
     Davidson diagonalization with overlap
     ethr =  1.67E-09,  avg # of iterations =  3.3

     total cpu time spent up to now is       50.5 secs

     End of self-consistent calculation

     Number of k-points >= 100: set verbosity='high' to print the bands.

     highest occupied level (ev):    10.2812

!    total energy              =    -325.60353133 Ry
     estimated scf accuracy    <       0.00000005 Ry

     The total energy is the sum of the following terms:
     one-electron contribution =    -119.98681635 Ry
     hartree contribution      =      79.02589337 Ry
     xc contribution           =     -95.08857457 Ry
     ewald contribution        =    -189.55403378 Ry

     convergence has been achieved in   7 iterations

     Writing all to output data dir ./beta-EOS/beta.save/ :
     XML data file, charge density, pseudopotentials, collected wavefunctions

     init_run     :      3.22s CPU      3.33s WALL (       1 calls)
     electrons    :     46.09s CPU     47.00s WALL (       1 calls)

     Called by init_run:
     wfcinit      :      2.23s CPU      2.27s WALL (       1 calls)
     potinit      :      0.06s CPU      0.09s WALL (       1 calls)
     hinit0       :      0.49s CPU      0.51s WALL (       1 calls)

     Called by electrons:
     c_bands      :     38.71s CPU     39.44s WALL (       8 calls)
     sum_band     :      6.79s CPU      6.86s WALL (       8 calls)
     v_of_rho     :      0.39s CPU      0.43s WALL (       8 calls)
     newd         :      0.18s CPU      0.18s WALL (       8 calls)
     mix_rho      :      0.05s CPU      0.05s WALL (       8 calls)

     Called by c_bands:
     init_us_2    :      0.79s CPU      0.82s WALL (    1037 calls)
     cegterg      :     35.74s CPU     36.15s WALL (     488 calls)

     Called by *egterg:
     cdiaghg      :      0.80s CPU      0.81s WALL (    2155 calls)
     h_psi        :     33.35s CPU     33.73s WALL (    2277 calls)
     s_psi        :      0.54s CPU      0.55s WALL (    2277 calls)
     g_psi        :      0.07s CPU      0.07s WALL (    1728 calls)

     Called by h_psi:
     h_psi:calbec :      1.25s CPU      1.28s WALL (    2277 calls)
     vloc_psi     :     31.30s CPU     31.64s WALL (    2277 calls)
     add_vuspsi   :      0.61s CPU      0.62s WALL (    2277 calls)

     General routines
     calbec       :      1.47s CPU      1.50s WALL (    2765 calls)
     fft          :      0.67s CPU      0.71s WALL (      89 calls)
     ffts         :      0.02s CPU      0.03s WALL (       8 calls)
     fftw         :     32.97s CPU     33.29s WALL (   43952 calls)

     Parallel routines

     PWSCF        :     50.38s CPU     55.30s WALL


   This run was terminated on:  20:23:47  25Feb2026            

=------------------------------------------------------------------------------=
   JOB DONE.
=------------------------------------------------------------------------------=
