
     Program PWSCF v.7.3.1 starts on 25Feb2026 at 20:26:48 

     This program is part of the open-source Quantum ESPRESSO suite
     for quantum simulation of materials; please cite
         "P. Giannozzi et al., J. Phys.:Condens. Matter 21 395502 (2009);
         "P. Giannozzi et al., J. Phys.:Condens. Matter 29 465901 (2017);
         "P. Giannozzi et al., J. Chem. Phys. 152 154105 (2020);
          URL http://www.quantum-espresso.org", 
     in publications or presentations arising from this work. More details at
     http://www.quantum-espresso.org/quote

     Parallel version (MPI), running on   128 processors

     MPI processes distributed on     1 nodes
     233913 MiB available memory on the printing compute node when the environment starts

     Waiting for input...
     Reading input from standard input

     Current dimensions of program PWSCF are:
     Max number of different atomic species (ntypx) = 10
     Max number of k-points (npk) =  40000
     Max angular momentum in pseudopotentials (lmaxx) =  4

     K-points division:     npool     =       4
     R & G space division:  proc/nbgrp/npool/nimage =      32
     Subspace diagonalization in iterative solution of the eigenvalue problem:
     a serial algorithm will be used


     Parallelization info
     --------------------
     sticks:   dense  smooth     PW     G-vecs:    dense   smooth      PW
     Min         280     280     79                12698    12698    1911
     Max         281     281     80                12700    12700    1913
     Sum        8975    8975   2539               406363   406363   61181

     Using Slab Decomposition



     bravais-lattice index     =            7
     lattice parameter (alat)  =      11.5710  a.u.
     unit-cell volume          =     422.6268 (a.u.)^3
     number of atoms/cell      =            2
     number of atomic types    =            1
     number of electrons       =        28.00
     number of Kohn-Sham states=           14
     kinetic-energy cutoff     =     370.0000  Ry
     charge density cutoff     =    1480.0000  Ry
     scf convergence threshold =      1.0E-07
     mixing beta               =       0.7000
     number of iterations used =            8  plain     mixing
     Exchange-correlation=  SLA  PW   GGX  GGC
                           (   1   4   2   2   0   0   0)

     celldm(1)=  11.571000  celldm(2)=   0.000000  celldm(3)=   0.545600
     celldm(4)=   0.000000  celldm(5)=   0.000000  celldm(6)=   0.000000

     crystal axes: (cart. coord. in units of alat)
               a(1) = (   0.500000  -0.500000   0.272800 )  
               a(2) = (   0.500000   0.500000   0.272800 )  
               a(3) = (  -0.500000  -0.500000   0.272800 )  

     reciprocal axes: (cart. coord. in units 2 pi/alat)
               b(1) = (  1.000000 -1.000000  0.000000 )  
               b(2) = (  0.000000  1.000000  1.832845 )  
               b(3) = ( -1.000000  0.000000  1.832845 )  


     PseudoPot. # 1 for Sn read from file:
     ./Sn.pw91-n-van.UPF
     MD5 check sum: a38d2a872edd1a4efd76c0a1a38f7031
     Pseudo is Ultrasoft + core correction, Zval = 14.0
     Generated by new atomic code, or converted to UPF format
     Using radial grid of  891 points,  6 beta functions with: 
                l(1) =   0
                l(2) =   0
                l(3) =   1
                l(4) =   1
                l(5) =   2
                l(6) =   2
     Q(r) pseudized with  8 coefficients,  rinner =    1.100   1.100   1.100
                                                       1.100   1.100

     atomic species   valence    mass     pseudopotential
     Sn               14.00   118.70000     Sn( 1.00)

     16 Sym. Ops., with inversion, found (12 have fractional translation)



   Cartesian axes

     site n.     atom                  positions (alat units)
         1        Sn     tau(   1) = (   0.0000000  -0.2500000   0.0682000  )
         2        Sn     tau(   2) = (   0.0000000   0.2500000  -0.0682000  )

     number of k points=   244

     Number of k-points >= 100: set verbosity='high' to print them.

     Dense  grid:   406363 G-vectors     FFT dimensions: ( 108, 108, 108)

     Estimated max dynamical RAM per process >      42.71 MB

     Estimated total dynamical RAM >       5.05 GB

     Initial potential from superposition of free atoms

     starting charge      27.9964, renormalised to      28.0000
     Starting wfcs are   18 randomized atomic wfcs

     total cpu time spent up to now is        3.7 secs

     per-process dynamical memory:    41.9 Mb

     Self-consistent Calculation

     iteration #  1     ecut=   370.00 Ry     beta= 0.70
     Davidson diagonalization with overlap
     ethr =  1.00E-02,  avg # of iterations =  2.9

     Threshold (ethr) on eigenvalues was too large:
     Diagonalizing with lowered threshold

     Davidson diagonalization with overlap
     ethr =  1.00E-04,  avg # of iterations =  4.5

     total cpu time spent up to now is       15.4 secs

     total energy              =    -325.44441280 Ry
     estimated scf accuracy    <       0.03361426 Ry

     iteration #  2     ecut=   370.00 Ry     beta= 0.70
     Davidson diagonalization with overlap
     ethr =  1.20E-04,  avg # of iterations =  4.6

     total cpu time spent up to now is       23.1 secs

     total energy              =    -325.56089330 Ry
     estimated scf accuracy    <       0.02623018 Ry

     iteration #  3     ecut=   370.00 Ry     beta= 0.70
     Davidson diagonalization with overlap
     ethr =  9.37E-05,  avg # of iterations =  2.0

     total cpu time spent up to now is       28.3 secs

     total energy              =    -325.58488423 Ry
     estimated scf accuracy    <       0.00570147 Ry

     iteration #  4     ecut=   370.00 Ry     beta= 0.70
     Davidson diagonalization with overlap
     ethr =  2.04E-05,  avg # of iterations =  2.0

     total cpu time spent up to now is       33.5 secs

     total energy              =    -325.60232678 Ry
     estimated scf accuracy    <       0.00151700 Ry

     iteration #  5     ecut=   370.00 Ry     beta= 0.70
     Davidson diagonalization with overlap
     ethr =  5.42E-06,  avg # of iterations =  3.0

     total cpu time spent up to now is       39.2 secs

     total energy              =    -325.60269071 Ry
     estimated scf accuracy    <       0.00002541 Ry

     iteration #  6     ecut=   370.00 Ry     beta= 0.70
     Davidson diagonalization with overlap
     ethr =  9.08E-08,  avg # of iterations =  4.0

     total cpu time spent up to now is       45.3 secs

     total energy              =    -325.60276464 Ry
     estimated scf accuracy    <       0.00000056 Ry

     iteration #  7     ecut=   370.00 Ry     beta= 0.70
     Davidson diagonalization with overlap
     ethr =  2.00E-09,  avg # of iterations =  3.5

     total cpu time spent up to now is       51.2 secs

     End of self-consistent calculation

     Number of k-points >= 100: set verbosity='high' to print the bands.

     highest occupied level (ev):     9.9495

!    total energy              =    -325.60276508 Ry
     estimated scf accuracy    <       0.00000004 Ry

     The total energy is the sum of the following terms:
     one-electron contribution =    -122.29961222 Ry
     hartree contribution      =      79.87269256 Ry
     xc contribution           =     -95.06603286 Ry
     ewald contribution        =    -188.10981257 Ry

     convergence has been achieved in   7 iterations

     Writing all to output data dir ./beta-EOS/beta.save/ :
     XML data file, charge density, pseudopotentials, collected wavefunctions

     init_run     :      3.27s CPU      3.36s WALL (       1 calls)
     electrons    :     46.69s CPU     47.66s WALL (       1 calls)

     Called by init_run:
     wfcinit      :      2.25s CPU      2.30s WALL (       1 calls)
     potinit      :      0.07s CPU      0.08s WALL (       1 calls)
     hinit0       :      0.50s CPU      0.51s WALL (       1 calls)

     Called by electrons:
     c_bands      :     39.31s CPU     40.03s WALL (       8 calls)
     sum_band     :      6.81s CPU      6.90s WALL (       8 calls)
     v_of_rho     :      0.38s CPU      0.43s WALL (       8 calls)
     newd         :      0.18s CPU      0.19s WALL (       8 calls)
     mix_rho      :      0.04s CPU      0.05s WALL (       8 calls)

     Called by c_bands:
     init_us_2    :      0.79s CPU      0.83s WALL (    1037 calls)
     cegterg      :     36.25s CPU     36.66s WALL (     488 calls)

     Called by *egterg:
     cdiaghg      :      0.81s CPU      0.83s WALL (    2171 calls)
     h_psi        :     33.77s CPU     34.14s WALL (    2293 calls)
     s_psi        :      0.55s CPU      0.56s WALL (    2293 calls)
     g_psi        :      0.07s CPU      0.07s WALL (    1744 calls)

     Called by h_psi:
     h_psi:calbec :      1.31s CPU      1.32s WALL (    2293 calls)
     vloc_psi     :     31.65s CPU     31.99s WALL (    2293 calls)
     add_vuspsi   :      0.63s CPU      0.63s WALL (    2293 calls)

     General routines
     calbec       :      1.52s CPU      1.54s WALL (    2781 calls)
     fft          :      0.66s CPU      0.71s WALL (      89 calls)
     ffts         :      0.02s CPU      0.03s WALL (       8 calls)
     fftw         :     33.34s CPU     33.68s WALL (   43954 calls)

     Parallel routines

     PWSCF        :     51.65s CPU     56.94s WALL


   This run was terminated on:  20:27:45  25Feb2026            

=------------------------------------------------------------------------------=
   JOB DONE.
=------------------------------------------------------------------------------=
