
     Program PWSCF v.7.3.1 starts on 25Feb2026 at 20:28:50 

     This program is part of the open-source Quantum ESPRESSO suite
     for quantum simulation of materials; please cite
         "P. Giannozzi et al., J. Phys.:Condens. Matter 21 395502 (2009);
         "P. Giannozzi et al., J. Phys.:Condens. Matter 29 465901 (2017);
         "P. Giannozzi et al., J. Chem. Phys. 152 154105 (2020);
          URL http://www.quantum-espresso.org", 
     in publications or presentations arising from this work. More details at
     http://www.quantum-espresso.org/quote

     Parallel version (MPI), running on   128 processors

     MPI processes distributed on     1 nodes
     233988 MiB available memory on the printing compute node when the environment starts

     Waiting for input...
     Reading input from standard input

     Current dimensions of program PWSCF are:
     Max number of different atomic species (ntypx) = 10
     Max number of k-points (npk) =  40000
     Max angular momentum in pseudopotentials (lmaxx) =  4

     K-points division:     npool     =       4
     R & G space division:  proc/nbgrp/npool/nimage =      32
     Subspace diagonalization in iterative solution of the eigenvalue problem:
     a serial algorithm will be used


     Parallelization info
     --------------------
     sticks:   dense  smooth     PW     G-vecs:    dense   smooth      PW
     Min         282     282     79                12839    12839    1928
     Max         283     283     80                12842    12842    1932
     Sum        9031    9031   2559               410891   410891   61773

     Using Slab Decomposition



     bravais-lattice index     =            7
     lattice parameter (alat)  =      11.6151  a.u.
     unit-cell volume          =     427.4753 (a.u.)^3
     number of atoms/cell      =            2
     number of atomic types    =            1
     number of electrons       =        28.00
     number of Kohn-Sham states=           14
     kinetic-energy cutoff     =     370.0000  Ry
     charge density cutoff     =    1480.0000  Ry
     scf convergence threshold =      1.0E-07
     mixing beta               =       0.7000
     number of iterations used =            8  plain     mixing
     Exchange-correlation=  SLA  PW   GGX  GGC
                           (   1   4   2   2   0   0   0)

     celldm(1)=  11.615080  celldm(2)=   0.000000  celldm(3)=   0.545600
     celldm(4)=   0.000000  celldm(5)=   0.000000  celldm(6)=   0.000000

     crystal axes: (cart. coord. in units of alat)
               a(1) = (   0.500000  -0.500000   0.272800 )  
               a(2) = (   0.500000   0.500000   0.272800 )  
               a(3) = (  -0.500000  -0.500000   0.272800 )  

     reciprocal axes: (cart. coord. in units 2 pi/alat)
               b(1) = (  1.000000 -1.000000  0.000000 )  
               b(2) = (  0.000000  1.000000  1.832845 )  
               b(3) = ( -1.000000  0.000000  1.832845 )  


     PseudoPot. # 1 for Sn read from file:
     ./Sn.pw91-n-van.UPF
     MD5 check sum: a38d2a872edd1a4efd76c0a1a38f7031
     Pseudo is Ultrasoft + core correction, Zval = 14.0
     Generated by new atomic code, or converted to UPF format
     Using radial grid of  891 points,  6 beta functions with: 
                l(1) =   0
                l(2) =   0
                l(3) =   1
                l(4) =   1
                l(5) =   2
                l(6) =   2
     Q(r) pseudized with  8 coefficients,  rinner =    1.100   1.100   1.100
                                                       1.100   1.100

     atomic species   valence    mass     pseudopotential
     Sn               14.00   118.70000     Sn( 1.00)

     16 Sym. Ops., with inversion, found (12 have fractional translation)



   Cartesian axes

     site n.     atom                  positions (alat units)
         1        Sn     tau(   1) = (   0.0000000  -0.2500000   0.0682000  )
         2        Sn     tau(   2) = (   0.0000000   0.2500000  -0.0682000  )

     number of k points=   244

     Number of k-points >= 100: set verbosity='high' to print them.

     Dense  grid:   410891 G-vectors     FFT dimensions: ( 108, 108, 108)

     Estimated max dynamical RAM per process >      43.12 MB

     Estimated total dynamical RAM >       5.10 GB

     Initial potential from superposition of free atoms

     starting charge      27.9964, renormalised to      28.0000
     Starting wfcs are   18 randomized atomic wfcs

     total cpu time spent up to now is        3.7 secs

     per-process dynamical memory:    42.1 Mb

     Self-consistent Calculation

     iteration #  1     ecut=   370.00 Ry     beta= 0.70
     Davidson diagonalization with overlap
     ethr =  1.00E-02,  avg # of iterations =  2.9

     Threshold (ethr) on eigenvalues was too large:
     Diagonalizing with lowered threshold

     Davidson diagonalization with overlap
     ethr =  1.01E-04,  avg # of iterations =  4.5

     total cpu time spent up to now is       15.5 secs

     total energy              =    -325.44395168 Ry
     estimated scf accuracy    <       0.03389783 Ry

     iteration #  2     ecut=   370.00 Ry     beta= 0.70
     Davidson diagonalization with overlap
     ethr =  1.21E-04,  avg # of iterations =  4.6

     total cpu time spent up to now is       23.2 secs

     total energy              =    -325.55992903 Ry
     estimated scf accuracy    <       0.02625111 Ry

     iteration #  3     ecut=   370.00 Ry     beta= 0.70
     Davidson diagonalization with overlap
     ethr =  9.38E-05,  avg # of iterations =  2.0

     total cpu time spent up to now is       28.4 secs

     total energy              =    -325.58405538 Ry
     estimated scf accuracy    <       0.00565409 Ry

     iteration #  4     ecut=   370.00 Ry     beta= 0.70
     Davidson diagonalization with overlap
     ethr =  2.02E-05,  avg # of iterations =  2.0

     total cpu time spent up to now is       33.5 secs

     total energy              =    -325.60167767 Ry
     estimated scf accuracy    <       0.00149782 Ry

     iteration #  5     ecut=   370.00 Ry     beta= 0.70
     Davidson diagonalization with overlap
     ethr =  5.35E-06,  avg # of iterations =  3.0

     total cpu time spent up to now is       39.2 secs

     total energy              =    -325.60204508 Ry
     estimated scf accuracy    <       0.00002221 Ry

     iteration #  6     ecut=   370.00 Ry     beta= 0.70
     Davidson diagonalization with overlap
     ethr =  7.93E-08,  avg # of iterations =  4.0

     total cpu time spent up to now is       45.4 secs

     total energy              =    -325.60218444 Ry
     estimated scf accuracy    <       0.00000051 Ry

     iteration #  7     ecut=   370.00 Ry     beta= 0.70
     Davidson diagonalization with overlap
     ethr =  1.83E-09,  avg # of iterations =  3.5

     total cpu time spent up to now is       51.3 secs

     End of self-consistent calculation

     Number of k-points >= 100: set verbosity='high' to print the bands.

     highest occupied level (ev):     9.7865

!    total energy              =    -325.60218524 Ry
     estimated scf accuracy    <       0.00000006 Ry

     The total energy is the sum of the following terms:
     one-electron contribution =    -123.44437309 Ry
     hartree contribution      =      80.29306953 Ry
     xc contribution           =     -95.05495834 Ry
     ewald contribution        =    -187.39592334 Ry

     convergence has been achieved in   7 iterations

     Writing all to output data dir ./beta-EOS/beta.save/ :
     XML data file, charge density, pseudopotentials, collected wavefunctions

     init_run     :      3.27s CPU      3.37s WALL (       1 calls)
     electrons    :     46.86s CPU     47.73s WALL (       1 calls)

     Called by init_run:
     wfcinit      :      2.24s CPU      2.29s WALL (       1 calls)
     potinit      :      0.08s CPU      0.08s WALL (       1 calls)
     hinit0       :      0.50s CPU      0.51s WALL (       1 calls)

     Called by electrons:
     c_bands      :     39.36s CPU     40.06s WALL (       8 calls)
     sum_band     :      6.89s CPU      6.96s WALL (       8 calls)
     v_of_rho     :      0.40s CPU      0.43s WALL (       8 calls)
     newd         :      0.19s CPU      0.19s WALL (       8 calls)
     mix_rho      :      0.05s CPU      0.05s WALL (       8 calls)

     Called by c_bands:
     init_us_2    :      0.81s CPU      0.85s WALL (    1037 calls)
     cegterg      :     36.32s CPU     36.68s WALL (     488 calls)

     Called by *egterg:
     cdiaghg      :      0.81s CPU      0.82s WALL (    2156 calls)
     h_psi        :     33.77s CPU     34.12s WALL (    2278 calls)
     s_psi        :      0.56s CPU      0.56s WALL (    2278 calls)
     g_psi        :      0.08s CPU      0.08s WALL (    1729 calls)

     Called by h_psi:
     h_psi:calbec :      1.32s CPU      1.34s WALL (    2278 calls)
     vloc_psi     :     31.62s CPU     31.94s WALL (    2278 calls)
     add_vuspsi   :      0.64s CPU      0.65s WALL (    2278 calls)

     General routines
     calbec       :      1.54s CPU      1.56s WALL (    2766 calls)
     fft          :      0.68s CPU      0.72s WALL (      89 calls)
     ffts         :      0.03s CPU      0.03s WALL (       8 calls)
     fftw         :     33.23s CPU     33.56s WALL (   43936 calls)

     Parallel routines

     PWSCF        :     51.15s CPU     58.00s WALL


   This run was terminated on:  20:29:48  25Feb2026            

=------------------------------------------------------------------------------=
   JOB DONE.
=------------------------------------------------------------------------------=
