
     Program PWSCF v.7.3.1 starts on 25Feb2026 at 20:32: 1 

     This program is part of the open-source Quantum ESPRESSO suite
     for quantum simulation of materials; please cite
         "P. Giannozzi et al., J. Phys.:Condens. Matter 21 395502 (2009);
         "P. Giannozzi et al., J. Phys.:Condens. Matter 29 465901 (2017);
         "P. Giannozzi et al., J. Chem. Phys. 152 154105 (2020);
          URL http://www.quantum-espresso.org", 
     in publications or presentations arising from this work. More details at
     http://www.quantum-espresso.org/quote

     Parallel version (MPI), running on   128 processors

     MPI processes distributed on     1 nodes
     234080 MiB available memory on the printing compute node when the environment starts

     Waiting for input...
     Reading input from standard input

     Current dimensions of program PWSCF are:
     Max number of different atomic species (ntypx) = 10
     Max number of k-points (npk) =  40000
     Max angular momentum in pseudopotentials (lmaxx) =  4

     K-points division:     npool     =       4
     R & G space division:  proc/nbgrp/npool/nimage =      32
     Subspace diagonalization in iterative solution of the eigenvalue problem:
     a serial algorithm will be used


     Parallelization info
     --------------------
     sticks:   dense  smooth     PW     G-vecs:    dense   smooth      PW
     Min         286     286     80                13068    13068    1960
     Max         287     287     81                13070    13070    1962
     Sum        9163    9163   2577               418195   418195   62745

     Using Slab Decomposition



     bravais-lattice index     =            7
     lattice parameter (alat)  =      11.6812  a.u.
     unit-cell volume          =     434.8172 (a.u.)^3
     number of atoms/cell      =            2
     number of atomic types    =            1
     number of electrons       =        28.00
     number of Kohn-Sham states=           14
     kinetic-energy cutoff     =     370.0000  Ry
     charge density cutoff     =    1480.0000  Ry
     scf convergence threshold =      1.0E-07
     mixing beta               =       0.7000
     number of iterations used =            8  plain     mixing
     Exchange-correlation=  SLA  PW   GGX  GGC
                           (   1   4   2   2   0   0   0)

     celldm(1)=  11.681200  celldm(2)=   0.000000  celldm(3)=   0.545600
     celldm(4)=   0.000000  celldm(5)=   0.000000  celldm(6)=   0.000000

     crystal axes: (cart. coord. in units of alat)
               a(1) = (   0.500000  -0.500000   0.272800 )  
               a(2) = (   0.500000   0.500000   0.272800 )  
               a(3) = (  -0.500000  -0.500000   0.272800 )  

     reciprocal axes: (cart. coord. in units 2 pi/alat)
               b(1) = (  1.000000 -1.000000  0.000000 )  
               b(2) = (  0.000000  1.000000  1.832845 )  
               b(3) = ( -1.000000  0.000000  1.832845 )  


     PseudoPot. # 1 for Sn read from file:
     ./Sn.pw91-n-van.UPF
     MD5 check sum: a38d2a872edd1a4efd76c0a1a38f7031
     Pseudo is Ultrasoft + core correction, Zval = 14.0
     Generated by new atomic code, or converted to UPF format
     Using radial grid of  891 points,  6 beta functions with: 
                l(1) =   0
                l(2) =   0
                l(3) =   1
                l(4) =   1
                l(5) =   2
                l(6) =   2
     Q(r) pseudized with  8 coefficients,  rinner =    1.100   1.100   1.100
                                                       1.100   1.100

     atomic species   valence    mass     pseudopotential
     Sn               14.00   118.70000     Sn( 1.00)

     16 Sym. Ops., with inversion, found (12 have fractional translation)



   Cartesian axes

     site n.     atom                  positions (alat units)
         1        Sn     tau(   1) = (   0.0000000  -0.2500000   0.0682000  )
         2        Sn     tau(   2) = (   0.0000000   0.2500000  -0.0682000  )

     number of k points=   244

     Number of k-points >= 100: set verbosity='high' to print them.

     Dense  grid:   418195 G-vectors     FFT dimensions: ( 120, 120, 120)

     Estimated max dynamical RAM per process >      44.52 MB

     Estimated total dynamical RAM >       5.27 GB

     Initial potential from superposition of free atoms

     starting charge      27.9964, renormalised to      28.0000
     Starting wfcs are   18 randomized atomic wfcs

     total cpu time spent up to now is        4.2 secs

     per-process dynamical memory:    43.4 Mb

     Self-consistent Calculation

     iteration #  1     ecut=   370.00 Ry     beta= 0.70
     Davidson diagonalization with overlap
     ethr =  1.00E-02,  avg # of iterations =  2.8

     Threshold (ethr) on eigenvalues was too large:
     Diagonalizing with lowered threshold

     Davidson diagonalization with overlap
     ethr =  1.03E-04,  avg # of iterations =  4.5

     negative rho (up, down):  3.244E-07 0.000E+00

     total cpu time spent up to now is       16.6 secs

     total energy              =    -325.44432050 Ry
     estimated scf accuracy    <       0.03439109 Ry

     iteration #  2     ecut=   370.00 Ry     beta= 0.70
     Davidson diagonalization with overlap
     ethr =  1.23E-04,  avg # of iterations =  4.6

     total cpu time spent up to now is       24.6 secs

     total energy              =    -325.55790122 Ry
     estimated scf accuracy    <       0.02610081 Ry

     iteration #  3     ecut=   370.00 Ry     beta= 0.70
     Davidson diagonalization with overlap
     ethr =  9.32E-05,  avg # of iterations =  2.0

     total cpu time spent up to now is       30.1 secs

     total energy              =    -325.58198088 Ry
     estimated scf accuracy    <       0.00560905 Ry

     iteration #  4     ecut=   370.00 Ry     beta= 0.70
     Davidson diagonalization with overlap
     ethr =  2.00E-05,  avg # of iterations =  2.0

     total cpu time spent up to now is       35.4 secs

     total energy              =    -325.60055291 Ry
     estimated scf accuracy    <       0.00150607 Ry

     iteration #  5     ecut=   370.00 Ry     beta= 0.70
     Davidson diagonalization with overlap
     ethr =  5.38E-06,  avg # of iterations =  3.1

     total cpu time spent up to now is       41.5 secs

     total energy              =    -325.60102397 Ry
     estimated scf accuracy    <       0.00001900 Ry

     iteration #  6     ecut=   370.00 Ry     beta= 0.70
     Davidson diagonalization with overlap
     ethr =  6.79E-08,  avg # of iterations =  4.1

     total cpu time spent up to now is       48.0 secs

     total energy              =    -325.60108509 Ry
     estimated scf accuracy    <       0.00000030 Ry

     iteration #  7     ecut=   370.00 Ry     beta= 0.70
     Davidson diagonalization with overlap
     ethr =  1.08E-09,  avg # of iterations =  4.0

     total cpu time spent up to now is       55.8 secs

     End of self-consistent calculation

     Number of k-points >= 100: set verbosity='high' to print the bands.

     highest occupied level (ev):     9.5442

!    total energy              =    -325.60108593 Ry
     estimated scf accuracy    <       0.00000003 Ry

     The total energy is the sum of the following terms:
     one-electron contribution =    -125.14894979 Ry
     hartree contribution      =      80.92209724 Ry
     xc contribution           =     -95.03904168 Ry
     ewald contribution        =    -186.33519170 Ry

     convergence has been achieved in   7 iterations

     Writing all to output data dir ./beta-EOS/beta.save/ :
     XML data file, charge density, pseudopotentials, collected wavefunctions

     init_run     :      3.80s CPU      3.91s WALL (       1 calls)
     electrons    :     50.86s CPU     51.65s WALL (       1 calls)

     Called by init_run:
     wfcinit      :      2.33s CPU      2.38s WALL (       1 calls)
     potinit      :      0.08s CPU      0.10s WALL (       1 calls)
     hinit0       :      0.91s CPU      0.93s WALL (       1 calls)

     Called by electrons:
     c_bands      :     42.96s CPU     43.57s WALL (       8 calls)
     sum_band     :      7.20s CPU      7.28s WALL (       8 calls)
     v_of_rho     :      0.49s CPU      0.53s WALL (       8 calls)
     newd         :      0.18s CPU      0.19s WALL (       8 calls)
     mix_rho      :      0.05s CPU      0.05s WALL (       8 calls)

     Called by c_bands:
     init_us_2    :      0.87s CPU      0.91s WALL (    1037 calls)
     cegterg      :     39.30s CPU     39.63s WALL (     488 calls)

     Called by *egterg:
     cdiaghg      :      0.83s CPU      0.84s WALL (    2193 calls)
     h_psi        :     36.52s CPU     36.85s WALL (    2315 calls)
     s_psi        :      0.59s CPU      0.59s WALL (    2315 calls)
     g_psi        :      0.08s CPU      0.08s WALL (    1766 calls)

     Called by h_psi:
     h_psi:calbec :      1.50s CPU      1.51s WALL (    2315 calls)
     vloc_psi     :     34.12s CPU     34.43s WALL (    2315 calls)
     add_vuspsi   :      0.68s CPU      0.69s WALL (    2315 calls)

     General routines
     calbec       :      1.76s CPU      1.77s WALL (    2803 calls)
     fft          :      1.12s CPU      1.15s WALL (      89 calls)
     ffts         :      0.02s CPU      0.03s WALL (       8 calls)
     fftw         :     35.10s CPU     35.40s WALL (   45296 calls)

     Parallel routines

     PWSCF        :     55.75s CPU   1m 1.31s WALL


   This run was terminated on:  20:33: 3  25Feb2026            

=------------------------------------------------------------------------------=
   JOB DONE.
=------------------------------------------------------------------------------=
