
     Program PWSCF v.7.3.1 starts on 25Feb2026 at 20:33: 6 

     This program is part of the open-source Quantum ESPRESSO suite
     for quantum simulation of materials; please cite
         "P. Giannozzi et al., J. Phys.:Condens. Matter 21 395502 (2009);
         "P. Giannozzi et al., J. Phys.:Condens. Matter 29 465901 (2017);
         "P. Giannozzi et al., J. Chem. Phys. 152 154105 (2020);
          URL http://www.quantum-espresso.org", 
     in publications or presentations arising from this work. More details at
     http://www.quantum-espresso.org/quote

     Parallel version (MPI), running on   128 processors

     MPI processes distributed on     1 nodes
     234292 MiB available memory on the printing compute node when the environment starts

     Waiting for input...
     Reading input from standard input

     Current dimensions of program PWSCF are:
     Max number of different atomic species (ntypx) = 10
     Max number of k-points (npk) =  40000
     Max angular momentum in pseudopotentials (lmaxx) =  4

     K-points division:     npool     =       4
     R & G space division:  proc/nbgrp/npool/nimage =      32
     Subspace diagonalization in iterative solution of the eigenvalue problem:
     a serial algorithm will be used


     Parallelization info
     --------------------
     sticks:   dense  smooth     PW     G-vecs:    dense   smooth      PW
     Min         286     286     81                13134    13134    1972
     Max         287     287     82                13139    13139    1975
     Sum        9183    9183   2593               420395   420395   63145

     Using Slab Decomposition



     bravais-lattice index     =            7
     lattice parameter (alat)  =      11.7032  a.u.
     unit-cell volume          =     437.2831 (a.u.)^3
     number of atoms/cell      =            2
     number of atomic types    =            1
     number of electrons       =        28.00
     number of Kohn-Sham states=           14
     kinetic-energy cutoff     =     370.0000  Ry
     charge density cutoff     =    1480.0000  Ry
     scf convergence threshold =      1.0E-07
     mixing beta               =       0.7000
     number of iterations used =            8  plain     mixing
     Exchange-correlation=  SLA  PW   GGX  GGC
                           (   1   4   2   2   0   0   0)

     celldm(1)=  11.703240  celldm(2)=   0.000000  celldm(3)=   0.545600
     celldm(4)=   0.000000  celldm(5)=   0.000000  celldm(6)=   0.000000

     crystal axes: (cart. coord. in units of alat)
               a(1) = (   0.500000  -0.500000   0.272800 )  
               a(2) = (   0.500000   0.500000   0.272800 )  
               a(3) = (  -0.500000  -0.500000   0.272800 )  

     reciprocal axes: (cart. coord. in units 2 pi/alat)
               b(1) = (  1.000000 -1.000000  0.000000 )  
               b(2) = (  0.000000  1.000000  1.832845 )  
               b(3) = ( -1.000000  0.000000  1.832845 )  


     PseudoPot. # 1 for Sn read from file:
     ./Sn.pw91-n-van.UPF
     MD5 check sum: a38d2a872edd1a4efd76c0a1a38f7031
     Pseudo is Ultrasoft + core correction, Zval = 14.0
     Generated by new atomic code, or converted to UPF format
     Using radial grid of  891 points,  6 beta functions with: 
                l(1) =   0
                l(2) =   0
                l(3) =   1
                l(4) =   1
                l(5) =   2
                l(6) =   2
     Q(r) pseudized with  8 coefficients,  rinner =    1.100   1.100   1.100
                                                       1.100   1.100

     atomic species   valence    mass     pseudopotential
     Sn               14.00   118.70000     Sn( 1.00)

     16 Sym. Ops., with inversion, found (12 have fractional translation)



   Cartesian axes

     site n.     atom                  positions (alat units)
         1        Sn     tau(   1) = (   0.0000000  -0.2500000   0.0682000  )
         2        Sn     tau(   2) = (   0.0000000   0.2500000  -0.0682000  )

     number of k points=   244

     Number of k-points >= 100: set verbosity='high' to print them.

     Dense  grid:   420395 G-vectors     FFT dimensions: ( 120, 120, 120)

     Estimated max dynamical RAM per process >      44.72 MB

     Estimated total dynamical RAM >       5.29 GB

     Initial potential from superposition of free atoms

     starting charge      27.9964, renormalised to      28.0000
     Starting wfcs are   18 randomized atomic wfcs

     total cpu time spent up to now is        4.3 secs

     per-process dynamical memory:    43.5 Mb

     Self-consistent Calculation

     iteration #  1     ecut=   370.00 Ry     beta= 0.70
     Davidson diagonalization with overlap
     ethr =  1.00E-02,  avg # of iterations =  2.8

     Threshold (ethr) on eigenvalues was too large:
     Diagonalizing with lowered threshold

     Davidson diagonalization with overlap
     ethr =  1.02E-04,  avg # of iterations =  4.5

     negative rho (up, down):  2.037E-07 0.000E+00

     total cpu time spent up to now is       16.7 secs

     total energy              =    -325.44494916 Ry
     estimated scf accuracy    <       0.03437988 Ry

     iteration #  2     ecut=   370.00 Ry     beta= 0.70
     Davidson diagonalization with overlap
     ethr =  1.23E-04,  avg # of iterations =  4.6

     total cpu time spent up to now is       24.8 secs

     total energy              =    -325.55732320 Ry
     estimated scf accuracy    <       0.02599415 Ry

     iteration #  3     ecut=   370.00 Ry     beta= 0.70
     Davidson diagonalization with overlap
     ethr =  9.28E-05,  avg # of iterations =  2.0

     total cpu time spent up to now is       30.2 secs

     total energy              =    -325.58131459 Ry
     estimated scf accuracy    <       0.00559838 Ry

     iteration #  4     ecut=   370.00 Ry     beta= 0.70
     Davidson diagonalization with overlap
     ethr =  2.00E-05,  avg # of iterations =  2.1

     total cpu time spent up to now is       35.7 secs

     total energy              =    -325.60018986 Ry
     estimated scf accuracy    <       0.00151112 Ry

     iteration #  5     ecut=   370.00 Ry     beta= 0.70
     Davidson diagonalization with overlap
     ethr =  5.40E-06,  avg # of iterations =  3.1

     total cpu time spent up to now is       41.8 secs

     total energy              =    -325.60058769 Ry
     estimated scf accuracy    <       0.00002239 Ry

     iteration #  6     ecut=   370.00 Ry     beta= 0.70
     Davidson diagonalization with overlap
     ethr =  8.00E-08,  avg # of iterations =  4.0

     total cpu time spent up to now is       48.3 secs

     total energy              =    -325.60065960 Ry
     estimated scf accuracy    <       0.00000034 Ry

     iteration #  7     ecut=   370.00 Ry     beta= 0.70
     Davidson diagonalization with overlap
     ethr =  1.20E-09,  avg # of iterations =  4.2

     total cpu time spent up to now is       56.2 secs

     total energy              =    -325.60066090 Ry
     estimated scf accuracy    <       0.00000013 Ry

     iteration #  8     ecut=   370.00 Ry     beta= 0.70
     Davidson diagonalization with overlap
     ethr =  4.48E-10,  avg # of iterations =  2.9

     total cpu time spent up to now is       63.1 secs

     End of self-consistent calculation

     Number of k-points >= 100: set verbosity='high' to print the bands.

     highest occupied level (ev):     9.4646

!    total energy              =    -325.60066097 Ry
     estimated scf accuracy    <       0.00000005 Ry

     The total energy is the sum of the following terms:
     one-electron contribution =    -125.71229561 Ry
     hartree contribution      =      81.12942847 Ry
     xc contribution           =     -95.03351586 Ry
     ewald contribution        =    -185.98427796 Ry

     convergence has been achieved in   8 iterations

     Writing all to output data dir ./beta-EOS/beta.save/ :
     XML data file, charge density, pseudopotentials, collected wavefunctions

     init_run     :      3.82s CPU      3.94s WALL (       1 calls)
     electrons    :     58.00s CPU     58.97s WALL (       1 calls)

     Called by init_run:
     wfcinit      :      2.34s CPU      2.40s WALL (       1 calls)
     potinit      :      0.09s CPU      0.11s WALL (       1 calls)
     hinit0       :      0.90s CPU      0.92s WALL (       1 calls)

     Called by electrons:
     c_bands      :     49.04s CPU     49.77s WALL (       9 calls)
     sum_band     :      8.17s CPU      8.25s WALL (       9 calls)
     v_of_rho     :      0.56s CPU      0.59s WALL (       9 calls)
     newd         :      0.21s CPU      0.21s WALL (       9 calls)
     mix_rho      :      0.06s CPU      0.06s WALL (       9 calls)

     Called by c_bands:
     init_us_2    :      0.99s CPU      1.02s WALL (    1159 calls)
     cegterg      :     44.92s CPU     45.30s WALL (     549 calls)

     Called by *egterg:
     cdiaghg      :      0.93s CPU      0.94s WALL (    2431 calls)
     h_psi        :     41.54s CPU     41.91s WALL (    2553 calls)
     s_psi        :      0.67s CPU      0.67s WALL (    2553 calls)
     g_psi        :      0.09s CPU      0.10s WALL (    1943 calls)

     Called by h_psi:
     h_psi:calbec :      1.68s CPU      1.70s WALL (    2553 calls)
     vloc_psi     :     38.84s CPU     39.18s WALL (    2553 calls)
     add_vuspsi   :      0.78s CPU      0.79s WALL (    2553 calls)

     General routines
     calbec       :      1.97s CPU      1.99s WALL (    3102 calls)
     fft          :      1.16s CPU      1.18s WALL (     100 calls)
     ffts         :      0.03s CPU      0.03s WALL (       9 calls)
     fftw         :     39.79s CPU     40.11s WALL (   51200 calls)

     Parallel routines

     PWSCF        :   1m 3.36s CPU   1m 9.09s WALL


   This run was terminated on:  20:34:15  25Feb2026            

=------------------------------------------------------------------------------=
   JOB DONE.
=------------------------------------------------------------------------------=
