
     Program PWSCF v.7.3.1 starts on 25Feb2026 at 20:35:23 

     This program is part of the open-source Quantum ESPRESSO suite
     for quantum simulation of materials; please cite
         "P. Giannozzi et al., J. Phys.:Condens. Matter 21 395502 (2009);
         "P. Giannozzi et al., J. Phys.:Condens. Matter 29 465901 (2017);
         "P. Giannozzi et al., J. Chem. Phys. 152 154105 (2020);
          URL http://www.quantum-espresso.org", 
     in publications or presentations arising from this work. More details at
     http://www.quantum-espresso.org/quote

     Parallel version (MPI), running on   128 processors

     MPI processes distributed on     1 nodes
     234471 MiB available memory on the printing compute node when the environment starts

     Waiting for input...
     Reading input from standard input

     Current dimensions of program PWSCF are:
     Max number of different atomic species (ntypx) = 10
     Max number of k-points (npk) =  40000
     Max angular momentum in pseudopotentials (lmaxx) =  4

     K-points division:     npool     =       4
     R & G space division:  proc/nbgrp/npool/nimage =      32
     Subspace diagonalization in iterative solution of the eigenvalue problem:
     a serial algorithm will be used


     Parallelization info
     --------------------
     sticks:   dense  smooth     PW     G-vecs:    dense   smooth      PW
     Min         289     289     81                13288    13288    1991
     Max         291     291     82                13289    13289    1994
     Sum        9259    9259   2601               425227   425227   63741

     Using Slab Decomposition



     bravais-lattice index     =            7
     lattice parameter (alat)  =      11.7473  a.u.
     unit-cell volume          =     442.2428 (a.u.)^3
     number of atoms/cell      =            2
     number of atomic types    =            1
     number of electrons       =        28.00
     number of Kohn-Sham states=           14
     kinetic-energy cutoff     =     370.0000  Ry
     charge density cutoff     =    1480.0000  Ry
     scf convergence threshold =      1.0E-07
     mixing beta               =       0.7000
     number of iterations used =            8  plain     mixing
     Exchange-correlation=  SLA  PW   GGX  GGC
                           (   1   4   2   2   0   0   0)

     celldm(1)=  11.747320  celldm(2)=   0.000000  celldm(3)=   0.545600
     celldm(4)=   0.000000  celldm(5)=   0.000000  celldm(6)=   0.000000

     crystal axes: (cart. coord. in units of alat)
               a(1) = (   0.500000  -0.500000   0.272800 )  
               a(2) = (   0.500000   0.500000   0.272800 )  
               a(3) = (  -0.500000  -0.500000   0.272800 )  

     reciprocal axes: (cart. coord. in units 2 pi/alat)
               b(1) = (  1.000000 -1.000000  0.000000 )  
               b(2) = (  0.000000  1.000000  1.832845 )  
               b(3) = ( -1.000000  0.000000  1.832845 )  


     PseudoPot. # 1 for Sn read from file:
     ./Sn.pw91-n-van.UPF
     MD5 check sum: a38d2a872edd1a4efd76c0a1a38f7031
     Pseudo is Ultrasoft + core correction, Zval = 14.0
     Generated by new atomic code, or converted to UPF format
     Using radial grid of  891 points,  6 beta functions with: 
                l(1) =   0
                l(2) =   0
                l(3) =   1
                l(4) =   1
                l(5) =   2
                l(6) =   2
     Q(r) pseudized with  8 coefficients,  rinner =    1.100   1.100   1.100
                                                       1.100   1.100

     atomic species   valence    mass     pseudopotential
     Sn               14.00   118.70000     Sn( 1.00)

     16 Sym. Ops., with inversion, found (12 have fractional translation)



   Cartesian axes

     site n.     atom                  positions (alat units)
         1        Sn     tau(   1) = (   0.0000000  -0.2500000   0.0682000  )
         2        Sn     tau(   2) = (   0.0000000   0.2500000  -0.0682000  )

     number of k points=   244

     Number of k-points >= 100: set verbosity='high' to print them.

     Dense  grid:   425227 G-vectors     FFT dimensions: ( 120, 120, 120)

     Estimated max dynamical RAM per process >      45.14 MB

     Estimated total dynamical RAM >       5.34 GB

     Initial potential from superposition of free atoms

     starting charge      27.9964, renormalised to      28.0000
     Starting wfcs are   18 randomized atomic wfcs

     total cpu time spent up to now is        4.3 secs

     per-process dynamical memory:    43.9 Mb

     Self-consistent Calculation

     iteration #  1     ecut=   370.00 Ry     beta= 0.70
     Davidson diagonalization with overlap
     ethr =  1.00E-02,  avg # of iterations =  2.8

     Threshold (ethr) on eigenvalues was too large:
     Diagonalizing with lowered threshold

     Davidson diagonalization with overlap
     ethr =  1.02E-04,  avg # of iterations =  4.5

     negative rho (up, down):  3.675E-07 0.000E+00

     total cpu time spent up to now is       16.7 secs

     total energy              =    -325.44612492 Ry
     estimated scf accuracy    <       0.03439381 Ry

     iteration #  2     ecut=   370.00 Ry     beta= 0.70
     Davidson diagonalization with overlap
     ethr =  1.23E-04,  avg # of iterations =  4.5

     total cpu time spent up to now is       24.9 secs

     total energy              =    -325.55586025 Ry
     estimated scf accuracy    <       0.02547308 Ry

     iteration #  3     ecut=   370.00 Ry     beta= 0.70
     Davidson diagonalization with overlap
     ethr =  9.10E-05,  avg # of iterations =  2.0

     total cpu time spent up to now is       30.3 secs

     total energy              =    -325.57986082 Ry
     estimated scf accuracy    <       0.00543826 Ry

     iteration #  4     ecut=   370.00 Ry     beta= 0.70
     Davidson diagonalization with overlap
     ethr =  1.94E-05,  avg # of iterations =  2.1

     total cpu time spent up to now is       35.8 secs

     total energy              =    -325.59924657 Ry
     estimated scf accuracy    <       0.00147472 Ry

     iteration #  5     ecut=   370.00 Ry     beta= 0.70
     Davidson diagonalization with overlap
     ethr =  5.27E-06,  avg # of iterations =  3.1

     total cpu time spent up to now is       42.0 secs

     total energy              =    -325.59963929 Ry
     estimated scf accuracy    <       0.00002623 Ry

     iteration #  6     ecut=   370.00 Ry     beta= 0.70
     Davidson diagonalization with overlap
     ethr =  9.37E-08,  avg # of iterations =  3.8

     total cpu time spent up to now is       48.4 secs

     total energy              =    -325.59972542 Ry
     estimated scf accuracy    <       0.00000037 Ry

     iteration #  7     ecut=   370.00 Ry     beta= 0.70
     Davidson diagonalization with overlap
     ethr =  1.31E-09,  avg # of iterations =  4.4

     total cpu time spent up to now is       56.4 secs

     End of self-consistent calculation

     Number of k-points >= 100: set verbosity='high' to print the bands.

     highest occupied level (ev):     9.3051

!    total energy              =    -325.59972722 Ry
     estimated scf accuracy    <       0.00000005 Ry

     The total energy is the sum of the following terms:
     one-electron contribution =    -126.83666363 Ry
     hartree contribution      =      81.54676656 Ry
     xc contribution           =     -95.02342940 Ry
     ewald contribution        =    -185.28640075 Ry

     convergence has been achieved in   7 iterations

     Writing all to output data dir ./beta-EOS/beta.save/ :
     XML data file, charge density, pseudopotentials, collected wavefunctions

     init_run     :      3.88s CPU      4.00s WALL (       1 calls)
     electrons    :     51.37s CPU     52.29s WALL (       1 calls)

     Called by init_run:
     wfcinit      :      2.39s CPU      2.43s WALL (       1 calls)
     potinit      :      0.10s CPU      0.13s WALL (       1 calls)
     hinit0       :      0.91s CPU      0.93s WALL (       1 calls)

     Called by electrons:
     c_bands      :     43.41s CPU     44.07s WALL (       8 calls)
     sum_band     :      7.28s CPU      7.36s WALL (       8 calls)
     v_of_rho     :      0.49s CPU      0.53s WALL (       8 calls)
     newd         :      0.17s CPU      0.19s WALL (       8 calls)
     mix_rho      :      0.05s CPU      0.05s WALL (       8 calls)

     Called by c_bands:
     init_us_2    :      0.87s CPU      0.90s WALL (    1037 calls)
     cegterg      :     39.78s CPU     40.15s WALL (     488 calls)

     Called by *egterg:
     cdiaghg      :      0.82s CPU      0.83s WALL (    2190 calls)
     h_psi        :     36.98s CPU     37.32s WALL (    2312 calls)
     s_psi        :      0.60s CPU      0.60s WALL (    2312 calls)
     g_psi        :      0.08s CPU      0.08s WALL (    1763 calls)

     Called by h_psi:
     h_psi:calbec :      1.54s CPU      1.56s WALL (    2312 calls)
     vloc_psi     :     34.55s CPU     34.85s WALL (    2312 calls)
     add_vuspsi   :      0.69s CPU      0.70s WALL (    2312 calls)

     General routines
     calbec       :      1.79s CPU      1.81s WALL (    2800 calls)
     fft          :      1.11s CPU      1.16s WALL (      89 calls)
     ffts         :      0.03s CPU      0.03s WALL (       8 calls)
     fftw         :     35.44s CPU     35.74s WALL (   45290 calls)

     Parallel routines

     PWSCF        :     56.79s CPU   1m 2.30s WALL


   This run was terminated on:  20:36:25  25Feb2026            

=------------------------------------------------------------------------------=
   JOB DONE.
=------------------------------------------------------------------------------=
