
     Program PWSCF v.7.3.1 starts on 25Feb2026 at 20:36:33 

     This program is part of the open-source Quantum ESPRESSO suite
     for quantum simulation of materials; please cite
         "P. Giannozzi et al., J. Phys.:Condens. Matter 21 395502 (2009);
         "P. Giannozzi et al., J. Phys.:Condens. Matter 29 465901 (2017);
         "P. Giannozzi et al., J. Chem. Phys. 152 154105 (2020);
          URL http://www.quantum-espresso.org", 
     in publications or presentations arising from this work. More details at
     http://www.quantum-espresso.org/quote

     Parallel version (MPI), running on   128 processors

     MPI processes distributed on     1 nodes
     234598 MiB available memory on the printing compute node when the environment starts

     Waiting for input...
     Reading input from standard input

     Current dimensions of program PWSCF are:
     Max number of different atomic species (ntypx) = 10
     Max number of k-points (npk) =  40000
     Max angular momentum in pseudopotentials (lmaxx) =  4

     K-points division:     npool     =       4
     R & G space division:  proc/nbgrp/npool/nimage =      32
     Subspace diagonalization in iterative solution of the eigenvalue problem:
     a serial algorithm will be used


     Parallelization info
     --------------------
     sticks:   dense  smooth     PW     G-vecs:    dense   smooth      PW
     Min         290     290     82                13365    13365    2001
     Max         291     291     83                13367    13367    2004
     Sum        9295    9295   2625               427719   427719   64069

     Using Slab Decomposition



     bravais-lattice index     =            7
     lattice parameter (alat)  =      11.7694  a.u.
     unit-cell volume          =     444.7366 (a.u.)^3
     number of atoms/cell      =            2
     number of atomic types    =            1
     number of electrons       =        28.00
     number of Kohn-Sham states=           14
     kinetic-energy cutoff     =     370.0000  Ry
     charge density cutoff     =    1480.0000  Ry
     scf convergence threshold =      1.0E-07
     mixing beta               =       0.7000
     number of iterations used =            8  plain     mixing
     Exchange-correlation=  SLA  PW   GGX  GGC
                           (   1   4   2   2   0   0   0)

     celldm(1)=  11.769360  celldm(2)=   0.000000  celldm(3)=   0.545600
     celldm(4)=   0.000000  celldm(5)=   0.000000  celldm(6)=   0.000000

     crystal axes: (cart. coord. in units of alat)
               a(1) = (   0.500000  -0.500000   0.272800 )  
               a(2) = (   0.500000   0.500000   0.272800 )  
               a(3) = (  -0.500000  -0.500000   0.272800 )  

     reciprocal axes: (cart. coord. in units 2 pi/alat)
               b(1) = (  1.000000 -1.000000  0.000000 )  
               b(2) = (  0.000000  1.000000  1.832845 )  
               b(3) = ( -1.000000  0.000000  1.832845 )  


     PseudoPot. # 1 for Sn read from file:
     ./Sn.pw91-n-van.UPF
     MD5 check sum: a38d2a872edd1a4efd76c0a1a38f7031
     Pseudo is Ultrasoft + core correction, Zval = 14.0
     Generated by new atomic code, or converted to UPF format
     Using radial grid of  891 points,  6 beta functions with: 
                l(1) =   0
                l(2) =   0
                l(3) =   1
                l(4) =   1
                l(5) =   2
                l(6) =   2
     Q(r) pseudized with  8 coefficients,  rinner =    1.100   1.100   1.100
                                                       1.100   1.100

     atomic species   valence    mass     pseudopotential
     Sn               14.00   118.70000     Sn( 1.00)

     16 Sym. Ops., with inversion, found (12 have fractional translation)



   Cartesian axes

     site n.     atom                  positions (alat units)
         1        Sn     tau(   1) = (   0.0000000  -0.2500000   0.0682000  )
         2        Sn     tau(   2) = (   0.0000000   0.2500000  -0.0682000  )

     number of k points=   244

     Number of k-points >= 100: set verbosity='high' to print them.

     Dense  grid:   427719 G-vectors     FFT dimensions: ( 120, 120, 120)

     Estimated max dynamical RAM per process >      45.37 MB

     Estimated total dynamical RAM >       5.37 GB

     Initial potential from superposition of free atoms

     starting charge      27.9964, renormalised to      28.0000
     Starting wfcs are   18 randomized atomic wfcs

     total cpu time spent up to now is        4.3 secs

     per-process dynamical memory:    44.1 Mb

     Self-consistent Calculation

     iteration #  1     ecut=   370.00 Ry     beta= 0.70
     Davidson diagonalization with overlap
     ethr =  1.00E-02,  avg # of iterations =  2.8

     Threshold (ethr) on eigenvalues was too large:
     Diagonalizing with lowered threshold

     Davidson diagonalization with overlap
     ethr =  1.02E-04,  avg # of iterations =  4.5

     negative rho (up, down):  3.053E-07 0.000E+00

     total cpu time spent up to now is       16.8 secs

     total energy              =    -325.44714624 Ry
     estimated scf accuracy    <       0.03433534 Ry

     iteration #  2     ecut=   370.00 Ry     beta= 0.70
     Davidson diagonalization with overlap
     ethr =  1.23E-04,  avg # of iterations =  4.5

     total cpu time spent up to now is       25.0 secs

     total energy              =    -325.55542577 Ry
     estimated scf accuracy    <       0.02511331 Ry

     iteration #  3     ecut=   370.00 Ry     beta= 0.70
     Davidson diagonalization with overlap
     ethr =  8.97E-05,  avg # of iterations =  2.0

     total cpu time spent up to now is       30.5 secs

     total energy              =    -325.57940293 Ry
     estimated scf accuracy    <       0.00532440 Ry

     iteration #  4     ecut=   370.00 Ry     beta= 0.70
     Davidson diagonalization with overlap
     ethr =  1.90E-05,  avg # of iterations =  2.1

     total cpu time spent up to now is       36.0 secs

     total energy              =    -325.59874211 Ry
     estimated scf accuracy    <       0.00143393 Ry

     iteration #  5     ecut=   370.00 Ry     beta= 0.70
     Davidson diagonalization with overlap
     ethr =  5.12E-06,  avg # of iterations =  3.1

     total cpu time spent up to now is       42.2 secs

     total energy              =    -325.59913478 Ry
     estimated scf accuracy    <       0.00002388 Ry

     iteration #  6     ecut=   370.00 Ry     beta= 0.70
     Davidson diagonalization with overlap
     ethr =  8.53E-08,  avg # of iterations =  3.8

     total cpu time spent up to now is       48.7 secs

     total energy              =    -325.59921815 Ry
     estimated scf accuracy    <       0.00000033 Ry

     iteration #  7     ecut=   370.00 Ry     beta= 0.70
     Davidson diagonalization with overlap
     ethr =  1.17E-09,  avg # of iterations =  4.3

     total cpu time spent up to now is       56.7 secs

     End of self-consistent calculation

     Number of k-points >= 100: set verbosity='high' to print the bands.

     highest occupied level (ev):     9.2264

!    total energy              =    -325.59921957 Ry
     estimated scf accuracy    <       0.00000002 Ry

     The total energy is the sum of the following terms:
     one-electron contribution =    -127.39511661 Ry
     hartree contribution      =      81.75350560 Ry
     xc contribution           =     -95.01818610 Ry
     ewald contribution        =    -184.93942247 Ry

     convergence has been achieved in   7 iterations

     Writing all to output data dir ./beta-EOS/beta.save/ :
     XML data file, charge density, pseudopotentials, collected wavefunctions

     init_run     :      3.87s CPU      3.98s WALL (       1 calls)
     electrons    :     51.57s CPU     52.51s WALL (       1 calls)

     Called by init_run:
     wfcinit      :      2.37s CPU      2.41s WALL (       1 calls)
     potinit      :      0.08s CPU      0.10s WALL (       1 calls)
     hinit0       :      0.92s CPU      0.94s WALL (       1 calls)

     Called by electrons:
     c_bands      :     43.59s CPU     44.29s WALL (       8 calls)
     sum_band     :      7.28s CPU      7.41s WALL (       8 calls)
     v_of_rho     :      0.49s CPU      0.53s WALL (       8 calls)
     newd         :      0.18s CPU      0.20s WALL (       8 calls)
     mix_rho      :      0.05s CPU      0.05s WALL (       8 calls)

     Called by c_bands:
     init_us_2    :      0.87s CPU      0.91s WALL (    1037 calls)
     cegterg      :     40.10s CPU     40.48s WALL (     488 calls)

     Called by *egterg:
     cdiaghg      :      0.84s CPU      0.84s WALL (    2204 calls)
     h_psi        :     37.21s CPU     37.59s WALL (    2326 calls)
     s_psi        :      0.61s CPU      0.61s WALL (    2326 calls)
     g_psi        :      0.08s CPU      0.08s WALL (    1777 calls)

     Called by h_psi:
     h_psi:calbec :      1.54s CPU      1.56s WALL (    2326 calls)
     vloc_psi     :     34.75s CPU     35.09s WALL (    2326 calls)
     add_vuspsi   :      0.71s CPU      0.72s WALL (    2326 calls)

     General routines
     calbec       :      1.80s CPU      1.82s WALL (    2814 calls)
     fft          :      1.10s CPU      1.16s WALL (      89 calls)
     ffts         :      0.03s CPU      0.03s WALL (       8 calls)
     fftw         :     35.64s CPU     36.00s WALL (   45352 calls)

     Parallel routines

     PWSCF        :     56.62s CPU   1m 2.65s WALL


   This run was terminated on:  20:37:36  25Feb2026            

=------------------------------------------------------------------------------=
   JOB DONE.
=------------------------------------------------------------------------------=
