
     Program PWSCF v.7.3.1 starts on 25Feb2026 at 20:37:41 

     This program is part of the open-source Quantum ESPRESSO suite
     for quantum simulation of materials; please cite
         "P. Giannozzi et al., J. Phys.:Condens. Matter 21 395502 (2009);
         "P. Giannozzi et al., J. Phys.:Condens. Matter 29 465901 (2017);
         "P. Giannozzi et al., J. Chem. Phys. 152 154105 (2020);
          URL http://www.quantum-espresso.org", 
     in publications or presentations arising from this work. More details at
     http://www.quantum-espresso.org/quote

     Parallel version (MPI), running on   128 processors

     MPI processes distributed on     1 nodes
     234606 MiB available memory on the printing compute node when the environment starts

     Waiting for input...
     Reading input from standard input

     Current dimensions of program PWSCF are:
     Max number of different atomic species (ntypx) = 10
     Max number of k-points (npk) =  40000
     Max angular momentum in pseudopotentials (lmaxx) =  4

     K-points division:     npool     =       4
     R & G space division:  proc/nbgrp/npool/nimage =      32
     Subspace diagonalization in iterative solution of the eigenvalue problem:
     a serial algorithm will be used


     Parallelization info
     --------------------
     sticks:   dense  smooth     PW     G-vecs:    dense   smooth      PW
     Min         291     291     82                13436    13436    2012
     Max         292     292     83                13438    13438    2014
     Sum        9323    9323   2637               429971   429971   64413

     Using Slab Decomposition



     bravais-lattice index     =            7
     lattice parameter (alat)  =      11.7914  a.u.
     unit-cell volume          =     447.2398 (a.u.)^3
     number of atoms/cell      =            2
     number of atomic types    =            1
     number of electrons       =        28.00
     number of Kohn-Sham states=           14
     kinetic-energy cutoff     =     370.0000  Ry
     charge density cutoff     =    1480.0000  Ry
     scf convergence threshold =      1.0E-07
     mixing beta               =       0.7000
     number of iterations used =            8  plain     mixing
     Exchange-correlation=  SLA  PW   GGX  GGC
                           (   1   4   2   2   0   0   0)

     celldm(1)=  11.791400  celldm(2)=   0.000000  celldm(3)=   0.545600
     celldm(4)=   0.000000  celldm(5)=   0.000000  celldm(6)=   0.000000

     crystal axes: (cart. coord. in units of alat)
               a(1) = (   0.500000  -0.500000   0.272800 )  
               a(2) = (   0.500000   0.500000   0.272800 )  
               a(3) = (  -0.500000  -0.500000   0.272800 )  

     reciprocal axes: (cart. coord. in units 2 pi/alat)
               b(1) = (  1.000000 -1.000000  0.000000 )  
               b(2) = (  0.000000  1.000000  1.832845 )  
               b(3) = ( -1.000000  0.000000  1.832845 )  


     PseudoPot. # 1 for Sn read from file:
     ./Sn.pw91-n-van.UPF
     MD5 check sum: a38d2a872edd1a4efd76c0a1a38f7031
     Pseudo is Ultrasoft + core correction, Zval = 14.0
     Generated by new atomic code, or converted to UPF format
     Using radial grid of  891 points,  6 beta functions with: 
                l(1) =   0
                l(2) =   0
                l(3) =   1
                l(4) =   1
                l(5) =   2
                l(6) =   2
     Q(r) pseudized with  8 coefficients,  rinner =    1.100   1.100   1.100
                                                       1.100   1.100

     atomic species   valence    mass     pseudopotential
     Sn               14.00   118.70000     Sn( 1.00)

     16 Sym. Ops., with inversion, found (12 have fractional translation)



   Cartesian axes

     site n.     atom                  positions (alat units)
         1        Sn     tau(   1) = (   0.0000000  -0.2500000   0.0682000  )
         2        Sn     tau(   2) = (   0.0000000   0.2500000  -0.0682000  )

     number of k points=   244

     Number of k-points >= 100: set verbosity='high' to print them.

     Dense  grid:   429971 G-vectors     FFT dimensions: ( 120, 120, 120)

     Estimated max dynamical RAM per process >      45.58 MB

     Estimated total dynamical RAM >       5.39 GB

     Initial potential from superposition of free atoms

     starting charge      27.9964, renormalised to      28.0000
     Starting wfcs are   18 randomized atomic wfcs

     total cpu time spent up to now is        4.3 secs

     per-process dynamical memory:    44.8 Mb

     Self-consistent Calculation

     iteration #  1     ecut=   370.00 Ry     beta= 0.70
     Davidson diagonalization with overlap
     ethr =  1.00E-02,  avg # of iterations =  2.8

     Threshold (ethr) on eigenvalues was too large:
     Diagonalizing with lowered threshold

     Davidson diagonalization with overlap
     ethr =  1.02E-04,  avg # of iterations =  4.5

     negative rho (up, down):  2.061E-07 0.000E+00

     total cpu time spent up to now is       16.8 secs

     total energy              =    -325.44821186 Ry
     estimated scf accuracy    <       0.03415208 Ry

     iteration #  2     ecut=   370.00 Ry     beta= 0.70
     Davidson diagonalization with overlap
     ethr =  1.22E-04,  avg # of iterations =  4.5

     total cpu time spent up to now is       25.0 secs

     total energy              =    -325.55485081 Ry
     estimated scf accuracy    <       0.02479607 Ry

     iteration #  3     ecut=   370.00 Ry     beta= 0.70
     Davidson diagonalization with overlap
     ethr =  8.86E-05,  avg # of iterations =  2.0

     total cpu time spent up to now is       30.4 secs

     total energy              =    -325.57885495 Ry
     estimated scf accuracy    <       0.00524540 Ry

     iteration #  4     ecut=   370.00 Ry     beta= 0.70
     Davidson diagonalization with overlap
     ethr =  1.87E-05,  avg # of iterations =  2.1

     total cpu time spent up to now is       35.9 secs

     total energy              =    -325.59820638 Ry
     estimated scf accuracy    <       0.00140077 Ry

     iteration #  5     ecut=   370.00 Ry     beta= 0.70
     Davidson diagonalization with overlap
     ethr =  5.00E-06,  avg # of iterations =  3.0

     total cpu time spent up to now is       42.1 secs

     total energy              =    -325.59856990 Ry
     estimated scf accuracy    <       0.00002641 Ry

     iteration #  6     ecut=   370.00 Ry     beta= 0.70
     Davidson diagonalization with overlap
     ethr =  9.43E-08,  avg # of iterations =  3.8

     total cpu time spent up to now is       48.5 secs

     total energy              =    -325.59868456 Ry
     estimated scf accuracy    <       0.00000056 Ry

     iteration #  7     ecut=   370.00 Ry     beta= 0.70
     Davidson diagonalization with overlap
     ethr =  2.01E-09,  avg # of iterations =  3.9

     total cpu time spent up to now is       55.0 secs

     End of self-consistent calculation

     Number of k-points >= 100: set verbosity='high' to print the bands.

     highest occupied level (ev):     9.1480

!    total energy              =    -325.59868553 Ry
     estimated scf accuracy    <       0.00000004 Ry

     The total energy is the sum of the following terms:
     one-electron contribution =    -127.95190096 Ry
     hartree contribution      =      81.95997491 Ry
     xc contribution           =     -95.01301818 Ry
     ewald contribution        =    -184.59374131 Ry

     convergence has been achieved in   7 iterations

     Writing all to output data dir ./beta-EOS/beta.save/ :
     XML data file, charge density, pseudopotentials, collected wavefunctions

     init_run     :      3.82s CPU      3.98s WALL (       1 calls)
     electrons    :     49.95s CPU     50.82s WALL (       1 calls)

     Called by init_run:
     wfcinit      :      2.35s CPU      2.42s WALL (       1 calls)
     potinit      :      0.07s CPU      0.09s WALL (       1 calls)
     hinit0       :      0.91s CPU      0.93s WALL (       1 calls)

     Called by electrons:
     c_bands      :     41.88s CPU     42.51s WALL (       8 calls)
     sum_band     :      7.36s CPU      7.41s WALL (       8 calls)
     v_of_rho     :      0.49s CPU      0.53s WALL (       8 calls)
     newd         :      0.19s CPU      0.20s WALL (       8 calls)
     mix_rho      :      0.05s CPU      0.05s WALL (       8 calls)

     Called by c_bands:
     init_us_2    :      0.90s CPU      0.93s WALL (    1037 calls)
     cegterg      :     38.47s CPU     38.81s WALL (     488 calls)

     Called by *egterg:
     cdiaghg      :      0.81s CPU      0.83s WALL (    2163 calls)
     h_psi        :     35.74s CPU     36.07s WALL (    2285 calls)
     s_psi        :      0.59s CPU      0.60s WALL (    2285 calls)
     g_psi        :      0.08s CPU      0.08s WALL (    1736 calls)

     Called by h_psi:
     h_psi:calbec :      1.53s CPU      1.54s WALL (    2285 calls)
     vloc_psi     :     33.31s CPU     33.62s WALL (    2285 calls)
     add_vuspsi   :      0.70s CPU      0.70s WALL (    2285 calls)

     General routines
     calbec       :      1.80s CPU      1.81s WALL (    2773 calls)
     fft          :      1.11s CPU      1.15s WALL (      89 calls)
     ffts         :      0.03s CPU      0.03s WALL (       8 calls)
     fftw         :     34.40s CPU     34.67s WALL (   43954 calls)

     Parallel routines

     PWSCF        :     54.91s CPU   1m 0.71s WALL


   This run was terminated on:  20:38:42  25Feb2026            

=------------------------------------------------------------------------------=
   JOB DONE.
=------------------------------------------------------------------------------=
