
     Program PWSCF v.7.3.1 starts on 25Feb2026 at 20:39:57 

     This program is part of the open-source Quantum ESPRESSO suite
     for quantum simulation of materials; please cite
         "P. Giannozzi et al., J. Phys.:Condens. Matter 21 395502 (2009);
         "P. Giannozzi et al., J. Phys.:Condens. Matter 29 465901 (2017);
         "P. Giannozzi et al., J. Chem. Phys. 152 154105 (2020);
          URL http://www.quantum-espresso.org", 
     in publications or presentations arising from this work. More details at
     http://www.quantum-espresso.org/quote

     Parallel version (MPI), running on   128 processors

     MPI processes distributed on     1 nodes
     234690 MiB available memory on the printing compute node when the environment starts

     Waiting for input...
     Reading input from standard input

     Current dimensions of program PWSCF are:
     Max number of different atomic species (ntypx) = 10
     Max number of k-points (npk) =  40000
     Max angular momentum in pseudopotentials (lmaxx) =  4

     K-points division:     npool     =       4
     R & G space division:  proc/nbgrp/npool/nimage =      32
     Subspace diagonalization in iterative solution of the eigenvalue problem:
     a serial algorithm will be used


     Parallelization info
     --------------------
     sticks:   dense  smooth     PW     G-vecs:    dense   smooth      PW
     Min         293     293     82                13588    13588    2036
     Max         294     294     83                13590    13590    2039
     Sum        9387    9387   2653               434851   434851   65221

     Using Slab Decomposition



     bravais-lattice index     =            7
     lattice parameter (alat)  =      11.8355  a.u.
     unit-cell volume          =     452.2744 (a.u.)^3
     number of atoms/cell      =            2
     number of atomic types    =            1
     number of electrons       =        28.00
     number of Kohn-Sham states=           14
     kinetic-energy cutoff     =     370.0000  Ry
     charge density cutoff     =    1480.0000  Ry
     scf convergence threshold =      1.0E-07
     mixing beta               =       0.7000
     number of iterations used =            8  plain     mixing
     Exchange-correlation=  SLA  PW   GGX  GGC
                           (   1   4   2   2   0   0   0)

     celldm(1)=  11.835480  celldm(2)=   0.000000  celldm(3)=   0.545600
     celldm(4)=   0.000000  celldm(5)=   0.000000  celldm(6)=   0.000000

     crystal axes: (cart. coord. in units of alat)
               a(1) = (   0.500000  -0.500000   0.272800 )  
               a(2) = (   0.500000   0.500000   0.272800 )  
               a(3) = (  -0.500000  -0.500000   0.272800 )  

     reciprocal axes: (cart. coord. in units 2 pi/alat)
               b(1) = (  1.000000 -1.000000  0.000000 )  
               b(2) = (  0.000000  1.000000  1.832845 )  
               b(3) = ( -1.000000  0.000000  1.832845 )  


     PseudoPot. # 1 for Sn read from file:
     ./Sn.pw91-n-van.UPF
     MD5 check sum: a38d2a872edd1a4efd76c0a1a38f7031
     Pseudo is Ultrasoft + core correction, Zval = 14.0
     Generated by new atomic code, or converted to UPF format
     Using radial grid of  891 points,  6 beta functions with: 
                l(1) =   0
                l(2) =   0
                l(3) =   1
                l(4) =   1
                l(5) =   2
                l(6) =   2
     Q(r) pseudized with  8 coefficients,  rinner =    1.100   1.100   1.100
                                                       1.100   1.100

     atomic species   valence    mass     pseudopotential
     Sn               14.00   118.70000     Sn( 1.00)

     16 Sym. Ops., with inversion, found (12 have fractional translation)



   Cartesian axes

     site n.     atom                  positions (alat units)
         1        Sn     tau(   1) = (   0.0000000  -0.2500000   0.0682000  )
         2        Sn     tau(   2) = (   0.0000000   0.2500000  -0.0682000  )

     number of k points=   244

     Number of k-points >= 100: set verbosity='high' to print them.

     Dense  grid:   434851 G-vectors     FFT dimensions: ( 120, 120, 120)

     Estimated max dynamical RAM per process >      46.01 MB

     Estimated total dynamical RAM >       5.44 GB

     Initial potential from superposition of free atoms

     starting charge      27.9964, renormalised to      28.0000
     Starting wfcs are   18 randomized atomic wfcs

     total cpu time spent up to now is        4.3 secs

     per-process dynamical memory:    44.9 Mb

     Self-consistent Calculation

     iteration #  1     ecut=   370.00 Ry     beta= 0.70
     Davidson diagonalization with overlap
     ethr =  1.00E-02,  avg # of iterations =  2.8

     Threshold (ethr) on eigenvalues was too large:
     Diagonalizing with lowered threshold

     Davidson diagonalization with overlap
     ethr =  1.04E-04,  avg # of iterations =  4.5

     negative rho (up, down):  2.308E-07 0.000E+00

     total cpu time spent up to now is       16.9 secs

     total energy              =    -325.44593770 Ry
     estimated scf accuracy    <       0.03486351 Ry

     iteration #  2     ecut=   370.00 Ry     beta= 0.70
     Davidson diagonalization with overlap
     ethr =  1.25E-04,  avg # of iterations =  4.5

     total cpu time spent up to now is       25.1 secs

     total energy              =    -325.55315349 Ry
     estimated scf accuracy    <       0.02525496 Ry

     iteration #  3     ecut=   370.00 Ry     beta= 0.70
     Davidson diagonalization with overlap
     ethr =  9.02E-05,  avg # of iterations =  2.0

     total cpu time spent up to now is       30.6 secs

     total energy              =    -325.57728140 Ry
     estimated scf accuracy    <       0.00531700 Ry

     iteration #  4     ecut=   370.00 Ry     beta= 0.70
     Davidson diagonalization with overlap
     ethr =  1.90E-05,  avg # of iterations =  2.1

     total cpu time spent up to now is       36.1 secs

     total energy              =    -325.59698598 Ry
     estimated scf accuracy    <       0.00142671 Ry

     iteration #  5     ecut=   370.00 Ry     beta= 0.70
     Davidson diagonalization with overlap
     ethr =  5.10E-06,  avg # of iterations =  3.1

     total cpu time spent up to now is       42.2 secs

     total energy              =    -325.59746235 Ry
     estimated scf accuracy    <       0.00002255 Ry

     iteration #  6     ecut=   370.00 Ry     beta= 0.70
     Davidson diagonalization with overlap
     ethr =  8.05E-08,  avg # of iterations =  3.8

     total cpu time spent up to now is       48.8 secs

     total energy              =    -325.59753875 Ry
     estimated scf accuracy    <       0.00000042 Ry

     iteration #  7     ecut=   370.00 Ry     beta= 0.70
     Davidson diagonalization with overlap
     ethr =  1.48E-09,  avg # of iterations =  4.3

     total cpu time spent up to now is       56.8 secs

     total energy              =    -325.59754039 Ry
     estimated scf accuracy    <       0.00000022 Ry

     iteration #  8     ecut=   370.00 Ry     beta= 0.70
     Davidson diagonalization with overlap
     ethr =  7.99E-10,  avg # of iterations =  2.3

     total cpu time spent up to now is       62.6 secs

     End of self-consistent calculation

     Number of k-points >= 100: set verbosity='high' to print the bands.

     highest occupied level (ev):     8.9924

!    total energy              =    -325.59754062 Ry
     estimated scf accuracy    <       0.00000002 Ry

     The total energy is the sum of the following terms:
     one-electron contribution =    -129.06041153 Ry
     hartree contribution      =      82.37198923 Ry
     xc contribution           =     -95.00287698 Ry
     ewald contribution        =    -183.90624134 Ry

     convergence has been achieved in   8 iterations

     Writing all to output data dir ./beta-EOS/beta.save/ :
     XML data file, charge density, pseudopotentials, collected wavefunctions

     init_run     :      3.83s CPU      3.97s WALL (       1 calls)
     electrons    :     57.52s CPU     58.41s WALL (       1 calls)

     Called by init_run:
     wfcinit      :      2.34s CPU      2.41s WALL (       1 calls)
     potinit      :      0.09s CPU      0.11s WALL (       1 calls)
     hinit0       :      0.89s CPU      0.92s WALL (       1 calls)

     Called by electrons:
     c_bands      :     48.45s CPU     49.15s WALL (       9 calls)
     sum_band     :      8.24s CPU      8.32s WALL (       9 calls)
     v_of_rho     :      0.56s CPU      0.60s WALL (       9 calls)
     newd         :      0.21s CPU      0.22s WALL (       9 calls)
     mix_rho      :      0.06s CPU      0.07s WALL (       9 calls)

     Called by c_bands:
     init_us_2    :      1.01s CPU      1.04s WALL (    1159 calls)
     cegterg      :     44.35s CPU     44.68s WALL (     549 calls)

     Called by *egterg:
     cdiaghg      :      0.91s CPU      0.92s WALL (    2412 calls)
     h_psi        :     40.87s CPU     41.22s WALL (    2534 calls)
     s_psi        :      0.68s CPU      0.68s WALL (    2534 calls)
     g_psi        :      0.09s CPU      0.10s WALL (    1924 calls)

     Called by h_psi:
     h_psi:calbec :      1.74s CPU      1.75s WALL (    2534 calls)
     vloc_psi     :     38.10s CPU     38.42s WALL (    2534 calls)
     add_vuspsi   :      0.78s CPU      0.79s WALL (    2534 calls)

     General routines
     calbec       :      2.04s CPU      2.06s WALL (    3083 calls)
     fft          :      1.15s CPU      1.19s WALL (     100 calls)
     ffts         :      0.02s CPU      0.03s WALL (       9 calls)
     fftw         :     39.16s CPU     39.46s WALL (   50212 calls)

     Parallel routines

     PWSCF        :   1m 2.38s CPU   1m 7.83s WALL


   This run was terminated on:  20:41: 5  25Feb2026            

=------------------------------------------------------------------------------=
   JOB DONE.
=------------------------------------------------------------------------------=
