
     Program PWSCF v.7.3.1 starts on 25Feb2026 at 20:43:34 

     This program is part of the open-source Quantum ESPRESSO suite
     for quantum simulation of materials; please cite
         "P. Giannozzi et al., J. Phys.:Condens. Matter 21 395502 (2009);
         "P. Giannozzi et al., J. Phys.:Condens. Matter 29 465901 (2017);
         "P. Giannozzi et al., J. Chem. Phys. 152 154105 (2020);
          URL http://www.quantum-espresso.org", 
     in publications or presentations arising from this work. More details at
     http://www.quantum-espresso.org/quote

     Parallel version (MPI), running on   128 processors

     MPI processes distributed on     1 nodes
     234629 MiB available memory on the printing compute node when the environment starts

     Waiting for input...
     Reading input from standard input

     Current dimensions of program PWSCF are:
     Max number of different atomic species (ntypx) = 10
     Max number of k-points (npk) =  40000
     Max angular momentum in pseudopotentials (lmaxx) =  4

     K-points division:     npool     =       4
     R & G space division:  proc/nbgrp/npool/nimage =      32
     Subspace diagonalization in iterative solution of the eigenvalue problem:
     a serial algorithm will be used


     Parallelization info
     --------------------
     sticks:   dense  smooth     PW     G-vecs:    dense   smooth      PW
     Min         296     296     83                13812    13812    2066
     Max         297     297     84                13816    13816    2069
     Sum        9499    9499   2679               442059   442059   66141

     Using Slab Decomposition



     bravais-lattice index     =            7
     lattice parameter (alat)  =      11.9016  a.u.
     unit-cell volume          =     459.8968 (a.u.)^3
     number of atoms/cell      =            2
     number of atomic types    =            1
     number of electrons       =        28.00
     number of Kohn-Sham states=           14
     kinetic-energy cutoff     =     370.0000  Ry
     charge density cutoff     =    1480.0000  Ry
     scf convergence threshold =      1.0E-07
     mixing beta               =       0.7000
     number of iterations used =            8  plain     mixing
     Exchange-correlation=  SLA  PW   GGX  GGC
                           (   1   4   2   2   0   0   0)

     celldm(1)=  11.901600  celldm(2)=   0.000000  celldm(3)=   0.545600
     celldm(4)=   0.000000  celldm(5)=   0.000000  celldm(6)=   0.000000

     crystal axes: (cart. coord. in units of alat)
               a(1) = (   0.500000  -0.500000   0.272800 )  
               a(2) = (   0.500000   0.500000   0.272800 )  
               a(3) = (  -0.500000  -0.500000   0.272800 )  

     reciprocal axes: (cart. coord. in units 2 pi/alat)
               b(1) = (  1.000000 -1.000000  0.000000 )  
               b(2) = (  0.000000  1.000000  1.832845 )  
               b(3) = ( -1.000000  0.000000  1.832845 )  


     PseudoPot. # 1 for Sn read from file:
     ./Sn.pw91-n-van.UPF
     MD5 check sum: a38d2a872edd1a4efd76c0a1a38f7031
     Pseudo is Ultrasoft + core correction, Zval = 14.0
     Generated by new atomic code, or converted to UPF format
     Using radial grid of  891 points,  6 beta functions with: 
                l(1) =   0
                l(2) =   0
                l(3) =   1
                l(4) =   1
                l(5) =   2
                l(6) =   2
     Q(r) pseudized with  8 coefficients,  rinner =    1.100   1.100   1.100
                                                       1.100   1.100

     atomic species   valence    mass     pseudopotential
     Sn               14.00   118.70000     Sn( 1.00)

     16 Sym. Ops., with inversion, found (12 have fractional translation)



   Cartesian axes

     site n.     atom                  positions (alat units)
         1        Sn     tau(   1) = (   0.0000000  -0.2500000   0.0682000  )
         2        Sn     tau(   2) = (   0.0000000   0.2500000  -0.0682000  )

     number of k points=   244

     Number of k-points >= 100: set verbosity='high' to print them.

     Dense  grid:   442059 G-vectors     FFT dimensions: ( 120, 120, 120)

     Estimated max dynamical RAM per process >      46.67 MB

     Estimated total dynamical RAM >       5.52 GB

     Initial potential from superposition of free atoms

     starting charge      27.9964, renormalised to      28.0000
     Starting wfcs are   18 randomized atomic wfcs

     total cpu time spent up to now is        4.4 secs

     per-process dynamical memory:    45.0 Mb

     Self-consistent Calculation

     iteration #  1     ecut=   370.00 Ry     beta= 0.70
     Davidson diagonalization with overlap
     ethr =  1.00E-02,  avg # of iterations =  2.8

     Threshold (ethr) on eigenvalues was too large:
     Diagonalizing with lowered threshold

     Davidson diagonalization with overlap
     ethr =  1.06E-04,  avg # of iterations =  4.5

     negative rho (up, down):  2.998E-07 0.000E+00

     total cpu time spent up to now is       17.2 secs

     total energy              =    -325.44529245 Ry
     estimated scf accuracy    <       0.03522516 Ry

     iteration #  2     ecut=   370.00 Ry     beta= 0.70
     Davidson diagonalization with overlap
     ethr =  1.26E-04,  avg # of iterations =  4.5

     total cpu time spent up to now is       25.5 secs

     total energy              =    -325.55061060 Ry
     estimated scf accuracy    <       0.02512493 Ry

     iteration #  3     ecut=   370.00 Ry     beta= 0.70
     Davidson diagonalization with overlap
     ethr =  8.97E-05,  avg # of iterations =  2.0

     total cpu time spent up to now is       31.1 secs

     total energy              =    -325.57481121 Ry
     estimated scf accuracy    <       0.00524345 Ry

     iteration #  4     ecut=   370.00 Ry     beta= 0.70
     Davidson diagonalization with overlap
     ethr =  1.87E-05,  avg # of iterations =  2.1

     total cpu time spent up to now is       36.7 secs

     total energy              =    -325.59513846 Ry
     estimated scf accuracy    <       0.00142081 Ry

     iteration #  5     ecut=   370.00 Ry     beta= 0.70
     Davidson diagonalization with overlap
     ethr =  5.07E-06,  avg # of iterations =  3.2

     total cpu time spent up to now is       43.0 secs

     total energy              =    -325.59550907 Ry
     estimated scf accuracy    <       0.00003478 Ry

     iteration #  6     ecut=   370.00 Ry     beta= 0.70
     Davidson diagonalization with overlap
     ethr =  1.24E-07,  avg # of iterations =  3.5

     total cpu time spent up to now is       49.4 secs

     total energy              =    -325.59563746 Ry
     estimated scf accuracy    <       0.00000033 Ry

     iteration #  7     ecut=   370.00 Ry     beta= 0.70
     Davidson diagonalization with overlap
     ethr =  1.16E-09,  avg # of iterations =  4.9

     total cpu time spent up to now is       57.9 secs

     total energy              =    -325.59563927 Ry
     estimated scf accuracy    <       0.00000013 Ry

     iteration #  8     ecut=   370.00 Ry     beta= 0.70
     Davidson diagonalization with overlap
     ethr =  4.79E-10,  avg # of iterations =  3.0

     total cpu time spent up to now is       65.2 secs

     End of self-consistent calculation

     Number of k-points >= 100: set verbosity='high' to print the bands.

     highest occupied level (ev):     8.7628

!    total energy              =    -325.59563931 Ry
     estimated scf accuracy    <       0.00000008 Ry

     The total energy is the sum of the following terms:
     one-electron contribution =    -130.70988581 Ry
     hartree contribution      =      82.98677153 Ry
     xc contribution           =     -94.98798503 Ry
     ewald contribution        =    -182.88454000 Ry

     convergence has been achieved in   8 iterations

     Writing all to output data dir ./beta-EOS/beta.save/ :
     XML data file, charge density, pseudopotentials, collected wavefunctions

     init_run     :      3.90s CPU      4.03s WALL (       1 calls)
     electrons    :     59.94s CPU     60.93s WALL (       1 calls)

     Called by init_run:
     wfcinit      :      2.37s CPU      2.43s WALL (       1 calls)
     potinit      :      0.10s CPU      0.13s WALL (       1 calls)
     hinit0       :      0.91s CPU      0.92s WALL (       1 calls)

     Called by electrons:
     c_bands      :     50.77s CPU     51.52s WALL (       9 calls)
     sum_band     :      8.36s CPU      8.46s WALL (       9 calls)
     v_of_rho     :      0.54s CPU      0.59s WALL (       9 calls)
     newd         :      0.20s CPU      0.23s WALL (       9 calls)
     mix_rho      :      0.07s CPU      0.07s WALL (       9 calls)

     Called by c_bands:
     init_us_2    :      1.03s CPU      1.06s WALL (    1159 calls)
     cegterg      :     46.08s CPU     46.50s WALL (     549 calls)

     Called by *egterg:
     cdiaghg      :      0.94s CPU      0.96s WALL (    2467 calls)
     h_psi        :     42.37s CPU     42.77s WALL (    2589 calls)
     s_psi        :      0.72s CPU      0.72s WALL (    2589 calls)
     g_psi        :      0.10s CPU      0.10s WALL (    1979 calls)

     Called by h_psi:
     h_psi:calbec :      1.82s CPU      1.84s WALL (    2589 calls)
     vloc_psi     :     39.48s CPU     39.86s WALL (    2589 calls)
     add_vuspsi   :      0.83s CPU      0.84s WALL (    2589 calls)

     General routines
     calbec       :      2.13s CPU      2.15s WALL (    3138 calls)
     fft          :      1.14s CPU      1.19s WALL (     100 calls)
     ffts         :      0.03s CPU      0.03s WALL (       9 calls)
     fftw         :     40.53s CPU     40.91s WALL (   51448 calls)

     Parallel routines

     PWSCF        :   1m 5.27s CPU   1m10.68s WALL


   This run was terminated on:  20:44:45  25Feb2026            

=------------------------------------------------------------------------------=
   JOB DONE.
=------------------------------------------------------------------------------=
