
     Program PWSCF v.7.3.1 starts on 25Feb2026 at 20:44:49 

     This program is part of the open-source Quantum ESPRESSO suite
     for quantum simulation of materials; please cite
         "P. Giannozzi et al., J. Phys.:Condens. Matter 21 395502 (2009);
         "P. Giannozzi et al., J. Phys.:Condens. Matter 29 465901 (2017);
         "P. Giannozzi et al., J. Chem. Phys. 152 154105 (2020);
          URL http://www.quantum-espresso.org", 
     in publications or presentations arising from this work. More details at
     http://www.quantum-espresso.org/quote

     Parallel version (MPI), running on   128 processors

     MPI processes distributed on     1 nodes
     234724 MiB available memory on the printing compute node when the environment starts

     Waiting for input...
     Reading input from standard input

     Current dimensions of program PWSCF are:
     Max number of different atomic species (ntypx) = 10
     Max number of k-points (npk) =  40000
     Max angular momentum in pseudopotentials (lmaxx) =  4

     K-points division:     npool     =       4
     R & G space division:  proc/nbgrp/npool/nimage =      32
     Subspace diagonalization in iterative solution of the eigenvalue problem:
     a serial algorithm will be used


     Parallelization info
     --------------------
     sticks:   dense  smooth     PW     G-vecs:    dense   smooth      PW
     Min         297     297     84                13887    13887    2078
     Max         298     298     85                13890    13890    2079
     Sum        9535    9535   2691               444443   444443   66509

     Using Slab Decomposition



     bravais-lattice index     =            7
     lattice parameter (alat)  =      11.9236  a.u.
     unit-cell volume          =     462.4565 (a.u.)^3
     number of atoms/cell      =            2
     number of atomic types    =            1
     number of electrons       =        28.00
     number of Kohn-Sham states=           14
     kinetic-energy cutoff     =     370.0000  Ry
     charge density cutoff     =    1480.0000  Ry
     scf convergence threshold =      1.0E-07
     mixing beta               =       0.7000
     number of iterations used =            8  plain     mixing
     Exchange-correlation=  SLA  PW   GGX  GGC
                           (   1   4   2   2   0   0   0)

     celldm(1)=  11.923640  celldm(2)=   0.000000  celldm(3)=   0.545600
     celldm(4)=   0.000000  celldm(5)=   0.000000  celldm(6)=   0.000000

     crystal axes: (cart. coord. in units of alat)
               a(1) = (   0.500000  -0.500000   0.272800 )  
               a(2) = (   0.500000   0.500000   0.272800 )  
               a(3) = (  -0.500000  -0.500000   0.272800 )  

     reciprocal axes: (cart. coord. in units 2 pi/alat)
               b(1) = (  1.000000 -1.000000  0.000000 )  
               b(2) = (  0.000000  1.000000  1.832845 )  
               b(3) = ( -1.000000  0.000000  1.832845 )  


     PseudoPot. # 1 for Sn read from file:
     ./Sn.pw91-n-van.UPF
     MD5 check sum: a38d2a872edd1a4efd76c0a1a38f7031
     Pseudo is Ultrasoft + core correction, Zval = 14.0
     Generated by new atomic code, or converted to UPF format
     Using radial grid of  891 points,  6 beta functions with: 
                l(1) =   0
                l(2) =   0
                l(3) =   1
                l(4) =   1
                l(5) =   2
                l(6) =   2
     Q(r) pseudized with  8 coefficients,  rinner =    1.100   1.100   1.100
                                                       1.100   1.100

     atomic species   valence    mass     pseudopotential
     Sn               14.00   118.70000     Sn( 1.00)

     16 Sym. Ops., with inversion, found (12 have fractional translation)



   Cartesian axes

     site n.     atom                  positions (alat units)
         1        Sn     tau(   1) = (   0.0000000  -0.2500000   0.0682000  )
         2        Sn     tau(   2) = (   0.0000000   0.2500000  -0.0682000  )

     number of k points=   244

     Number of k-points >= 100: set verbosity='high' to print them.

     Dense  grid:   444443 G-vectors     FFT dimensions: ( 120, 120, 120)

     Estimated max dynamical RAM per process >      46.88 MB

     Estimated total dynamical RAM >       5.54 GB

     Initial potential from superposition of free atoms

     starting charge      27.9964, renormalised to      28.0000
     Starting wfcs are   18 randomized atomic wfcs

     total cpu time spent up to now is        4.3 secs

     per-process dynamical memory:    45.4 Mb

     Self-consistent Calculation

     iteration #  1     ecut=   370.00 Ry     beta= 0.70
     Davidson diagonalization with overlap
     ethr =  1.00E-02,  avg # of iterations =  2.8

     Threshold (ethr) on eigenvalues was too large:
     Diagonalizing with lowered threshold

     Davidson diagonalization with overlap
     ethr =  1.05E-04,  avg # of iterations =  4.6

     negative rho (up, down):  2.396E-07 0.000E+00

     total cpu time spent up to now is       17.1 secs

     total energy              =    -325.44656500 Ry
     estimated scf accuracy    <       0.03505543 Ry

     iteration #  2     ecut=   370.00 Ry     beta= 0.70
     Davidson diagonalization with overlap
     ethr =  1.25E-04,  avg # of iterations =  4.4

     total cpu time spent up to now is       25.4 secs

     total energy              =    -325.54986639 Ry
     estimated scf accuracy    <       0.02467592 Ry

     iteration #  3     ecut=   370.00 Ry     beta= 0.70
     Davidson diagonalization with overlap
     ethr =  8.81E-05,  avg # of iterations =  2.0

     total cpu time spent up to now is       30.9 secs

     total energy              =    -325.57401195 Ry
     estimated scf accuracy    <       0.00512799 Ry

     iteration #  4     ecut=   370.00 Ry     beta= 0.70
     Davidson diagonalization with overlap
     ethr =  1.83E-05,  avg # of iterations =  2.1

     total cpu time spent up to now is       36.6 secs

     total energy              =    -325.59439767 Ry
     estimated scf accuracy    <       0.00138254 Ry

     iteration #  5     ecut=   370.00 Ry     beta= 0.70
     Davidson diagonalization with overlap
     ethr =  4.94E-06,  avg # of iterations =  3.2

     total cpu time spent up to now is       42.9 secs

     total energy              =    -325.59485520 Ry
     estimated scf accuracy    <       0.00003024 Ry

     iteration #  6     ecut=   370.00 Ry     beta= 0.70
     Davidson diagonalization with overlap
     ethr =  1.08E-07,  avg # of iterations =  3.6

     total cpu time spent up to now is       49.3 secs

     total energy              =    -325.59495649 Ry
     estimated scf accuracy    <       0.00000037 Ry

     iteration #  7     ecut=   370.00 Ry     beta= 0.70
     Davidson diagonalization with overlap
     ethr =  1.32E-09,  avg # of iterations =  4.7

     total cpu time spent up to now is       57.7 secs

     total energy              =    -325.59495840 Ry
     estimated scf accuracy    <       0.00000023 Ry

     iteration #  8     ecut=   370.00 Ry     beta= 0.70
     Davidson diagonalization with overlap
     ethr =  8.26E-10,  avg # of iterations =  2.2

     total cpu time spent up to now is       63.5 secs

     End of self-consistent calculation

     Number of k-points >= 100: set verbosity='high' to print the bands.

     highest occupied level (ev):     8.6870

!    total energy              =    -325.59495866 Ry
     estimated scf accuracy    <       0.00000003 Ry

     The total energy is the sum of the following terms:
     one-electron contribution =    -131.25695622 Ry
     hartree contribution      =      83.19177901 Ry
     xc contribution           =     -94.98329051 Ry
     ewald contribution        =    -182.54649094 Ry

     convergence has been achieved in   8 iterations

     Writing all to output data dir ./beta-EOS/beta.save/ :
     XML data file, charge density, pseudopotentials, collected wavefunctions

     init_run     :      3.90s CPU      4.03s WALL (       1 calls)
     electrons    :     58.38s CPU     59.30s WALL (       1 calls)

     Called by init_run:
     wfcinit      :      2.39s CPU      2.44s WALL (       1 calls)
     potinit      :      0.08s CPU      0.10s WALL (       1 calls)
     hinit0       :      0.90s CPU      0.92s WALL (       1 calls)

     Called by electrons:
     c_bands      :     49.18s CPU     49.85s WALL (       9 calls)
     sum_band     :      8.38s CPU      8.46s WALL (       9 calls)
     v_of_rho     :      0.55s CPU      0.59s WALL (       9 calls)
     newd         :      0.22s CPU      0.22s WALL (       9 calls)
     mix_rho      :      0.06s CPU      0.07s WALL (       9 calls)

     Called by c_bands:
     init_us_2    :      1.03s CPU      1.07s WALL (    1159 calls)
     cegterg      :     45.22s CPU     45.55s WALL (     549 calls)

     Called by *egterg:
     cdiaghg      :      0.91s CPU      0.92s WALL (    2405 calls)
     h_psi        :     41.68s CPU     42.00s WALL (    2527 calls)
     s_psi        :      0.69s CPU      0.70s WALL (    2527 calls)
     g_psi        :      0.10s CPU      0.10s WALL (    1917 calls)

     Called by h_psi:
     h_psi:calbec :      1.80s CPU      1.82s WALL (    2527 calls)
     vloc_psi     :     38.82s CPU     39.11s WALL (    2527 calls)
     add_vuspsi   :      0.82s CPU      0.83s WALL (    2527 calls)

     General routines
     calbec       :      2.12s CPU      2.14s WALL (    3076 calls)
     fft          :      1.13s CPU      1.18s WALL (     100 calls)
     ffts         :      0.03s CPU      0.03s WALL (       9 calls)
     fftw         :     39.84s CPU     40.11s WALL (   50250 calls)

     Parallel routines

     PWSCF        :   1m 3.47s CPU   1m 9.17s WALL


   This run was terminated on:  20:45:58  25Feb2026            

=------------------------------------------------------------------------------=
   JOB DONE.
=------------------------------------------------------------------------------=
