
     Program PWSCF v.7.3.1 starts on 25Feb2026 at 20:47:13 

     This program is part of the open-source Quantum ESPRESSO suite
     for quantum simulation of materials; please cite
         "P. Giannozzi et al., J. Phys.:Condens. Matter 21 395502 (2009);
         "P. Giannozzi et al., J. Phys.:Condens. Matter 29 465901 (2017);
         "P. Giannozzi et al., J. Chem. Phys. 152 154105 (2020);
          URL http://www.quantum-espresso.org", 
     in publications or presentations arising from this work. More details at
     http://www.quantum-espresso.org/quote

     Parallel version (MPI), running on   128 processors

     MPI processes distributed on     1 nodes
     234700 MiB available memory on the printing compute node when the environment starts

     Waiting for input...
     Reading input from standard input

     Current dimensions of program PWSCF are:
     Max number of different atomic species (ntypx) = 10
     Max number of k-points (npk) =  40000
     Max angular momentum in pseudopotentials (lmaxx) =  4

     K-points division:     npool     =       4
     R & G space division:  proc/nbgrp/npool/nimage =      32
     Subspace diagonalization in iterative solution of the eigenvalue problem:
     a serial algorithm will be used


     Parallelization info
     --------------------
     sticks:   dense  smooth     PW     G-vecs:    dense   smooth      PW
     Min         300     300     84                14051    14051    2100
     Max         301     301     85                14054    14054    2103
     Sum        9615    9615   2711               449667   449667   67261

     Using Slab Decomposition



     bravais-lattice index     =            7
     lattice parameter (alat)  =      11.9677  a.u.
     unit-cell volume          =     467.6044 (a.u.)^3
     number of atoms/cell      =            2
     number of atomic types    =            1
     number of electrons       =        28.00
     number of Kohn-Sham states=           14
     kinetic-energy cutoff     =     370.0000  Ry
     charge density cutoff     =    1480.0000  Ry
     scf convergence threshold =      1.0E-07
     mixing beta               =       0.7000
     number of iterations used =            8  plain     mixing
     Exchange-correlation=  SLA  PW   GGX  GGC
                           (   1   4   2   2   0   0   0)

     celldm(1)=  11.967720  celldm(2)=   0.000000  celldm(3)=   0.545600
     celldm(4)=   0.000000  celldm(5)=   0.000000  celldm(6)=   0.000000

     crystal axes: (cart. coord. in units of alat)
               a(1) = (   0.500000  -0.500000   0.272800 )  
               a(2) = (   0.500000   0.500000   0.272800 )  
               a(3) = (  -0.500000  -0.500000   0.272800 )  

     reciprocal axes: (cart. coord. in units 2 pi/alat)
               b(1) = (  1.000000 -1.000000  0.000000 )  
               b(2) = (  0.000000  1.000000  1.832845 )  
               b(3) = ( -1.000000  0.000000  1.832845 )  


     PseudoPot. # 1 for Sn read from file:
     ./Sn.pw91-n-van.UPF
     MD5 check sum: a38d2a872edd1a4efd76c0a1a38f7031
     Pseudo is Ultrasoft + core correction, Zval = 14.0
     Generated by new atomic code, or converted to UPF format
     Using radial grid of  891 points,  6 beta functions with: 
                l(1) =   0
                l(2) =   0
                l(3) =   1
                l(4) =   1
                l(5) =   2
                l(6) =   2
     Q(r) pseudized with  8 coefficients,  rinner =    1.100   1.100   1.100
                                                       1.100   1.100

     atomic species   valence    mass     pseudopotential
     Sn               14.00   118.70000     Sn( 1.00)

     16 Sym. Ops., with inversion, found (12 have fractional translation)



   Cartesian axes

     site n.     atom                  positions (alat units)
         1        Sn     tau(   1) = (   0.0000000  -0.2500000   0.0682000  )
         2        Sn     tau(   2) = (   0.0000000   0.2500000  -0.0682000  )

     number of k points=   244

     Number of k-points >= 100: set verbosity='high' to print them.

     Dense  grid:   449667 G-vectors     FFT dimensions: ( 120, 120, 120)

     Estimated max dynamical RAM per process >      47.34 MB

     Estimated total dynamical RAM >       5.60 GB

     Initial potential from superposition of free atoms

     starting charge      27.9964, renormalised to      28.0000
     Starting wfcs are   18 randomized atomic wfcs

     total cpu time spent up to now is        4.3 secs

     per-process dynamical memory:    46.1 Mb

     Self-consistent Calculation

     iteration #  1     ecut=   370.00 Ry     beta= 0.70
     Davidson diagonalization with overlap
     ethr =  1.00E-02,  avg # of iterations =  2.7

     Threshold (ethr) on eigenvalues was too large:
     Diagonalizing with lowered threshold

     Davidson diagonalization with overlap
     ethr =  1.04E-04,  avg # of iterations =  4.5

     negative rho (up, down):  5.309E-07 0.000E+00

     total cpu time spent up to now is       17.1 secs

     total energy              =    -325.44939362 Ry
     estimated scf accuracy    <       0.03465699 Ry

     iteration #  2     ecut=   370.00 Ry     beta= 0.70
     Davidson diagonalization with overlap
     ethr =  1.24E-04,  avg # of iterations =  4.4

     total cpu time spent up to now is       25.4 secs

     total energy              =    -325.54790562 Ry
     estimated scf accuracy    <       0.02386039 Ry

     iteration #  3     ecut=   370.00 Ry     beta= 0.70
     Davidson diagonalization with overlap
     ethr =  8.52E-05,  avg # of iterations =  2.0

     total cpu time spent up to now is       30.9 secs

     total energy              =    -325.57222758 Ry
     estimated scf accuracy    <       0.00494843 Ry

     iteration #  4     ecut=   370.00 Ry     beta= 0.70
     Davidson diagonalization with overlap
     ethr =  1.77E-05,  avg # of iterations =  2.1

     total cpu time spent up to now is       36.5 secs

     total energy              =    -325.59293746 Ry
     estimated scf accuracy    <       0.00131227 Ry

     iteration #  5     ecut=   370.00 Ry     beta= 0.70
     Davidson diagonalization with overlap
     ethr =  4.69E-06,  avg # of iterations =  3.2

     total cpu time spent up to now is       42.9 secs

     total energy              =    -325.59344281 Ry
     estimated scf accuracy    <       0.00002176 Ry

     iteration #  6     ecut=   370.00 Ry     beta= 0.70
     Davidson diagonalization with overlap
     ethr =  7.77E-08,  avg # of iterations =  3.8

     total cpu time spent up to now is       49.5 secs

     total energy              =    -325.59352874 Ry
     estimated scf accuracy    <       0.00000081 Ry

     iteration #  7     ecut=   370.00 Ry     beta= 0.70
     Davidson diagonalization with overlap
     ethr =  2.88E-09,  avg # of iterations =  3.9

     total cpu time spent up to now is       57.5 secs

     total energy              =    -325.59352988 Ry
     estimated scf accuracy    <       0.00000049 Ry

     iteration #  8     ecut=   370.00 Ry     beta= 0.70
     Davidson diagonalization with overlap
     ethr =  1.74E-09,  avg # of iterations =  2.1

     total cpu time spent up to now is       63.2 secs

     End of self-consistent calculation

     Number of k-points >= 100: set verbosity='high' to print the bands.

     highest occupied level (ev):     8.5373

!    total energy              =    -325.59353021 Ry
     estimated scf accuracy    <          9.1E-09 Ry

     The total energy is the sum of the following terms:
     one-electron contribution =    -132.34510959 Ry
     hartree contribution      =      83.59952588 Ry
     xc contribution           =     -94.97381832 Ry
     ewald contribution        =    -181.87412817 Ry

     convergence has been achieved in   8 iterations

     Writing all to output data dir ./beta-EOS/beta.save/ :
     XML data file, charge density, pseudopotentials, collected wavefunctions

     init_run     :      3.93s CPU      4.04s WALL (       1 calls)
     electrons    :     57.97s CPU     59.02s WALL (       1 calls)

     Called by init_run:
     wfcinit      :      2.40s CPU      2.44s WALL (       1 calls)
     potinit      :      0.07s CPU      0.10s WALL (       1 calls)
     hinit0       :      0.91s CPU      0.93s WALL (       1 calls)

     Called by electrons:
     c_bands      :     48.80s CPU     49.55s WALL (       9 calls)
     sum_band     :      8.36s CPU      8.44s WALL (       9 calls)
     v_of_rho     :      0.54s CPU      0.60s WALL (       9 calls)
     newd         :      0.22s CPU      0.23s WALL (       9 calls)
     mix_rho      :      0.07s CPU      0.07s WALL (       9 calls)

     Called by c_bands:
     init_us_2    :      1.04s CPU      1.08s WALL (    1159 calls)
     cegterg      :     44.86s CPU     45.24s WALL (     549 calls)

     Called by *egterg:
     cdiaghg      :      0.89s CPU      0.90s WALL (    2350 calls)
     h_psi        :     41.37s CPU     41.72s WALL (    2472 calls)
     s_psi        :      0.69s CPU      0.70s WALL (    2472 calls)
     g_psi        :      0.10s CPU      0.10s WALL (    1862 calls)

     Called by h_psi:
     h_psi:calbec :      1.81s CPU      1.83s WALL (    2472 calls)
     vloc_psi     :     38.50s CPU     38.82s WALL (    2472 calls)
     add_vuspsi   :      0.82s CPU      0.82s WALL (    2472 calls)

     General routines
     calbec       :      2.12s CPU      2.15s WALL (    3021 calls)
     fft          :      1.13s CPU      1.20s WALL (     100 calls)
     ffts         :      0.03s CPU      0.03s WALL (       9 calls)
     fftw         :     39.65s CPU     39.97s WALL (   50024 calls)

     Parallel routines

     PWSCF        :   1m 3.05s CPU   1m10.41s WALL


   This run was terminated on:  20:48:23  25Feb2026            

=------------------------------------------------------------------------------=
   JOB DONE.
=------------------------------------------------------------------------------=
