
     Program PWSCF v.7.3.1 starts on 25Feb2026 at 19:21:33 

     This program is part of the open-source Quantum ESPRESSO suite
     for quantum simulation of materials; please cite
         "P. Giannozzi et al., J. Phys.:Condens. Matter 21 395502 (2009);
         "P. Giannozzi et al., J. Phys.:Condens. Matter 29 465901 (2017);
         "P. Giannozzi et al., J. Chem. Phys. 152 154105 (2020);
          URL http://www.quantum-espresso.org", 
     in publications or presentations arising from this work. More details at
     http://www.quantum-espresso.org/quote

     Parallel version (MPI), running on   128 processors

     MPI processes distributed on     1 nodes
     242205 MiB available memory on the printing compute node when the environment starts

     Waiting for input...
     Reading input from standard input

     Current dimensions of program PWSCF are:
     Max number of different atomic species (ntypx) = 10
     Max number of k-points (npk) =  40000
     Max angular momentum in pseudopotentials (lmaxx) =  4

     K-points division:     npool     =       4
     R & G space division:  proc/nbgrp/npool/nimage =      32
     Subspace diagonalization in iterative solution of the eigenvalue problem:
     a serial algorithm will be used


     Parallelization info
     --------------------
     sticks:   dense  smooth     PW     G-vecs:    dense   smooth      PW
     Min         206     206     59                 7994     7994    1239
     Max         207     207     60                 7996     7996    1241
     Sum        6597    6597   1901               255817   255817   39669

     Using Slab Decomposition



     bravais-lattice index     =            7
     lattice parameter (alat)  =       9.9180  a.u.
     unit-cell volume          =     266.1440 (a.u.)^3
     number of atoms/cell      =            2
     number of atomic types    =            1
     number of electrons       =        28.00
     number of Kohn-Sham states=           14
     kinetic-energy cutoff     =     370.0000  Ry
     charge density cutoff     =    1480.0000  Ry
     scf convergence threshold =      1.0E-07
     mixing beta               =       0.7000
     number of iterations used =            8  plain     mixing
     Exchange-correlation=  SLA  PW   GGX  GGC
                           (   1   4   2   2   0   0   0)

     celldm(1)=   9.918000  celldm(2)=   0.000000  celldm(3)=   0.545600
     celldm(4)=   0.000000  celldm(5)=   0.000000  celldm(6)=   0.000000

     crystal axes: (cart. coord. in units of alat)
               a(1) = (   0.500000  -0.500000   0.272800 )  
               a(2) = (   0.500000   0.500000   0.272800 )  
               a(3) = (  -0.500000  -0.500000   0.272800 )  

     reciprocal axes: (cart. coord. in units 2 pi/alat)
               b(1) = (  1.000000 -1.000000  0.000000 )  
               b(2) = (  0.000000  1.000000  1.832845 )  
               b(3) = ( -1.000000  0.000000  1.832845 )  


     PseudoPot. # 1 for Sn read from file:
     ./Sn.pw91-n-van.UPF
     MD5 check sum: a38d2a872edd1a4efd76c0a1a38f7031
     Pseudo is Ultrasoft + core correction, Zval = 14.0
     Generated by new atomic code, or converted to UPF format
     Using radial grid of  891 points,  6 beta functions with: 
                l(1) =   0
                l(2) =   0
                l(3) =   1
                l(4) =   1
                l(5) =   2
                l(6) =   2
     Q(r) pseudized with  8 coefficients,  rinner =    1.100   1.100   1.100
                                                       1.100   1.100

     atomic species   valence    mass     pseudopotential
     Sn               14.00   118.70000     Sn( 1.00)

     16 Sym. Ops., with inversion, found (12 have fractional translation)



   Cartesian axes

     site n.     atom                  positions (alat units)
         1        Sn     tau(   1) = (   0.0000000  -0.2500000   0.0682000  )
         2        Sn     tau(   2) = (   0.0000000   0.2500000  -0.0682000  )

     number of k points=   244

     Number of k-points >= 100: set verbosity='high' to print them.

     Dense  grid:   255817 G-vectors     FFT dimensions: (  96,  96,  96)

     Estimated max dynamical RAM per process >      27.91 MB

     Estimated total dynamical RAM >       3.31 GB

     Initial potential from superposition of free atoms

     starting charge      27.9964, renormalised to      28.0000
     Starting wfcs are   18 randomized atomic wfcs

     total cpu time spent up to now is        7.9 secs

     per-process dynamical memory:    30.4 Mb

     Self-consistent Calculation

     iteration #  1     ecut=   370.00 Ry     beta= 0.70
     Davidson diagonalization with overlap
     ethr =  1.00E-02,  avg # of iterations =  3.4

     Threshold (ethr) on eigenvalues was too large:
     Diagonalizing with lowered threshold

     Davidson diagonalization with overlap
     ethr =  3.35E-05,  avg # of iterations =  4.9

     total cpu time spent up to now is       20.1 secs

     total energy              =    -325.38893306 Ry
     estimated scf accuracy    <       0.01148547 Ry

     iteration #  2     ecut=   370.00 Ry     beta= 0.70
     Davidson diagonalization with overlap
     ethr =  4.10E-05,  avg # of iterations =  4.4

     total cpu time spent up to now is       24.1 secs

     total energy              =    -325.44156362 Ry
     estimated scf accuracy    <       0.00554729 Ry

     iteration #  3     ecut=   370.00 Ry     beta= 0.70
     Davidson diagonalization with overlap
     ethr =  1.98E-05,  avg # of iterations =  2.0

     total cpu time spent up to now is       26.8 secs

     total energy              =    -325.45670263 Ry
     estimated scf accuracy    <       0.00087081 Ry

     iteration #  4     ecut=   370.00 Ry     beta= 0.70
     Davidson diagonalization with overlap
     ethr =  3.11E-06,  avg # of iterations =  2.7

     total cpu time spent up to now is       29.8 secs

     total energy              =    -325.45706280 Ry
     estimated scf accuracy    <       0.00004647 Ry

     iteration #  5     ecut=   370.00 Ry     beta= 0.70
     Davidson diagonalization with overlap
     ethr =  1.66E-07,  avg # of iterations =  2.7

     total cpu time spent up to now is       32.7 secs

     total energy              =    -325.45706696 Ry
     estimated scf accuracy    <       0.00000862 Ry

     iteration #  6     ecut=   370.00 Ry     beta= 0.70
     Davidson diagonalization with overlap
     ethr =  3.08E-08,  avg # of iterations =  2.4

     total cpu time spent up to now is       35.5 secs

     End of self-consistent calculation

     Number of k-points >= 100: set verbosity='high' to print the bands.

     highest occupied level (ev):    18.8854

!    total energy              =    -325.45706771 Ry
     estimated scf accuracy    <       0.00000006 Ry

     The total energy is the sum of the following terms:
     one-electron contribution =     -73.19044573 Ry
     hartree contribution      =      62.86594503 Ry
     xc contribution           =     -95.67111901 Ry
     ewald contribution        =    -219.46144800 Ry

     convergence has been achieved in   6 iterations

     Writing all to output data dir ./beta-EOS/beta.save/ :
     XML data file, charge density, pseudopotentials, collected wavefunctions

     init_run     :      2.17s CPU      2.38s WALL (       1 calls)
     electrons    :     23.27s CPU     27.69s WALL (       1 calls)

     Called by init_run:
     wfcinit      :      1.23s CPU      1.30s WALL (       1 calls)
     potinit      :      0.04s CPU      0.06s WALL (       1 calls)
     hinit0       :      0.69s CPU      0.77s WALL (       1 calls)

     Called by electrons:
     c_bands      :     19.75s CPU     24.00s WALL (       7 calls)
     sum_band     :      3.15s CPU      3.19s WALL (       7 calls)
     v_of_rho     :      0.20s CPU      0.22s WALL (       7 calls)
     newd         :      0.09s CPU      0.10s WALL (       7 calls)
     mix_rho      :      0.04s CPU      0.04s WALL (       7 calls)

     Called by c_bands:
     init_us_2    :      0.41s CPU      0.43s WALL (     915 calls)
     cegterg      :     16.63s CPU     20.68s WALL (     427 calls)

     Called by *egterg:
     cdiaghg      :      0.63s CPU      4.32s WALL (    1834 calls)
     h_psi        :     15.36s CPU     15.75s WALL (    1956 calls)
     s_psi        :      0.30s CPU      0.31s WALL (    1956 calls)
     g_psi        :      0.04s CPU      0.04s WALL (    1468 calls)

     Called by h_psi:
     h_psi:calbec :      0.46s CPU      0.51s WALL (    1956 calls)
     vloc_psi     :     14.51s CPU     14.83s WALL (    1956 calls)
     add_vuspsi   :      0.32s CPU      0.33s WALL (    1956 calls)

     General routines
     calbec       :      0.57s CPU      0.62s WALL (    2383 calls)
     fft          :      0.77s CPU      0.86s WALL (      78 calls)
     ffts         :      0.01s CPU      0.02s WALL (       7 calls)
     fftw         :     15.42s CPU     15.72s WALL (   39086 calls)

     Parallel routines

     PWSCF        :     31.43s CPU     39.44s WALL


   This run was terminated on:  19:22:13  25Feb2026            

=------------------------------------------------------------------------------=
   JOB DONE.
=------------------------------------------------------------------------------=
