
     Program PWSCF v.7.3.1 starts on 25Feb2026 at 19:27:52 

     This program is part of the open-source Quantum ESPRESSO suite
     for quantum simulation of materials; please cite
         "P. Giannozzi et al., J. Phys.:Condens. Matter 21 395502 (2009);
         "P. Giannozzi et al., J. Phys.:Condens. Matter 29 465901 (2017);
         "P. Giannozzi et al., J. Chem. Phys. 152 154105 (2020);
          URL http://www.quantum-espresso.org", 
     in publications or presentations arising from this work. More details at
     http://www.quantum-espresso.org/quote

     Parallel version (MPI), running on   128 processors

     MPI processes distributed on     1 nodes
     239735 MiB available memory on the printing compute node when the environment starts

     Waiting for input...
     Reading input from standard input

     Current dimensions of program PWSCF are:
     Max number of different atomic species (ntypx) = 10
     Max number of k-points (npk) =  40000
     Max angular momentum in pseudopotentials (lmaxx) =  4

     K-points division:     npool     =       4
     R & G space division:  proc/nbgrp/npool/nimage =      32
     Subspace diagonalization in iterative solution of the eigenvalue problem:
     a serial algorithm will be used


     Parallelization info
     --------------------
     sticks:   dense  smooth     PW     G-vecs:    dense   smooth      PW
     Min         216     216     62                 8593     8593    1325
     Max         217     217     63                 8596     8596    1327
     Sum        6925    6925   1993               275017   275017   42431

     Using Slab Decomposition



     bravais-lattice index     =            7
     lattice parameter (alat)  =      10.1604  a.u.
     unit-cell volume          =     286.1422 (a.u.)^3
     number of atoms/cell      =            2
     number of atomic types    =            1
     number of electrons       =        28.00
     number of Kohn-Sham states=           14
     kinetic-energy cutoff     =     370.0000  Ry
     charge density cutoff     =    1480.0000  Ry
     scf convergence threshold =      1.0E-07
     mixing beta               =       0.7000
     number of iterations used =            8  plain     mixing
     Exchange-correlation=  SLA  PW   GGX  GGC
                           (   1   4   2   2   0   0   0)

     celldm(1)=  10.160440  celldm(2)=   0.000000  celldm(3)=   0.545600
     celldm(4)=   0.000000  celldm(5)=   0.000000  celldm(6)=   0.000000

     crystal axes: (cart. coord. in units of alat)
               a(1) = (   0.500000  -0.500000   0.272800 )  
               a(2) = (   0.500000   0.500000   0.272800 )  
               a(3) = (  -0.500000  -0.500000   0.272800 )  

     reciprocal axes: (cart. coord. in units 2 pi/alat)
               b(1) = (  1.000000 -1.000000  0.000000 )  
               b(2) = (  0.000000  1.000000  1.832845 )  
               b(3) = ( -1.000000  0.000000  1.832845 )  


     PseudoPot. # 1 for Sn read from file:
     ./Sn.pw91-n-van.UPF
     MD5 check sum: a38d2a872edd1a4efd76c0a1a38f7031
     Pseudo is Ultrasoft + core correction, Zval = 14.0
     Generated by new atomic code, or converted to UPF format
     Using radial grid of  891 points,  6 beta functions with: 
                l(1) =   0
                l(2) =   0
                l(3) =   1
                l(4) =   1
                l(5) =   2
                l(6) =   2
     Q(r) pseudized with  8 coefficients,  rinner =    1.100   1.100   1.100
                                                       1.100   1.100

     atomic species   valence    mass     pseudopotential
     Sn               14.00   118.70000     Sn( 1.00)

     16 Sym. Ops., with inversion, found (12 have fractional translation)



   Cartesian axes

     site n.     atom                  positions (alat units)
         1        Sn     tau(   1) = (   0.0000000  -0.2500000   0.0682000  )
         2        Sn     tau(   2) = (   0.0000000   0.2500000  -0.0682000  )

     number of k points=   244

     Number of k-points >= 100: set verbosity='high' to print them.

     Dense  grid:   275017 G-vectors     FFT dimensions: (  96,  96,  96)

     Estimated max dynamical RAM per process >      29.63 MB

     Estimated total dynamical RAM >       3.51 GB

     Initial potential from superposition of free atoms

     starting charge      27.9964, renormalised to      28.0000
     Starting wfcs are   18 randomized atomic wfcs

     total cpu time spent up to now is        2.6 secs

     per-process dynamical memory:    31.8 Mb

     Self-consistent Calculation

     iteration #  1     ecut=   370.00 Ry     beta= 0.70
     Davidson diagonalization with overlap
     ethr =  1.00E-02,  avg # of iterations =  3.3

     Threshold (ethr) on eigenvalues was too large:
     Diagonalizing with lowered threshold

     Davidson diagonalization with overlap
     ethr =  3.75E-05,  avg # of iterations =  4.9

     total cpu time spent up to now is        9.6 secs

     total energy              =    -325.42272831 Ry
     estimated scf accuracy    <       0.01342616 Ry

     iteration #  2     ecut=   370.00 Ry     beta= 0.70
     Davidson diagonalization with overlap
     ethr =  4.80E-05,  avg # of iterations =  4.8

     total cpu time spent up to now is       13.8 secs

     total energy              =    -325.48877385 Ry
     estimated scf accuracy    <       0.00929501 Ry

     iteration #  3     ecut=   370.00 Ry     beta= 0.70
     Davidson diagonalization with overlap
     ethr =  3.32E-05,  avg # of iterations =  2.0

     total cpu time spent up to now is       16.6 secs

     total energy              =    -325.50979445 Ry
     estimated scf accuracy    <       0.00194507 Ry

     iteration #  4     ecut=   370.00 Ry     beta= 0.70
     Davidson diagonalization with overlap
     ethr =  6.95E-06,  avg # of iterations =  2.4

     total cpu time spent up to now is       19.6 secs

     total energy              =    -325.51018730 Ry
     estimated scf accuracy    <       0.00006063 Ry

     iteration #  5     ecut=   370.00 Ry     beta= 0.70
     Davidson diagonalization with overlap
     ethr =  2.17E-07,  avg # of iterations =  3.2

     total cpu time spent up to now is       22.8 secs

     total energy              =    -325.51019230 Ry
     estimated scf accuracy    <       0.00001119 Ry

     iteration #  6     ecut=   370.00 Ry     beta= 0.70
     Davidson diagonalization with overlap
     ethr =  4.00E-08,  avg # of iterations =  2.2

     total cpu time spent up to now is       25.7 secs

     End of self-consistent calculation

     Number of k-points >= 100: set verbosity='high' to print the bands.

     highest occupied level (ev):    17.1636

!    total energy              =    -325.51019330 Ry
     estimated scf accuracy    <       0.00000003 Ry

     The total energy is the sum of the following terms:
     one-electron contribution =     -81.24263965 Ry
     hartree contribution      =      65.50978577 Ry
     xc contribution           =     -95.55249864 Ry
     ewald contribution        =    -214.22484078 Ry

     convergence has been achieved in   6 iterations

     Writing all to output data dir ./beta-EOS/beta.save/ :
     XML data file, charge density, pseudopotentials, collected wavefunctions

     init_run     :      2.24s CPU      2.33s WALL (       1 calls)
     electrons    :     22.50s CPU     23.12s WALL (       1 calls)

     Called by init_run:
     wfcinit      :      1.27s CPU      1.29s WALL (       1 calls)
     potinit      :      0.05s CPU      0.06s WALL (       1 calls)
     hinit0       :      0.69s CPU      0.71s WALL (       1 calls)

     Called by electrons:
     c_bands      :     18.93s CPU     19.37s WALL (       7 calls)
     sum_band     :      3.27s CPU      3.32s WALL (       7 calls)
     v_of_rho     :      0.20s CPU      0.22s WALL (       7 calls)
     newd         :      0.10s CPU      0.11s WALL (       7 calls)
     mix_rho      :      0.02s CPU      0.02s WALL (       7 calls)

     Called by c_bands:
     init_us_2    :      0.45s CPU      0.46s WALL (     915 calls)
     cegterg      :     17.23s CPU     17.50s WALL (     427 calls)

     Called by *egterg:
     cdiaghg      :      0.65s CPU      0.66s WALL (    1848 calls)
     h_psi        :     15.80s CPU     16.06s WALL (    1970 calls)
     s_psi        :      0.33s CPU      0.33s WALL (    1970 calls)
     g_psi        :      0.04s CPU      0.04s WALL (    1482 calls)

     Called by h_psi:
     h_psi:calbec :      0.51s CPU      0.52s WALL (    1970 calls)
     vloc_psi     :     14.85s CPU     15.10s WALL (    1970 calls)
     add_vuspsi   :      0.35s CPU      0.35s WALL (    1970 calls)

     General routines
     calbec       :      0.63s CPU      0.63s WALL (    2397 calls)
     fft          :      0.78s CPU      0.80s WALL (      78 calls)
     ffts         :      0.01s CPU      0.02s WALL (       7 calls)
     fftw         :     15.78s CPU     16.01s WALL (   39132 calls)

     Parallel routines

     PWSCF        :     25.60s CPU     29.35s WALL


   This run was terminated on:  19:28:21  25Feb2026            

=------------------------------------------------------------------------------=
   JOB DONE.
=------------------------------------------------------------------------------=
