
     Program PWSCF v.7.3.1 starts on 25Feb2026 at 19:28:24 

     This program is part of the open-source Quantum ESPRESSO suite
     for quantum simulation of materials; please cite
         "P. Giannozzi et al., J. Phys.:Condens. Matter 21 395502 (2009);
         "P. Giannozzi et al., J. Phys.:Condens. Matter 29 465901 (2017);
         "P. Giannozzi et al., J. Chem. Phys. 152 154105 (2020);
          URL http://www.quantum-espresso.org", 
     in publications or presentations arising from this work. More details at
     http://www.quantum-espresso.org/quote

     Parallel version (MPI), running on   128 processors

     MPI processes distributed on     1 nodes
     239778 MiB available memory on the printing compute node when the environment starts

     Waiting for input...
     Reading input from standard input

     Current dimensions of program PWSCF are:
     Max number of different atomic species (ntypx) = 10
     Max number of k-points (npk) =  40000
     Max angular momentum in pseudopotentials (lmaxx) =  4

     K-points division:     npool     =       4
     R & G space division:  proc/nbgrp/npool/nimage =      32
     Subspace diagonalization in iterative solution of the eigenvalue problem:
     a serial algorithm will be used


     Parallelization info
     --------------------
     sticks:   dense  smooth     PW     G-vecs:    dense   smooth      PW
     Min         217     217     62                 8649     8649    1335
     Max         218     218     63                 8652     8652    1338
     Sum        6953    6953   2007               276783   276783   42759

     Using Slab Decomposition



     bravais-lattice index     =            7
     lattice parameter (alat)  =      10.1825  a.u.
     unit-cell volume          =     288.0083 (a.u.)^3
     number of atoms/cell      =            2
     number of atomic types    =            1
     number of electrons       =        28.00
     number of Kohn-Sham states=           14
     kinetic-energy cutoff     =     370.0000  Ry
     charge density cutoff     =    1480.0000  Ry
     scf convergence threshold =      1.0E-07
     mixing beta               =       0.7000
     number of iterations used =            8  plain     mixing
     Exchange-correlation=  SLA  PW   GGX  GGC
                           (   1   4   2   2   0   0   0)

     celldm(1)=  10.182480  celldm(2)=   0.000000  celldm(3)=   0.545600
     celldm(4)=   0.000000  celldm(5)=   0.000000  celldm(6)=   0.000000

     crystal axes: (cart. coord. in units of alat)
               a(1) = (   0.500000  -0.500000   0.272800 )  
               a(2) = (   0.500000   0.500000   0.272800 )  
               a(3) = (  -0.500000  -0.500000   0.272800 )  

     reciprocal axes: (cart. coord. in units 2 pi/alat)
               b(1) = (  1.000000 -1.000000  0.000000 )  
               b(2) = (  0.000000  1.000000  1.832845 )  
               b(3) = ( -1.000000  0.000000  1.832845 )  


     PseudoPot. # 1 for Sn read from file:
     ./Sn.pw91-n-van.UPF
     MD5 check sum: a38d2a872edd1a4efd76c0a1a38f7031
     Pseudo is Ultrasoft + core correction, Zval = 14.0
     Generated by new atomic code, or converted to UPF format
     Using radial grid of  891 points,  6 beta functions with: 
                l(1) =   0
                l(2) =   0
                l(3) =   1
                l(4) =   1
                l(5) =   2
                l(6) =   2
     Q(r) pseudized with  8 coefficients,  rinner =    1.100   1.100   1.100
                                                       1.100   1.100

     atomic species   valence    mass     pseudopotential
     Sn               14.00   118.70000     Sn( 1.00)

     16 Sym. Ops., with inversion, found (12 have fractional translation)



   Cartesian axes

     site n.     atom                  positions (alat units)
         1        Sn     tau(   1) = (   0.0000000  -0.2500000   0.0682000  )
         2        Sn     tau(   2) = (   0.0000000   0.2500000  -0.0682000  )

     number of k points=   244

     Number of k-points >= 100: set verbosity='high' to print them.

     Dense  grid:   276783 G-vectors     FFT dimensions: (  96,  96,  96)

     Estimated max dynamical RAM per process >      29.79 MB

     Estimated total dynamical RAM >       3.53 GB

     Initial potential from superposition of free atoms

     starting charge      27.9964, renormalised to      28.0000
     Starting wfcs are   18 randomized atomic wfcs

     total cpu time spent up to now is        2.6 secs

     per-process dynamical memory:    31.8 Mb

     Self-consistent Calculation

     iteration #  1     ecut=   370.00 Ry     beta= 0.70
     Davidson diagonalization with overlap
     ethr =  1.00E-02,  avg # of iterations =  3.4

     Threshold (ethr) on eigenvalues was too large:
     Diagonalizing with lowered threshold

     Davidson diagonalization with overlap
     ethr =  3.97E-05,  avg # of iterations =  4.8

     total cpu time spent up to now is        9.5 secs

     total energy              =    -325.42383519 Ry
     estimated scf accuracy    <       0.01386871 Ry

     iteration #  2     ecut=   370.00 Ry     beta= 0.70
     Davidson diagonalization with overlap
     ethr =  4.95E-05,  avg # of iterations =  4.8

     total cpu time spent up to now is       13.8 secs

     total energy              =    -325.49213529 Ry
     estimated scf accuracy    <       0.00992399 Ry

     iteration #  3     ecut=   370.00 Ry     beta= 0.70
     Davidson diagonalization with overlap
     ethr =  3.54E-05,  avg # of iterations =  2.0

     total cpu time spent up to now is       16.6 secs

     total energy              =    -325.51377336 Ry
     estimated scf accuracy    <       0.00212980 Ry

     iteration #  4     ecut=   370.00 Ry     beta= 0.70
     Davidson diagonalization with overlap
     ethr =  7.61E-06,  avg # of iterations =  2.3

     total cpu time spent up to now is       19.5 secs

     total energy              =    -325.51421631 Ry
     estimated scf accuracy    <       0.00006218 Ry

     iteration #  5     ecut=   370.00 Ry     beta= 0.70
     Davidson diagonalization with overlap
     ethr =  2.22E-07,  avg # of iterations =  3.3

     total cpu time spent up to now is       22.6 secs

     total energy              =    -325.51422504 Ry
     estimated scf accuracy    <       0.00001532 Ry

     iteration #  6     ecut=   370.00 Ry     beta= 0.70
     Davidson diagonalization with overlap
     ethr =  5.47E-08,  avg # of iterations =  2.1

     total cpu time spent up to now is       25.5 secs

     total energy              =    -325.51422599 Ry
     estimated scf accuracy    <       0.00000021 Ry

     iteration #  7     ecut=   370.00 Ry     beta= 0.70
     Davidson diagonalization with overlap
     ethr =  7.62E-10,  avg # of iterations =  3.5

     total cpu time spent up to now is       28.8 secs

     End of self-consistent calculation

     Number of k-points >= 100: set verbosity='high' to print the bands.

     highest occupied level (ev):    17.0151

!    total energy              =    -325.51422604 Ry
     estimated scf accuracy    <          3.4E-09 Ry

     The total energy is the sum of the following terms:
     one-electron contribution =     -81.95725532 Ry
     hartree contribution      =      65.74619224 Ry
     xc contribution           =     -95.54201232 Ry
     ewald contribution        =    -213.76115065 Ry

     convergence has been achieved in   7 iterations

     Writing all to output data dir ./beta-EOS/beta.save/ :
     XML data file, charge density, pseudopotentials, collected wavefunctions

     init_run     :      2.23s CPU      2.33s WALL (       1 calls)
     electrons    :     25.46s CPU     26.22s WALL (       1 calls)

     Called by init_run:
     wfcinit      :      1.25s CPU      1.29s WALL (       1 calls)
     potinit      :      0.05s CPU      0.07s WALL (       1 calls)
     hinit0       :      0.69s CPU      0.71s WALL (       1 calls)

     Called by electrons:
     c_bands      :     21.37s CPU     21.93s WALL (       8 calls)
     sum_band     :      3.73s CPU      3.82s WALL (       8 calls)
     v_of_rho     :      0.23s CPU      0.26s WALL (       8 calls)
     newd         :      0.11s CPU      0.12s WALL (       8 calls)
     mix_rho      :      0.02s CPU      0.03s WALL (       8 calls)

     Called by c_bands:
     init_us_2    :      0.50s CPU      0.52s WALL (    1037 calls)
     cegterg      :     19.58s CPU     19.92s WALL (     488 calls)

     Called by *egterg:
     cdiaghg      :      0.75s CPU      0.76s WALL (    2155 calls)
     h_psi        :     17.77s CPU     18.10s WALL (    2277 calls)
     s_psi        :      0.37s CPU      0.38s WALL (    2277 calls)
     g_psi        :      0.05s CPU      0.05s WALL (    1728 calls)

     Called by h_psi:
     h_psi:calbec :      0.58s CPU      0.60s WALL (    2277 calls)
     vloc_psi     :     16.69s CPU     17.00s WALL (    2277 calls)
     add_vuspsi   :      0.39s CPU      0.40s WALL (    2277 calls)

     General routines
     calbec       :      0.71s CPU      0.73s WALL (    2765 calls)
     fft          :      0.80s CPU      0.82s WALL (      89 calls)
     ffts         :      0.02s CPU      0.02s WALL (       8 calls)
     fftw         :     17.72s CPU     18.05s WALL (   44018 calls)

     Parallel routines

     PWSCF        :     28.61s CPU     32.55s WALL


   This run was terminated on:  19:28:56  25Feb2026            

=------------------------------------------------------------------------------=
   JOB DONE.
=------------------------------------------------------------------------------=
