
     Program PWSCF v.7.3.1 starts on 25Feb2026 at 19:32:54 

     This program is part of the open-source Quantum ESPRESSO suite
     for quantum simulation of materials; please cite
         "P. Giannozzi et al., J. Phys.:Condens. Matter 21 395502 (2009);
         "P. Giannozzi et al., J. Phys.:Condens. Matter 29 465901 (2017);
         "P. Giannozzi et al., J. Chem. Phys. 152 154105 (2020);
          URL http://www.quantum-espresso.org", 
     in publications or presentations arising from this work. More details at
     http://www.quantum-espresso.org/quote

     Parallel version (MPI), running on   128 processors

     MPI processes distributed on     1 nodes
     239605 MiB available memory on the printing compute node when the environment starts

     Waiting for input...
     Reading input from standard input

     Current dimensions of program PWSCF are:
     Max number of different atomic species (ntypx) = 10
     Max number of k-points (npk) =  40000
     Max angular momentum in pseudopotentials (lmaxx) =  4

     K-points division:     npool     =       4
     R & G space division:  proc/nbgrp/npool/nimage =      32
     Subspace diagonalization in iterative solution of the eigenvalue problem:
     a serial algorithm will be used


     Parallelization info
     --------------------
     sticks:   dense  smooth     PW     G-vecs:    dense   smooth      PW
     Min         224     224     64                 9107     9107    1400
     Max         225     225     65                 9110     9110    1402
     Sum        7191    7191   2063               291471   291471   44827

     Using Slab Decomposition



     bravais-lattice index     =            7
     lattice parameter (alat)  =      10.3588  a.u.
     unit-cell volume          =     303.2304 (a.u.)^3
     number of atoms/cell      =            2
     number of atomic types    =            1
     number of electrons       =        28.00
     number of Kohn-Sham states=           14
     kinetic-energy cutoff     =     370.0000  Ry
     charge density cutoff     =    1480.0000  Ry
     scf convergence threshold =      1.0E-07
     mixing beta               =       0.7000
     number of iterations used =            8  plain     mixing
     Exchange-correlation=  SLA  PW   GGX  GGC
                           (   1   4   2   2   0   0   0)

     celldm(1)=  10.358800  celldm(2)=   0.000000  celldm(3)=   0.545600
     celldm(4)=   0.000000  celldm(5)=   0.000000  celldm(6)=   0.000000

     crystal axes: (cart. coord. in units of alat)
               a(1) = (   0.500000  -0.500000   0.272800 )  
               a(2) = (   0.500000   0.500000   0.272800 )  
               a(3) = (  -0.500000  -0.500000   0.272800 )  

     reciprocal axes: (cart. coord. in units 2 pi/alat)
               b(1) = (  1.000000 -1.000000  0.000000 )  
               b(2) = (  0.000000  1.000000  1.832845 )  
               b(3) = ( -1.000000  0.000000  1.832845 )  


     PseudoPot. # 1 for Sn read from file:
     ./Sn.pw91-n-van.UPF
     MD5 check sum: a38d2a872edd1a4efd76c0a1a38f7031
     Pseudo is Ultrasoft + core correction, Zval = 14.0
     Generated by new atomic code, or converted to UPF format
     Using radial grid of  891 points,  6 beta functions with: 
                l(1) =   0
                l(2) =   0
                l(3) =   1
                l(4) =   1
                l(5) =   2
                l(6) =   2
     Q(r) pseudized with  8 coefficients,  rinner =    1.100   1.100   1.100
                                                       1.100   1.100

     atomic species   valence    mass     pseudopotential
     Sn               14.00   118.70000     Sn( 1.00)

     16 Sym. Ops., with inversion, found (12 have fractional translation)



   Cartesian axes

     site n.     atom                  positions (alat units)
         1        Sn     tau(   1) = (   0.0000000  -0.2500000   0.0682000  )
         2        Sn     tau(   2) = (   0.0000000   0.2500000  -0.0682000  )

     number of k points=   244

     Number of k-points >= 100: set verbosity='high' to print them.

     Dense  grid:   291471 G-vectors     FFT dimensions: ( 100, 100, 100)

     Estimated max dynamical RAM per process >      31.95 MB

     Estimated total dynamical RAM >       3.79 GB

     Initial potential from superposition of free atoms

     starting charge      27.9964, renormalised to      28.0000
     Starting wfcs are   18 randomized atomic wfcs

     total cpu time spent up to now is        2.8 secs

     per-process dynamical memory:    34.3 Mb

     Self-consistent Calculation

     iteration #  1     ecut=   370.00 Ry     beta= 0.70
     Davidson diagonalization with overlap
     ethr =  1.00E-02,  avg # of iterations =  3.2

     Threshold (ethr) on eigenvalues was too large:
     Diagonalizing with lowered threshold

     Davidson diagonalization with overlap
     ethr =  4.68E-05,  avg # of iterations =  4.7

     total cpu time spent up to now is       11.8 secs

     total energy              =    -325.43443788 Ry
     estimated scf accuracy    <       0.01679602 Ry

     iteration #  2     ecut=   370.00 Ry     beta= 0.70
     Davidson diagonalization with overlap
     ethr =  6.00E-05,  avg # of iterations =  4.9

     total cpu time spent up to now is       17.4 secs

     total energy              =    -325.51707719 Ry
     estimated scf accuracy    <       0.01354892 Ry

     iteration #  3     ecut=   370.00 Ry     beta= 0.70
     Davidson diagonalization with overlap
     ethr =  4.84E-05,  avg # of iterations =  2.0

     total cpu time spent up to now is       21.2 secs

     total energy              =    -325.54175231 Ry
     estimated scf accuracy    <       0.00312807 Ry

     iteration #  4     ecut=   370.00 Ry     beta= 0.70
     Davidson diagonalization with overlap
     ethr =  1.12E-05,  avg # of iterations =  2.2

     total cpu time spent up to now is       25.1 secs

     total energy              =    -325.54231802 Ry
     estimated scf accuracy    <       0.00001299 Ry

     iteration #  5     ecut=   370.00 Ry     beta= 0.70
     Davidson diagonalization with overlap
     ethr =  4.64E-08,  avg # of iterations =  4.8

     total cpu time spent up to now is       30.6 secs

     total energy              =    -325.54233102 Ry
     estimated scf accuracy    <       0.00001304 Ry

     iteration #  6     ecut=   370.00 Ry     beta= 0.70
     Davidson diagonalization with overlap
     ethr =  4.64E-08,  avg # of iterations =  2.0

     total cpu time spent up to now is       34.3 secs

     End of self-consistent calculation

     Number of k-points >= 100: set verbosity='high' to print the bands.

     highest occupied level (ev):    15.8697

!    total energy              =    -325.54233208 Ry
     estimated scf accuracy    <       0.00000002 Ry

     The total energy is the sum of the following terms:
     one-electron contribution =     -87.58863010 Ry
     hartree contribution      =      67.63335734 Ry
     xc contribution           =     -95.46439635 Ry
     ewald contribution        =    -210.12266298 Ry

     convergence has been achieved in   6 iterations

     Writing all to output data dir ./beta-EOS/beta.save/ :
     XML data file, charge density, pseudopotentials, collected wavefunctions

     init_run     :      2.48s CPU      2.56s WALL (       1 calls)
     electrons    :     30.84s CPU     31.57s WALL (       1 calls)

     Called by init_run:
     wfcinit      :      1.69s CPU      1.71s WALL (       1 calls)
     potinit      :      0.05s CPU      0.06s WALL (       1 calls)
     hinit0       :      0.46s CPU      0.48s WALL (       1 calls)

     Called by electrons:
     c_bands      :     26.11s CPU     26.66s WALL (       7 calls)
     sum_band     :      4.37s CPU      4.44s WALL (       7 calls)
     v_of_rho     :      0.25s CPU      0.29s WALL (       7 calls)
     newd         :      0.12s CPU      0.13s WALL (       7 calls)
     mix_rho      :      0.02s CPU      0.03s WALL (       7 calls)

     Called by c_bands:
     init_us_2    :      0.47s CPU      0.49s WALL (     915 calls)
     cegterg      :     24.29s CPU     24.61s WALL (     427 calls)

     Called by *egterg:
     cdiaghg      :      0.70s CPU      0.71s WALL (    1913 calls)
     h_psi        :     22.87s CPU     23.16s WALL (    2035 calls)
     s_psi        :      0.36s CPU      0.36s WALL (    2035 calls)
     g_psi        :      0.05s CPU      0.05s WALL (    1547 calls)

     Called by h_psi:
     h_psi:calbec :      0.67s CPU      0.67s WALL (    2035 calls)
     vloc_psi     :     21.72s CPU     22.00s WALL (    2035 calls)
     add_vuspsi   :      0.38s CPU      0.39s WALL (    2035 calls)

     General routines
     calbec       :      0.78s CPU      0.79s WALL (    2462 calls)
     fft          :      0.57s CPU      0.62s WALL (      78 calls)
     ffts         :      0.02s CPU      0.02s WALL (       7 calls)
     fftw         :     22.82s CPU     23.10s WALL (   40304 calls)

     Parallel routines

     PWSCF        :     34.41s CPU     37.56s WALL


   This run was terminated on:  19:33:32  25Feb2026            

=------------------------------------------------------------------------------=
   JOB DONE.
=------------------------------------------------------------------------------=
