
     Program PWSCF v.7.3.1 starts on 25Feb2026 at 19:33:35 

     This program is part of the open-source Quantum ESPRESSO suite
     for quantum simulation of materials; please cite
         "P. Giannozzi et al., J. Phys.:Condens. Matter 21 395502 (2009);
         "P. Giannozzi et al., J. Phys.:Condens. Matter 29 465901 (2017);
         "P. Giannozzi et al., J. Chem. Phys. 152 154105 (2020);
          URL http://www.quantum-espresso.org", 
     in publications or presentations arising from this work. More details at
     http://www.quantum-espresso.org/quote

     Parallel version (MPI), running on   128 processors

     MPI processes distributed on     1 nodes
     239598 MiB available memory on the printing compute node when the environment starts

     Waiting for input...
     Reading input from standard input

     Current dimensions of program PWSCF are:
     Max number of different atomic species (ntypx) = 10
     Max number of k-points (npk) =  40000
     Max angular momentum in pseudopotentials (lmaxx) =  4

     K-points division:     npool     =       4
     R & G space division:  proc/nbgrp/npool/nimage =      32
     Subspace diagonalization in iterative solution of the eigenvalue problem:
     a serial algorithm will be used


     Parallelization info
     --------------------
     sticks:   dense  smooth     PW     G-vecs:    dense   smooth      PW
     Min         226     226     64                 9170     9170    1408
     Max         227     227     65                 9172     9172    1410
     Sum        7235    7235   2069               293479   293479   45087

     Using Slab Decomposition



     bravais-lattice index     =            7
     lattice parameter (alat)  =      10.3808  a.u.
     unit-cell volume          =     305.1700 (a.u.)^3
     number of atoms/cell      =            2
     number of atomic types    =            1
     number of electrons       =        28.00
     number of Kohn-Sham states=           14
     kinetic-energy cutoff     =     370.0000  Ry
     charge density cutoff     =    1480.0000  Ry
     scf convergence threshold =      1.0E-07
     mixing beta               =       0.7000
     number of iterations used =            8  plain     mixing
     Exchange-correlation=  SLA  PW   GGX  GGC
                           (   1   4   2   2   0   0   0)

     celldm(1)=  10.380840  celldm(2)=   0.000000  celldm(3)=   0.545600
     celldm(4)=   0.000000  celldm(5)=   0.000000  celldm(6)=   0.000000

     crystal axes: (cart. coord. in units of alat)
               a(1) = (   0.500000  -0.500000   0.272800 )  
               a(2) = (   0.500000   0.500000   0.272800 )  
               a(3) = (  -0.500000  -0.500000   0.272800 )  

     reciprocal axes: (cart. coord. in units 2 pi/alat)
               b(1) = (  1.000000 -1.000000  0.000000 )  
               b(2) = (  0.000000  1.000000  1.832845 )  
               b(3) = ( -1.000000  0.000000  1.832845 )  


     PseudoPot. # 1 for Sn read from file:
     ./Sn.pw91-n-van.UPF
     MD5 check sum: a38d2a872edd1a4efd76c0a1a38f7031
     Pseudo is Ultrasoft + core correction, Zval = 14.0
     Generated by new atomic code, or converted to UPF format
     Using radial grid of  891 points,  6 beta functions with: 
                l(1) =   0
                l(2) =   0
                l(3) =   1
                l(4) =   1
                l(5) =   2
                l(6) =   2
     Q(r) pseudized with  8 coefficients,  rinner =    1.100   1.100   1.100
                                                       1.100   1.100

     atomic species   valence    mass     pseudopotential
     Sn               14.00   118.70000     Sn( 1.00)

     16 Sym. Ops., with inversion, found (12 have fractional translation)



   Cartesian axes

     site n.     atom                  positions (alat units)
         1        Sn     tau(   1) = (   0.0000000  -0.2500000   0.0682000  )
         2        Sn     tau(   2) = (   0.0000000   0.2500000  -0.0682000  )

     number of k points=   244

     Number of k-points >= 100: set verbosity='high' to print them.

     Dense  grid:   293479 G-vectors     FFT dimensions: ( 100, 100, 100)

     Estimated max dynamical RAM per process >      32.14 MB

     Estimated total dynamical RAM >       3.81 GB

     Initial potential from superposition of free atoms

     starting charge      27.9964, renormalised to      28.0000
     Starting wfcs are   18 randomized atomic wfcs

     total cpu time spent up to now is        2.9 secs

     per-process dynamical memory:    34.3 Mb

     Self-consistent Calculation

     iteration #  1     ecut=   370.00 Ry     beta= 0.70
     Davidson diagonalization with overlap
     ethr =  1.00E-02,  avg # of iterations =  3.2

     Threshold (ethr) on eigenvalues was too large:
     Diagonalizing with lowered threshold

     Davidson diagonalization with overlap
     ethr =  4.84E-05,  avg # of iterations =  4.7

     total cpu time spent up to now is       11.8 secs

     total energy              =    -325.43416225 Ry
     estimated scf accuracy    <       0.01739884 Ry

     iteration #  2     ecut=   370.00 Ry     beta= 0.70
     Davidson diagonalization with overlap
     ethr =  6.21E-05,  avg # of iterations =  4.9

     total cpu time spent up to now is       17.5 secs

     total energy              =    -325.51968074 Ry
     estimated scf accuracy    <       0.01424382 Ry

     iteration #  3     ecut=   370.00 Ry     beta= 0.70
     Davidson diagonalization with overlap
     ethr =  5.09E-05,  avg # of iterations =  2.0

     total cpu time spent up to now is       21.3 secs

     total energy              =    -325.54467838 Ry
     estimated scf accuracy    <       0.00331299 Ry

     iteration #  4     ecut=   370.00 Ry     beta= 0.70
     Davidson diagonalization with overlap
     ethr =  1.18E-05,  avg # of iterations =  2.2

     total cpu time spent up to now is       25.2 secs

     total energy              =    -325.54534490 Ry
     estimated scf accuracy    <       0.00000956 Ry

     iteration #  5     ecut=   370.00 Ry     beta= 0.70
     Davidson diagonalization with overlap
     ethr =  3.42E-08,  avg # of iterations =  5.2

     total cpu time spent up to now is       31.0 secs

     total energy              =    -325.54536029 Ry
     estimated scf accuracy    <       0.00001281 Ry

     iteration #  6     ecut=   370.00 Ry     beta= 0.70
     Davidson diagonalization with overlap
     ethr =  3.42E-08,  avg # of iterations =  2.0

     total cpu time spent up to now is       34.8 secs

     End of self-consistent calculation

     Number of k-points >= 100: set verbosity='high' to print the bands.

     highest occupied level (ev):    15.7322

!    total energy              =    -325.54536130 Ry
     estimated scf accuracy    <       0.00000003 Ry

     The total energy is the sum of the following terms:
     one-electron contribution =     -88.28078983 Ry
     hartree contribution      =      67.86700978 Ry
     xc contribution           =     -95.45503857 Ry
     ewald contribution        =    -209.67654267 Ry

     convergence has been achieved in   6 iterations

     Writing all to output data dir ./beta-EOS/beta.save/ :
     XML data file, charge density, pseudopotentials, collected wavefunctions

     init_run     :      2.47s CPU      2.57s WALL (       1 calls)
     electrons    :     31.24s CPU     31.97s WALL (       1 calls)

     Called by init_run:
     wfcinit      :      1.67s CPU      1.71s WALL (       1 calls)
     potinit      :      0.04s CPU      0.06s WALL (       1 calls)
     hinit0       :      0.47s CPU      0.49s WALL (       1 calls)

     Called by electrons:
     c_bands      :     26.49s CPU     27.06s WALL (       7 calls)
     sum_band     :      4.36s CPU      4.44s WALL (       7 calls)
     v_of_rho     :      0.26s CPU      0.29s WALL (       7 calls)
     newd         :      0.12s CPU      0.13s WALL (       7 calls)
     mix_rho      :      0.03s CPU      0.03s WALL (       7 calls)

     Called by c_bands:
     init_us_2    :      0.47s CPU      0.49s WALL (     915 calls)
     cegterg      :     24.76s CPU     25.10s WALL (     427 calls)

     Called by *egterg:
     cdiaghg      :      0.71s CPU      0.73s WALL (    1945 calls)
     h_psi        :     23.26s CPU     23.59s WALL (    2067 calls)
     s_psi        :      0.37s CPU      0.37s WALL (    2067 calls)
     g_psi        :      0.05s CPU      0.05s WALL (    1579 calls)

     Called by h_psi:
     h_psi:calbec :      0.68s CPU      0.69s WALL (    2067 calls)
     vloc_psi     :     22.09s CPU     22.39s WALL (    2067 calls)
     add_vuspsi   :      0.39s CPU      0.40s WALL (    2067 calls)

     General routines
     calbec       :      0.80s CPU      0.81s WALL (    2494 calls)
     fft          :      0.59s CPU      0.62s WALL (      78 calls)
     ffts         :      0.02s CPU      0.02s WALL (       7 calls)
     fftw         :     23.13s CPU     23.45s WALL (   40924 calls)

     Parallel routines

     PWSCF        :     34.66s CPU     38.24s WALL


   This run was terminated on:  19:34:14  25Feb2026            

=------------------------------------------------------------------------------=
   JOB DONE.
=------------------------------------------------------------------------------=
