
     Program PWSCF v.7.3.1 starts on 25Feb2026 at 19:37: 0 

     This program is part of the open-source Quantum ESPRESSO suite
     for quantum simulation of materials; please cite
         "P. Giannozzi et al., J. Phys.:Condens. Matter 21 395502 (2009);
         "P. Giannozzi et al., J. Phys.:Condens. Matter 29 465901 (2017);
         "P. Giannozzi et al., J. Chem. Phys. 152 154105 (2020);
          URL http://www.quantum-espresso.org", 
     in publications or presentations arising from this work. More details at
     http://www.quantum-espresso.org/quote

     Parallel version (MPI), running on   128 processors

     MPI processes distributed on     1 nodes
     239679 MiB available memory on the printing compute node when the environment starts

     Waiting for input...
     Reading input from standard input

     Current dimensions of program PWSCF are:
     Max number of different atomic species (ntypx) = 10
     Max number of k-points (npk) =  40000
     Max angular momentum in pseudopotentials (lmaxx) =  4

     K-points division:     npool     =       4
     R & G space division:  proc/nbgrp/npool/nimage =      32
     Subspace diagonalization in iterative solution of the eigenvalue problem:
     a serial algorithm will be used


     Parallelization info
     --------------------
     sticks:   dense  smooth     PW     G-vecs:    dense   smooth      PW
     Min         230     230     66                 9460     9460    1449
     Max         231     231     67                 9463     9463    1450
     Sum        7381    7381   2117               302767   302767   46375

     Using Slab Decomposition



     bravais-lattice index     =            7
     lattice parameter (alat)  =      10.4910  a.u.
     unit-cell volume          =     314.9923 (a.u.)^3
     number of atoms/cell      =            2
     number of atomic types    =            1
     number of electrons       =        28.00
     number of Kohn-Sham states=           14
     kinetic-energy cutoff     =     370.0000  Ry
     charge density cutoff     =    1480.0000  Ry
     scf convergence threshold =      1.0E-07
     mixing beta               =       0.7000
     number of iterations used =            8  plain     mixing
     Exchange-correlation=  SLA  PW   GGX  GGC
                           (   1   4   2   2   0   0   0)

     celldm(1)=  10.491040  celldm(2)=   0.000000  celldm(3)=   0.545600
     celldm(4)=   0.000000  celldm(5)=   0.000000  celldm(6)=   0.000000

     crystal axes: (cart. coord. in units of alat)
               a(1) = (   0.500000  -0.500000   0.272800 )  
               a(2) = (   0.500000   0.500000   0.272800 )  
               a(3) = (  -0.500000  -0.500000   0.272800 )  

     reciprocal axes: (cart. coord. in units 2 pi/alat)
               b(1) = (  1.000000 -1.000000  0.000000 )  
               b(2) = (  0.000000  1.000000  1.832845 )  
               b(3) = ( -1.000000  0.000000  1.832845 )  


     PseudoPot. # 1 for Sn read from file:
     ./Sn.pw91-n-van.UPF
     MD5 check sum: a38d2a872edd1a4efd76c0a1a38f7031
     Pseudo is Ultrasoft + core correction, Zval = 14.0
     Generated by new atomic code, or converted to UPF format
     Using radial grid of  891 points,  6 beta functions with: 
                l(1) =   0
                l(2) =   0
                l(3) =   1
                l(4) =   1
                l(5) =   2
                l(6) =   2
     Q(r) pseudized with  8 coefficients,  rinner =    1.100   1.100   1.100
                                                       1.100   1.100

     atomic species   valence    mass     pseudopotential
     Sn               14.00   118.70000     Sn( 1.00)

     16 Sym. Ops., with inversion, found (12 have fractional translation)



   Cartesian axes

     site n.     atom                  positions (alat units)
         1        Sn     tau(   1) = (   0.0000000  -0.2500000   0.0682000  )
         2        Sn     tau(   2) = (   0.0000000   0.2500000  -0.0682000  )

     number of k points=   244

     Number of k-points >= 100: set verbosity='high' to print them.

     Dense  grid:   302767 G-vectors     FFT dimensions: ( 100, 100, 100)

     Estimated max dynamical RAM per process >      32.98 MB

     Estimated total dynamical RAM >       3.91 GB

     Initial potential from superposition of free atoms

     starting charge      27.9964, renormalised to      28.0000
     Starting wfcs are   18 randomized atomic wfcs

     total cpu time spent up to now is        2.9 secs

     per-process dynamical memory:    34.3 Mb

     Self-consistent Calculation

     iteration #  1     ecut=   370.00 Ry     beta= 0.70
     Davidson diagonalization with overlap
     ethr =  1.00E-02,  avg # of iterations =  3.2

     Threshold (ethr) on eigenvalues was too large:
     Diagonalizing with lowered threshold

     Davidson diagonalization with overlap
     ethr =  5.34E-05,  avg # of iterations =  4.7

     total cpu time spent up to now is       11.9 secs

     total energy              =    -325.44034109 Ry
     estimated scf accuracy    <       0.01902490 Ry

     iteration #  2     ecut=   370.00 Ry     beta= 0.70
     Davidson diagonalization with overlap
     ethr =  6.79E-05,  avg # of iterations =  4.9

     total cpu time spent up to now is       17.7 secs

     total energy              =    -325.53169799 Ry
     estimated scf accuracy    <       0.01582067 Ry

     iteration #  3     ecut=   370.00 Ry     beta= 0.70
     Davidson diagonalization with overlap
     ethr =  5.65E-05,  avg # of iterations =  2.0

     total cpu time spent up to now is       21.5 secs

     total energy              =    -325.55777117 Ry
     estimated scf accuracy    <       0.00371352 Ry

     iteration #  4     ecut=   370.00 Ry     beta= 0.70
     Davidson diagonalization with overlap
     ethr =  1.33E-05,  avg # of iterations =  2.2

     total cpu time spent up to now is       25.4 secs

     total energy              =    -325.55902033 Ry
     estimated scf accuracy    <       0.00002611 Ry

     iteration #  5     ecut=   370.00 Ry     beta= 0.70
     Davidson diagonalization with overlap
     ethr =  9.32E-08,  avg # of iterations =  4.9

     total cpu time spent up to now is       31.0 secs

     total energy              =    -325.55904385 Ry
     estimated scf accuracy    <       0.00001260 Ry

     iteration #  6     ecut=   370.00 Ry     beta= 0.70
     Davidson diagonalization with overlap
     ethr =  4.50E-08,  avg # of iterations =  1.9

     total cpu time spent up to now is       34.8 secs

     total energy              =    -325.55904470 Ry
     estimated scf accuracy    <       0.00000013 Ry

     iteration #  7     ecut=   370.00 Ry     beta= 0.70
     Davidson diagonalization with overlap
     ethr =  4.63E-10,  avg # of iterations =  3.5

     total cpu time spent up to now is       39.1 secs

     End of self-consistent calculation

     Number of k-points >= 100: set verbosity='high' to print the bands.

     highest occupied level (ev):    15.0621

!    total energy              =    -325.55904475 Ry
     estimated scf accuracy    <       0.00000001 Ry

     The total energy is the sum of the following terms:
     one-electron contribution =     -91.70543972 Ry
     hartree contribution      =      69.03036795 Ry
     xc contribution           =     -95.40991500 Ry
     ewald contribution        =    -207.47405798 Ry

     convergence has been achieved in   7 iterations

     Writing all to output data dir ./beta-EOS/beta.save/ :
     XML data file, charge density, pseudopotentials, collected wavefunctions

     init_run     :      2.52s CPU      2.62s WALL (       1 calls)
     electrons    :     35.49s CPU     36.28s WALL (       1 calls)

     Called by init_run:
     wfcinit      :      1.71s CPU      1.74s WALL (       1 calls)
     potinit      :      0.06s CPU      0.08s WALL (       1 calls)
     hinit0       :      0.49s CPU      0.49s WALL (       1 calls)

     Called by electrons:
     c_bands      :     29.98s CPU     30.59s WALL (       8 calls)
     sum_band     :      5.08s CPU      5.15s WALL (       8 calls)
     v_of_rho     :      0.30s CPU      0.35s WALL (       8 calls)
     newd         :      0.13s CPU      0.14s WALL (       8 calls)
     mix_rho      :      0.03s CPU      0.03s WALL (       8 calls)

     Called by c_bands:
     init_us_2    :      0.55s CPU      0.58s WALL (    1037 calls)
     cegterg      :     27.87s CPU     28.24s WALL (     488 calls)

     Called by *egterg:
     cdiaghg      :      0.80s CPU      0.81s WALL (    2213 calls)
     h_psi        :     25.97s CPU     26.32s WALL (    2335 calls)
     s_psi        :      0.42s CPU      0.42s WALL (    2335 calls)
     g_psi        :      0.06s CPU      0.06s WALL (    1786 calls)

     Called by h_psi:
     h_psi:calbec :      0.81s CPU      0.82s WALL (    2335 calls)
     vloc_psi     :     24.59s CPU     24.92s WALL (    2335 calls)
     add_vuspsi   :      0.45s CPU      0.46s WALL (    2335 calls)

     General routines
     calbec       :      0.95s CPU      0.96s WALL (    2823 calls)
     fft          :      0.60s CPU      0.65s WALL (      89 calls)
     ffts         :      0.02s CPU      0.02s WALL (       8 calls)
     fftw         :     25.97s CPU     26.29s WALL (   45336 calls)

     Parallel routines

     PWSCF        :     38.93s CPU     43.00s WALL


   This run was terminated on:  19:37:43  25Feb2026            

=------------------------------------------------------------------------------=
   JOB DONE.
=------------------------------------------------------------------------------=
