
     Program PWSCF v.7.3.1 starts on 25Feb2026 at 19:39:20 

     This program is part of the open-source Quantum ESPRESSO suite
     for quantum simulation of materials; please cite
         "P. Giannozzi et al., J. Phys.:Condens. Matter 21 395502 (2009);
         "P. Giannozzi et al., J. Phys.:Condens. Matter 29 465901 (2017);
         "P. Giannozzi et al., J. Chem. Phys. 152 154105 (2020);
          URL http://www.quantum-espresso.org", 
     in publications or presentations arising from this work. More details at
     http://www.quantum-espresso.org/quote

     Parallel version (MPI), running on   128 processors

     MPI processes distributed on     1 nodes
     239477 MiB available memory on the printing compute node when the environment starts

     Waiting for input...
     Reading input from standard input

     Current dimensions of program PWSCF are:
     Max number of different atomic species (ntypx) = 10
     Max number of k-points (npk) =  40000
     Max angular momentum in pseudopotentials (lmaxx) =  4

     K-points division:     npool     =       4
     R & G space division:  proc/nbgrp/npool/nimage =      32
     Subspace diagonalization in iterative solution of the eigenvalue problem:
     a serial algorithm will be used


     Parallelization info
     --------------------
     sticks:   dense  smooth     PW     G-vecs:    dense   smooth      PW
     Min         233     233     67                 9637     9637    1475
     Max         234     234     68                 9640     9640    1477
     Sum        7457    7457   2145               308455   308455   47239

     Using Slab Decomposition



     bravais-lattice index     =            7
     lattice parameter (alat)  =      10.5572  a.u.
     unit-cell volume          =     320.9857 (a.u.)^3
     number of atoms/cell      =            2
     number of atomic types    =            1
     number of electrons       =        28.00
     number of Kohn-Sham states=           14
     kinetic-energy cutoff     =     370.0000  Ry
     charge density cutoff     =    1480.0000  Ry
     scf convergence threshold =      1.0E-07
     mixing beta               =       0.7000
     number of iterations used =            8  plain     mixing
     Exchange-correlation=  SLA  PW   GGX  GGC
                           (   1   4   2   2   0   0   0)

     celldm(1)=  10.557160  celldm(2)=   0.000000  celldm(3)=   0.545600
     celldm(4)=   0.000000  celldm(5)=   0.000000  celldm(6)=   0.000000

     crystal axes: (cart. coord. in units of alat)
               a(1) = (   0.500000  -0.500000   0.272800 )  
               a(2) = (   0.500000   0.500000   0.272800 )  
               a(3) = (  -0.500000  -0.500000   0.272800 )  

     reciprocal axes: (cart. coord. in units 2 pi/alat)
               b(1) = (  1.000000 -1.000000  0.000000 )  
               b(2) = (  0.000000  1.000000  1.832845 )  
               b(3) = ( -1.000000  0.000000  1.832845 )  


     PseudoPot. # 1 for Sn read from file:
     ./Sn.pw91-n-van.UPF
     MD5 check sum: a38d2a872edd1a4efd76c0a1a38f7031
     Pseudo is Ultrasoft + core correction, Zval = 14.0
     Generated by new atomic code, or converted to UPF format
     Using radial grid of  891 points,  6 beta functions with: 
                l(1) =   0
                l(2) =   0
                l(3) =   1
                l(4) =   1
                l(5) =   2
                l(6) =   2
     Q(r) pseudized with  8 coefficients,  rinner =    1.100   1.100   1.100
                                                       1.100   1.100

     atomic species   valence    mass     pseudopotential
     Sn               14.00   118.70000     Sn( 1.00)

     16 Sym. Ops., with inversion, found (12 have fractional translation)



   Cartesian axes

     site n.     atom                  positions (alat units)
         1        Sn     tau(   1) = (   0.0000000  -0.2500000   0.0682000  )
         2        Sn     tau(   2) = (   0.0000000   0.2500000  -0.0682000  )

     number of k points=   244

     Number of k-points >= 100: set verbosity='high' to print them.

     Dense  grid:   308455 G-vectors     FFT dimensions: ( 100, 100, 100)

     Estimated max dynamical RAM per process >      33.49 MB

     Estimated total dynamical RAM >       3.97 GB

     Initial potential from superposition of free atoms

     starting charge      27.9964, renormalised to      28.0000
     Starting wfcs are   18 randomized atomic wfcs

     total cpu time spent up to now is        3.0 secs

     per-process dynamical memory:    34.3 Mb

     Self-consistent Calculation

     iteration #  1     ecut=   370.00 Ry     beta= 0.70
     Davidson diagonalization with overlap
     ethr =  1.00E-02,  avg # of iterations =  3.2

     Threshold (ethr) on eigenvalues was too large:
     Diagonalizing with lowered threshold

     Davidson diagonalization with overlap
     ethr =  5.51E-05,  avg # of iterations =  4.7

     total cpu time spent up to now is       12.0 secs

     total energy              =    -325.44382471 Ry
     estimated scf accuracy    <       0.01984201 Ry

     iteration #  2     ecut=   370.00 Ry     beta= 0.70
     Davidson diagonalization with overlap
     ethr =  7.09E-05,  avg # of iterations =  4.9

     total cpu time spent up to now is       17.8 secs

     total energy              =    -325.53814875 Ry
     estimated scf accuracy    <       0.01663616 Ry

     iteration #  3     ecut=   370.00 Ry     beta= 0.70
     Davidson diagonalization with overlap
     ethr =  5.94E-05,  avg # of iterations =  2.0

     total cpu time spent up to now is       21.6 secs

     total energy              =    -325.56442186 Ry
     estimated scf accuracy    <       0.00391824 Ry

     iteration #  4     ecut=   370.00 Ry     beta= 0.70
     Davidson diagonalization with overlap
     ethr =  1.40E-05,  avg # of iterations =  2.2

     total cpu time spent up to now is       25.6 secs

     total energy              =    -325.56612481 Ry
     estimated scf accuracy    <       0.00005678 Ry

     iteration #  5     ecut=   370.00 Ry     beta= 0.70
     Davidson diagonalization with overlap
     ethr =  2.03E-07,  avg # of iterations =  4.2

     total cpu time spent up to now is       30.6 secs

     total energy              =    -325.56615468 Ry
     estimated scf accuracy    <       0.00001169 Ry

     iteration #  6     ecut=   370.00 Ry     beta= 0.70
     Davidson diagonalization with overlap
     ethr =  4.18E-08,  avg # of iterations =  1.9

     total cpu time spent up to now is       34.4 secs

     total energy              =    -325.56615541 Ry
     estimated scf accuracy    <       0.00000014 Ry

     iteration #  7     ecut=   370.00 Ry     beta= 0.70
     Davidson diagonalization with overlap
     ethr =  5.17E-10,  avg # of iterations =  3.7

     total cpu time spent up to now is       38.8 secs

     End of self-consistent calculation

     Number of k-points >= 100: set verbosity='high' to print the bands.

     highest occupied level (ev):    14.6776

!    total energy              =    -325.56615548 Ry
     estimated scf accuracy    <       0.00000001 Ry

     The total energy is the sum of the following terms:
     one-electron contribution =     -93.73089593 Ry
     hartree contribution      =      69.72327740 Ry
     xc contribution           =     -95.38389896 Ry
     ewald contribution        =    -206.17463799 Ry

     convergence has been achieved in   7 iterations

     Writing all to output data dir ./beta-EOS/beta.save/ :
     XML data file, charge density, pseudopotentials, collected wavefunctions

     init_run     :      2.55s CPU      2.67s WALL (       1 calls)
     electrons    :     35.24s CPU     35.95s WALL (       1 calls)

     Called by init_run:
     wfcinit      :      1.75s CPU      1.79s WALL (       1 calls)
     potinit      :      0.05s CPU      0.08s WALL (       1 calls)
     hinit0       :      0.46s CPU      0.49s WALL (       1 calls)

     Called by electrons:
     c_bands      :     29.66s CPU     30.21s WALL (       8 calls)
     sum_band     :      5.12s CPU      5.17s WALL (       8 calls)
     v_of_rho     :      0.32s CPU      0.35s WALL (       8 calls)
     newd         :      0.13s CPU      0.14s WALL (       8 calls)
     mix_rho      :      0.03s CPU      0.03s WALL (       8 calls)

     Called by c_bands:
     init_us_2    :      0.56s CPU      0.59s WALL (    1037 calls)
     cegterg      :     27.46s CPU     27.77s WALL (     488 calls)

     Called by *egterg:
     cdiaghg      :      0.79s CPU      0.80s WALL (    2167 calls)
     h_psi        :     25.61s CPU     25.92s WALL (    2289 calls)
     s_psi        :      0.42s CPU      0.43s WALL (    2289 calls)
     g_psi        :      0.06s CPU      0.06s WALL (    1740 calls)

     Called by h_psi:
     h_psi:calbec :      0.81s CPU      0.81s WALL (    2289 calls)
     vloc_psi     :     24.24s CPU     24.53s WALL (    2289 calls)
     add_vuspsi   :      0.45s CPU      0.45s WALL (    2289 calls)

     General routines
     calbec       :      0.95s CPU      0.97s WALL (    2777 calls)
     fft          :      0.61s CPU      0.65s WALL (      89 calls)
     ffts         :      0.02s CPU      0.02s WALL (       8 calls)
     fftw         :     25.64s CPU     25.92s WALL (   44388 calls)

     Parallel routines

     PWSCF        :     38.80s CPU     42.28s WALL


   This run was terminated on:  19:40: 2  25Feb2026            

=------------------------------------------------------------------------------=
   JOB DONE.
=------------------------------------------------------------------------------=
