
     Program PWSCF v.7.3.1 starts on 25Feb2026 at 19:40: 6 

     This program is part of the open-source Quantum ESPRESSO suite
     for quantum simulation of materials; please cite
         "P. Giannozzi et al., J. Phys.:Condens. Matter 21 395502 (2009);
         "P. Giannozzi et al., J. Phys.:Condens. Matter 29 465901 (2017);
         "P. Giannozzi et al., J. Chem. Phys. 152 154105 (2020);
          URL http://www.quantum-espresso.org", 
     in publications or presentations arising from this work. More details at
     http://www.quantum-espresso.org/quote

     Parallel version (MPI), running on   128 processors

     MPI processes distributed on     1 nodes
     239498 MiB available memory on the printing compute node when the environment starts

     Waiting for input...
     Reading input from standard input

     Current dimensions of program PWSCF are:
     Max number of different atomic species (ntypx) = 10
     Max number of k-points (npk) =  40000
     Max angular momentum in pseudopotentials (lmaxx) =  4

     K-points division:     npool     =       4
     R & G space division:  proc/nbgrp/npool/nimage =      32
     Subspace diagonalization in iterative solution of the eigenvalue problem:
     a serial algorithm will be used


     Parallelization info
     --------------------
     sticks:   dense  smooth     PW     G-vecs:    dense   smooth      PW
     Min         234     234     67                 9704     9704    1486
     Max         235     235     68                 9706     9706    1487
     Sum        7505    7505   2153               310559   310559   47567

     Using Slab Decomposition



     bravais-lattice index     =            7
     lattice parameter (alat)  =      10.5792  a.u.
     unit-cell volume          =     323.0002 (a.u.)^3
     number of atoms/cell      =            2
     number of atomic types    =            1
     number of electrons       =        28.00
     number of Kohn-Sham states=           14
     kinetic-energy cutoff     =     370.0000  Ry
     charge density cutoff     =    1480.0000  Ry
     scf convergence threshold =      1.0E-07
     mixing beta               =       0.7000
     number of iterations used =            8  plain     mixing
     Exchange-correlation=  SLA  PW   GGX  GGC
                           (   1   4   2   2   0   0   0)

     celldm(1)=  10.579200  celldm(2)=   0.000000  celldm(3)=   0.545600
     celldm(4)=   0.000000  celldm(5)=   0.000000  celldm(6)=   0.000000

     crystal axes: (cart. coord. in units of alat)
               a(1) = (   0.500000  -0.500000   0.272800 )  
               a(2) = (   0.500000   0.500000   0.272800 )  
               a(3) = (  -0.500000  -0.500000   0.272800 )  

     reciprocal axes: (cart. coord. in units 2 pi/alat)
               b(1) = (  1.000000 -1.000000  0.000000 )  
               b(2) = (  0.000000  1.000000  1.832845 )  
               b(3) = ( -1.000000  0.000000  1.832845 )  


     PseudoPot. # 1 for Sn read from file:
     ./Sn.pw91-n-van.UPF
     MD5 check sum: a38d2a872edd1a4efd76c0a1a38f7031
     Pseudo is Ultrasoft + core correction, Zval = 14.0
     Generated by new atomic code, or converted to UPF format
     Using radial grid of  891 points,  6 beta functions with: 
                l(1) =   0
                l(2) =   0
                l(3) =   1
                l(4) =   1
                l(5) =   2
                l(6) =   2
     Q(r) pseudized with  8 coefficients,  rinner =    1.100   1.100   1.100
                                                       1.100   1.100

     atomic species   valence    mass     pseudopotential
     Sn               14.00   118.70000     Sn( 1.00)

     16 Sym. Ops., with inversion, found (12 have fractional translation)



   Cartesian axes

     site n.     atom                  positions (alat units)
         1        Sn     tau(   1) = (   0.0000000  -0.2500000   0.0682000  )
         2        Sn     tau(   2) = (   0.0000000   0.2500000  -0.0682000  )

     number of k points=   244

     Number of k-points >= 100: set verbosity='high' to print them.

     Dense  grid:   310559 G-vectors     FFT dimensions: ( 100, 100, 100)

     Estimated max dynamical RAM per process >      33.67 MB

     Estimated total dynamical RAM >       3.99 GB

     Initial potential from superposition of free atoms

     starting charge      27.9964, renormalised to      28.0000
     Starting wfcs are   18 randomized atomic wfcs

     total cpu time spent up to now is        2.9 secs

     per-process dynamical memory:    34.8 Mb

     Self-consistent Calculation

     iteration #  1     ecut=   370.00 Ry     beta= 0.70
     Davidson diagonalization with overlap
     ethr =  1.00E-02,  avg # of iterations =  3.2

     Threshold (ethr) on eigenvalues was too large:
     Diagonalizing with lowered threshold

     Davidson diagonalization with overlap
     ethr =  5.70E-05,  avg # of iterations =  4.6

     total cpu time spent up to now is       12.0 secs

     total energy              =    -325.44411841 Ry
     estimated scf accuracy    <       0.02016471 Ry

     iteration #  2     ecut=   370.00 Ry     beta= 0.70
     Davidson diagonalization with overlap
     ethr =  7.20E-05,  avg # of iterations =  4.9

     total cpu time spent up to now is       17.8 secs

     total energy              =    -325.53991987 Ry
     estimated scf accuracy    <       0.01709621 Ry

     iteration #  3     ecut=   370.00 Ry     beta= 0.70
     Davidson diagonalization with overlap
     ethr =  6.11E-05,  avg # of iterations =  2.0

     total cpu time spent up to now is       21.7 secs

     total energy              =    -325.56634648 Ry
     estimated scf accuracy    <       0.00404316 Ry

     iteration #  4     ecut=   370.00 Ry     beta= 0.70
     Davidson diagonalization with overlap
     ethr =  1.44E-05,  avg # of iterations =  2.2

     total cpu time spent up to now is       25.7 secs

     total energy              =    -325.56829188 Ry
     estimated scf accuracy    <       0.00007569 Ry

     iteration #  5     ecut=   370.00 Ry     beta= 0.70
     Davidson diagonalization with overlap
     ethr =  2.70E-07,  avg # of iterations =  4.1

     total cpu time spent up to now is       30.4 secs

     total energy              =    -325.56834797 Ry
     estimated scf accuracy    <       0.00001392 Ry

     iteration #  6     ecut=   370.00 Ry     beta= 0.70
     Davidson diagonalization with overlap
     ethr =  4.97E-08,  avg # of iterations =  1.4

     total cpu time spent up to now is       34.0 secs

     total energy              =    -325.56835360 Ry
     estimated scf accuracy    <       0.00000500 Ry

     iteration #  7     ecut=   370.00 Ry     beta= 0.70
     Davidson diagonalization with overlap
     ethr =  1.78E-08,  avg # of iterations =  1.8

     total cpu time spent up to now is       37.8 secs

     total energy              =    -325.56835386 Ry
     estimated scf accuracy    <       0.00000011 Ry

     iteration #  8     ecut=   370.00 Ry     beta= 0.70
     Davidson diagonalization with overlap
     ethr =  4.06E-10,  avg # of iterations =  3.5

     total cpu time spent up to now is       42.2 secs

     End of self-consistent calculation

     Number of k-points >= 100: set verbosity='high' to print the bands.

     highest occupied level (ev):    14.5532

!    total energy              =    -325.56835390 Ry
     estimated scf accuracy    <          1.5E-09 Ry

     The total energy is the sum of the following terms:
     one-electron contribution =     -94.40156990 Ry
     hartree contribution      =      69.95381114 Ry
     xc contribution           =     -95.37548764 Ry
     ewald contribution        =    -205.74510750 Ry

     convergence has been achieved in   8 iterations

     Writing all to output data dir ./beta-EOS/beta.save/ :
     XML data file, charge density, pseudopotentials, collected wavefunctions

     init_run     :      2.53s CPU      2.64s WALL (       1 calls)
     electrons    :     38.50s CPU     39.41s WALL (       1 calls)

     Called by init_run:
     wfcinit      :      1.71s CPU      1.75s WALL (       1 calls)
     potinit      :      0.05s CPU      0.06s WALL (       1 calls)
     hinit0       :      0.49s CPU      0.50s WALL (       1 calls)

     Called by electrons:
     c_bands      :     32.19s CPU     32.92s WALL (       9 calls)
     sum_band     :      5.77s CPU      5.84s WALL (       9 calls)
     v_of_rho     :      0.35s CPU      0.38s WALL (       9 calls)
     newd         :      0.15s CPU      0.16s WALL (       9 calls)
     mix_rho      :      0.04s CPU      0.04s WALL (       9 calls)

     Called by c_bands:
     init_us_2    :      0.65s CPU      0.68s WALL (    1159 calls)
     cegterg      :     29.69s CPU     30.11s WALL (     549 calls)

     Called by *egterg:
     cdiaghg      :      0.82s CPU      0.83s WALL (    2287 calls)
     h_psi        :     27.62s CPU     28.04s WALL (    2409 calls)
     s_psi        :      0.45s CPU      0.45s WALL (    2409 calls)
     g_psi        :      0.06s CPU      0.06s WALL (    1799 calls)

     Called by h_psi:
     h_psi:calbec :      0.84s CPU      0.85s WALL (    2409 calls)
     vloc_psi     :     26.15s CPU     26.55s WALL (    2409 calls)
     add_vuspsi   :      0.49s CPU      0.50s WALL (    2409 calls)

     General routines
     calbec       :      1.01s CPU      1.03s WALL (    2958 calls)
     fft          :      0.64s CPU      0.68s WALL (     100 calls)
     ffts         :      0.02s CPU      0.02s WALL (       9 calls)
     fftw         :     27.80s CPU     28.18s WALL (   48346 calls)

     Parallel routines

     PWSCF        :     42.10s CPU     45.52s WALL


   This run was terminated on:  19:40:51  25Feb2026            

=------------------------------------------------------------------------------=
   JOB DONE.
=------------------------------------------------------------------------------=
