
     Program PWSCF v.7.3.1 starts on 25Feb2026 at 19:40:54 

     This program is part of the open-source Quantum ESPRESSO suite
     for quantum simulation of materials; please cite
         "P. Giannozzi et al., J. Phys.:Condens. Matter 21 395502 (2009);
         "P. Giannozzi et al., J. Phys.:Condens. Matter 29 465901 (2017);
         "P. Giannozzi et al., J. Chem. Phys. 152 154105 (2020);
          URL http://www.quantum-espresso.org", 
     in publications or presentations arising from this work. More details at
     http://www.quantum-espresso.org/quote

     Parallel version (MPI), running on   128 processors

     MPI processes distributed on     1 nodes
     239479 MiB available memory on the printing compute node when the environment starts

     Waiting for input...
     Reading input from standard input

     Current dimensions of program PWSCF are:
     Max number of different atomic species (ntypx) = 10
     Max number of k-points (npk) =  40000
     Max angular momentum in pseudopotentials (lmaxx) =  4

     K-points division:     npool     =       4
     R & G space division:  proc/nbgrp/npool/nimage =      32
     Subspace diagonalization in iterative solution of the eigenvalue problem:
     a serial algorithm will be used


     Parallelization info
     --------------------
     sticks:   dense  smooth     PW     G-vecs:    dense   smooth      PW
     Min         235     235     67                 9763     9763    1494
     Max         236     236     68                 9766     9766    1497
     Sum        7537    7537   2157               312471   312471   47847

     Using Slab Decomposition



     bravais-lattice index     =            7
     lattice parameter (alat)  =      10.6012  a.u.
     unit-cell volume          =     325.0232 (a.u.)^3
     number of atoms/cell      =            2
     number of atomic types    =            1
     number of electrons       =        28.00
     number of Kohn-Sham states=           14
     kinetic-energy cutoff     =     370.0000  Ry
     charge density cutoff     =    1480.0000  Ry
     scf convergence threshold =      1.0E-07
     mixing beta               =       0.7000
     number of iterations used =            8  plain     mixing
     Exchange-correlation=  SLA  PW   GGX  GGC
                           (   1   4   2   2   0   0   0)

     celldm(1)=  10.601240  celldm(2)=   0.000000  celldm(3)=   0.545600
     celldm(4)=   0.000000  celldm(5)=   0.000000  celldm(6)=   0.000000

     crystal axes: (cart. coord. in units of alat)
               a(1) = (   0.500000  -0.500000   0.272800 )  
               a(2) = (   0.500000   0.500000   0.272800 )  
               a(3) = (  -0.500000  -0.500000   0.272800 )  

     reciprocal axes: (cart. coord. in units 2 pi/alat)
               b(1) = (  1.000000 -1.000000  0.000000 )  
               b(2) = (  0.000000  1.000000  1.832845 )  
               b(3) = ( -1.000000  0.000000  1.832845 )  


     PseudoPot. # 1 for Sn read from file:
     ./Sn.pw91-n-van.UPF
     MD5 check sum: a38d2a872edd1a4efd76c0a1a38f7031
     Pseudo is Ultrasoft + core correction, Zval = 14.0
     Generated by new atomic code, or converted to UPF format
     Using radial grid of  891 points,  6 beta functions with: 
                l(1) =   0
                l(2) =   0
                l(3) =   1
                l(4) =   1
                l(5) =   2
                l(6) =   2
     Q(r) pseudized with  8 coefficients,  rinner =    1.100   1.100   1.100
                                                       1.100   1.100

     atomic species   valence    mass     pseudopotential
     Sn               14.00   118.70000     Sn( 1.00)

     16 Sym. Ops., with inversion, found (12 have fractional translation)



   Cartesian axes

     site n.     atom                  positions (alat units)
         1        Sn     tau(   1) = (   0.0000000  -0.2500000   0.0682000  )
         2        Sn     tau(   2) = (   0.0000000   0.2500000  -0.0682000  )

     number of k points=   244

     Number of k-points >= 100: set verbosity='high' to print them.

     Dense  grid:   312471 G-vectors     FFT dimensions: ( 100, 100, 100)

     Estimated max dynamical RAM per process >      33.83 MB

     Estimated total dynamical RAM >       4.01 GB

     Initial potential from superposition of free atoms

     starting charge      27.9964, renormalised to      28.0000
     Starting wfcs are   18 randomized atomic wfcs

     total cpu time spent up to now is        3.0 secs

     per-process dynamical memory:    35.3 Mb

     Self-consistent Calculation

     iteration #  1     ecut=   370.00 Ry     beta= 0.70
     Davidson diagonalization with overlap
     ethr =  1.00E-02,  avg # of iterations =  3.2

     Threshold (ethr) on eigenvalues was too large:
     Diagonalizing with lowered threshold

     Davidson diagonalization with overlap
     ethr =  6.06E-05,  avg # of iterations =  4.6

     total cpu time spent up to now is       12.0 secs

     total energy              =    -325.44151063 Ry
     estimated scf accuracy    <       0.02122890 Ry

     iteration #  2     ecut=   370.00 Ry     beta= 0.70
     Davidson diagonalization with overlap
     ethr =  7.58E-05,  avg # of iterations =  4.9

     total cpu time spent up to now is       17.9 secs

     total energy              =    -325.54131775 Ry
     estimated scf accuracy    <       0.01812445 Ry

     iteration #  3     ecut=   370.00 Ry     beta= 0.70
     Davidson diagonalization with overlap
     ethr =  6.47E-05,  avg # of iterations =  2.0

     total cpu time spent up to now is       21.8 secs

     total energy              =    -325.56768705 Ry
     estimated scf accuracy    <       0.00430034 Ry

     iteration #  4     ecut=   370.00 Ry     beta= 0.70
     Davidson diagonalization with overlap
     ethr =  1.54E-05,  avg # of iterations =  2.2

     total cpu time spent up to now is       25.7 secs

     total energy              =    -325.57029408 Ry
     estimated scf accuracy    <       0.00013278 Ry

     iteration #  5     ecut=   370.00 Ry     beta= 0.70
     Davidson diagonalization with overlap
     ethr =  4.74E-07,  avg # of iterations =  3.8

     total cpu time spent up to now is       30.3 secs

     total energy              =    -325.57046265 Ry
     estimated scf accuracy    <       0.00001380 Ry

     iteration #  6     ecut=   370.00 Ry     beta= 0.70
     Davidson diagonalization with overlap
     ethr =  4.93E-08,  avg # of iterations =  1.8

     total cpu time spent up to now is       34.1 secs

     total energy              =    -325.57046890 Ry
     estimated scf accuracy    <       0.00000488 Ry

     iteration #  7     ecut=   370.00 Ry     beta= 0.70
     Davidson diagonalization with overlap
     ethr =  1.74E-08,  avg # of iterations =  1.9

     total cpu time spent up to now is       37.9 secs

     total energy              =    -325.57046917 Ry
     estimated scf accuracy    <       0.00000013 Ry

     iteration #  8     ecut=   370.00 Ry     beta= 0.70
     Davidson diagonalization with overlap
     ethr =  4.61E-10,  avg # of iterations =  3.5

     total cpu time spent up to now is       42.4 secs

     total energy              =    -325.57047174 Ry
     estimated scf accuracy    <       0.00000152 Ry

     iteration #  9     ecut=   370.00 Ry     beta= 0.70
     Davidson diagonalization with overlap
     ethr =  4.61E-10,  avg # of iterations =  1.0

     total cpu time spent up to now is       45.8 secs

     total energy              =    -325.57047154 Ry
     estimated scf accuracy    <       0.00000167 Ry

     iteration # 10     ecut=   370.00 Ry     beta= 0.70
     Davidson diagonalization with overlap
     ethr =  4.61E-10,  avg # of iterations =  1.8

     total cpu time spent up to now is       49.5 secs

     total energy              =    -325.57047101 Ry
     estimated scf accuracy    <       0.00000117 Ry

     iteration # 11     ecut=   370.00 Ry     beta= 0.70
     Davidson diagonalization with overlap
     ethr =  4.61E-10,  avg # of iterations =  4.3

     total cpu time spent up to now is       55.0 secs

     End of self-consistent calculation

     Number of k-points >= 100: set verbosity='high' to print the bands.

     highest occupied level (ev):    14.4301

!    total energy              =    -325.57047111 Ry
     estimated scf accuracy    <       0.00000001 Ry

     The total energy is the sum of the following terms:
     one-electron contribution =     -95.06998947 Ry
     hartree contribution      =      70.18398139 Ry
     xc contribution           =     -95.36710004 Ry
     ewald contribution        =    -205.31736299 Ry

     convergence has been achieved in  11 iterations

     Writing all to output data dir ./beta-EOS/beta.save/ :
     XML data file, charge density, pseudopotentials, collected wavefunctions

     init_run     :      2.54s CPU      2.65s WALL (       1 calls)
     electrons    :     51.02s CPU     52.10s WALL (       1 calls)

     Called by init_run:
     wfcinit      :      1.72s CPU      1.76s WALL (       1 calls)
     potinit      :      0.06s CPU      0.07s WALL (       1 calls)
     hinit0       :      0.47s CPU      0.49s WALL (       1 calls)

     Called by electrons:
     c_bands      :     42.57s CPU     43.45s WALL (      12 calls)
     sum_band     :      7.70s CPU      7.79s WALL (      12 calls)
     v_of_rho     :      0.49s CPU      0.51s WALL (      12 calls)
     newd         :      0.20s CPU      0.21s WALL (      12 calls)
     mix_rho      :      0.06s CPU      0.07s WALL (      12 calls)

     Called by c_bands:
     init_us_2    :      0.85s CPU      0.89s WALL (    1525 calls)
     cegterg      :     39.25s CPU     39.72s WALL (     732 calls)

     Called by *egterg:
     cdiaghg      :      1.06s CPU      1.07s WALL (    2958 calls)
     h_psi        :     36.10s CPU     36.55s WALL (    3080 calls)
     s_psi        :      0.58s CPU      0.59s WALL (    3080 calls)
     g_psi        :      0.08s CPU      0.08s WALL (    2287 calls)

     Called by h_psi:
     h_psi:calbec :      1.13s CPU      1.14s WALL (    3080 calls)
     vloc_psi     :     34.15s CPU     34.58s WALL (    3080 calls)
     add_vuspsi   :      0.64s CPU      0.65s WALL (    3080 calls)

     General routines
     calbec       :      1.35s CPU      1.36s WALL (    3812 calls)
     fft          :      0.71s CPU      0.75s WALL (     133 calls)
     ffts         :      0.03s CPU      0.03s WALL (      12 calls)
     fftw         :     36.54s CPU     36.98s WALL (   63154 calls)

     Parallel routines

     PWSCF        :     54.58s CPU     58.32s WALL


   This run was terminated on:  19:41:52  25Feb2026            

=------------------------------------------------------------------------------=
   JOB DONE.
=------------------------------------------------------------------------------=
