
     Program PWSCF v.7.3.1 starts on 25Feb2026 at 19:48:15 

     This program is part of the open-source Quantum ESPRESSO suite
     for quantum simulation of materials; please cite
         "P. Giannozzi et al., J. Phys.:Condens. Matter 21 395502 (2009);
         "P. Giannozzi et al., J. Phys.:Condens. Matter 29 465901 (2017);
         "P. Giannozzi et al., J. Chem. Phys. 152 154105 (2020);
          URL http://www.quantum-espresso.org", 
     in publications or presentations arising from this work. More details at
     http://www.quantum-espresso.org/quote

     Parallel version (MPI), running on   128 processors

     MPI processes distributed on     1 nodes
     234541 MiB available memory on the printing compute node when the environment starts

     Waiting for input...
     Reading input from standard input

     Current dimensions of program PWSCF are:
     Max number of different atomic species (ntypx) = 10
     Max number of k-points (npk) =  40000
     Max angular momentum in pseudopotentials (lmaxx) =  4

     K-points division:     npool     =       4
     R & G space division:  proc/nbgrp/npool/nimage =      32
     Subspace diagonalization in iterative solution of the eigenvalue problem:
     a serial algorithm will be used


     Parallelization info
     --------------------
     sticks:   dense  smooth     PW     G-vecs:    dense   smooth      PW
     Min         240     240     69                10125    10125    1542
     Max         241     241     70                10129    10129    1544
     Sum        7711    7711   2209               324099   324099   49383

     Using Slab Decomposition



     bravais-lattice index     =            7
     lattice parameter (alat)  =      10.7335  a.u.
     unit-cell volume          =     337.3386 (a.u.)^3
     number of atoms/cell      =            2
     number of atomic types    =            1
     number of electrons       =        28.00
     number of Kohn-Sham states=           14
     kinetic-energy cutoff     =     370.0000  Ry
     charge density cutoff     =    1480.0000  Ry
     scf convergence threshold =      1.0E-07
     mixing beta               =       0.7000
     number of iterations used =            8  plain     mixing
     Exchange-correlation=  SLA  PW   GGX  GGC
                           (   1   4   2   2   0   0   0)

     celldm(1)=  10.733480  celldm(2)=   0.000000  celldm(3)=   0.545600
     celldm(4)=   0.000000  celldm(5)=   0.000000  celldm(6)=   0.000000

     crystal axes: (cart. coord. in units of alat)
               a(1) = (   0.500000  -0.500000   0.272800 )  
               a(2) = (   0.500000   0.500000   0.272800 )  
               a(3) = (  -0.500000  -0.500000   0.272800 )  

     reciprocal axes: (cart. coord. in units 2 pi/alat)
               b(1) = (  1.000000 -1.000000  0.000000 )  
               b(2) = (  0.000000  1.000000  1.832845 )  
               b(3) = ( -1.000000  0.000000  1.832845 )  


     PseudoPot. # 1 for Sn read from file:
     ./Sn.pw91-n-van.UPF
     MD5 check sum: a38d2a872edd1a4efd76c0a1a38f7031
     Pseudo is Ultrasoft + core correction, Zval = 14.0
     Generated by new atomic code, or converted to UPF format
     Using radial grid of  891 points,  6 beta functions with: 
                l(1) =   0
                l(2) =   0
                l(3) =   1
                l(4) =   1
                l(5) =   2
                l(6) =   2
     Q(r) pseudized with  8 coefficients,  rinner =    1.100   1.100   1.100
                                                       1.100   1.100

     atomic species   valence    mass     pseudopotential
     Sn               14.00   118.70000     Sn( 1.00)

     16 Sym. Ops., with inversion, found (12 have fractional translation)



   Cartesian axes

     site n.     atom                  positions (alat units)
         1        Sn     tau(   1) = (   0.0000000  -0.2500000   0.0682000  )
         2        Sn     tau(   2) = (   0.0000000   0.2500000  -0.0682000  )

     number of k points=   244

     Number of k-points >= 100: set verbosity='high' to print them.

     Dense  grid:   324099 G-vectors     FFT dimensions: ( 100, 100, 100)

     Estimated max dynamical RAM per process >      34.89 MB

     Estimated total dynamical RAM >       4.13 GB

     Initial potential from superposition of free atoms

     starting charge      27.9964, renormalised to      28.0000
     Starting wfcs are   18 randomized atomic wfcs

     total cpu time spent up to now is        3.0 secs

     per-process dynamical memory:    36.2 Mb

     Self-consistent Calculation

     iteration #  1     ecut=   370.00 Ry     beta= 0.70
     Davidson diagonalization with overlap
     ethr =  1.00E-02,  avg # of iterations =  3.2

     Threshold (ethr) on eigenvalues was too large:
     Diagonalizing with lowered threshold

     Davidson diagonalization with overlap
     ethr =  6.68E-05,  avg # of iterations =  4.6

     total cpu time spent up to now is       12.2 secs

     total energy              =    -325.44363092 Ry
     estimated scf accuracy    <       0.02354558 Ry

     iteration #  2     ecut=   370.00 Ry     beta= 0.70
     Davidson diagonalization with overlap
     ethr =  8.41E-05,  avg # of iterations =  4.9

     total cpu time spent up to now is       18.1 secs

     total energy              =    -325.55069554 Ry
     estimated scf accuracy    <       0.02014275 Ry

     iteration #  3     ecut=   370.00 Ry     beta= 0.70
     Davidson diagonalization with overlap
     ethr =  7.19E-05,  avg # of iterations =  2.0

     total cpu time spent up to now is       22.0 secs

     total energy              =    -325.57692983 Ry
     estimated scf accuracy    <       0.00476324 Ry

     iteration #  4     ecut=   370.00 Ry     beta= 0.70
     Davidson diagonalization with overlap
     ethr =  1.70E-05,  avg # of iterations =  2.2

     total cpu time spent up to now is       26.1 secs

     total energy              =    -325.58134478 Ry
     estimated scf accuracy    <       0.00034649 Ry

     iteration #  5     ecut=   370.00 Ry     beta= 0.70
     Davidson diagonalization with overlap
     ethr =  1.24E-06,  avg # of iterations =  3.3

     total cpu time spent up to now is       30.6 secs

     total energy              =    -325.58151557 Ry
     estimated scf accuracy    <       0.00000887 Ry

     iteration #  6     ecut=   370.00 Ry     beta= 0.70
     Davidson diagonalization with overlap
     ethr =  3.17E-08,  avg # of iterations =  3.3

     total cpu time spent up to now is       35.0 secs

     total energy              =    -325.58152701 Ry
     estimated scf accuracy    <       0.00000278 Ry

     iteration #  7     ecut=   370.00 Ry     beta= 0.70
     Davidson diagonalization with overlap
     ethr =  9.92E-09,  avg # of iterations =  1.2

     total cpu time spent up to now is       38.6 secs

     total energy              =    -325.58152651 Ry
     estimated scf accuracy    <       0.00000126 Ry

     iteration #  8     ecut=   370.00 Ry     beta= 0.70
     Davidson diagonalization with overlap
     ethr =  4.50E-09,  avg # of iterations =  2.6

     total cpu time spent up to now is       42.8 secs

     End of self-consistent calculation

     Number of k-points >= 100: set verbosity='high' to print the bands.

     highest occupied level (ev):    13.7111

!    total energy              =    -325.58152672 Ry
     estimated scf accuracy    <       0.00000002 Ry

     The total energy is the sum of the following terms:
     one-electron contribution =     -99.02989039 Ry
     hartree contribution      =      71.55455605 Ry
     xc contribution           =     -95.31840675 Ry
     ewald contribution        =    -202.78778562 Ry

     convergence has been achieved in   8 iterations

     Writing all to output data dir ./beta-EOS/beta.save/ :
     XML data file, charge density, pseudopotentials, collected wavefunctions

     init_run     :      2.63s CPU      2.71s WALL (       1 calls)
     electrons    :     39.00s CPU     39.91s WALL (       1 calls)

     Called by init_run:
     wfcinit      :      1.80s CPU      1.83s WALL (       1 calls)
     potinit      :      0.05s CPU      0.07s WALL (       1 calls)
     hinit0       :      0.47s CPU      0.49s WALL (       1 calls)

     Called by electrons:
     c_bands      :     32.60s CPU     33.28s WALL (       9 calls)
     sum_band     :      5.87s CPU      5.96s WALL (       9 calls)
     v_of_rho     :      0.34s CPU      0.38s WALL (       9 calls)
     newd         :      0.15s CPU      0.16s WALL (       9 calls)
     mix_rho      :      0.04s CPU      0.04s WALL (       9 calls)

     Called by c_bands:
     init_us_2    :      0.68s CPU      0.71s WALL (    1159 calls)
     cegterg      :     30.01s CPU     30.40s WALL (     549 calls)

     Called by *egterg:
     cdiaghg      :      0.81s CPU      0.82s WALL (    2249 calls)
     h_psi        :     27.90s CPU     28.25s WALL (    2371 calls)
     s_psi        :      0.46s CPU      0.47s WALL (    2371 calls)
     g_psi        :      0.06s CPU      0.06s WALL (    1761 calls)

     Called by h_psi:
     h_psi:calbec :      0.91s CPU      0.92s WALL (    2371 calls)
     vloc_psi     :     26.34s CPU     26.68s WALL (    2371 calls)
     add_vuspsi   :      0.51s CPU      0.51s WALL (    2371 calls)

     General routines
     calbec       :      1.07s CPU      1.09s WALL (    2920 calls)
     fft          :      0.64s CPU      0.68s WALL (     100 calls)
     ffts         :      0.02s CPU      0.02s WALL (       9 calls)
     fftw         :     28.10s CPU     28.45s WALL (   47902 calls)

     Parallel routines

     PWSCF        :     42.58s CPU     46.72s WALL


   This run was terminated on:  19:49: 2  25Feb2026            

=------------------------------------------------------------------------------=
   JOB DONE.
=------------------------------------------------------------------------------=
