
     Program PWSCF v.7.3.1 starts on 25Feb2026 at 19:49:57 

     This program is part of the open-source Quantum ESPRESSO suite
     for quantum simulation of materials; please cite
         "P. Giannozzi et al., J. Phys.:Condens. Matter 21 395502 (2009);
         "P. Giannozzi et al., J. Phys.:Condens. Matter 29 465901 (2017);
         "P. Giannozzi et al., J. Chem. Phys. 152 154105 (2020);
          URL http://www.quantum-espresso.org", 
     in publications or presentations arising from this work. More details at
     http://www.quantum-espresso.org/quote

     Parallel version (MPI), running on   128 processors

     MPI processes distributed on     1 nodes
     234413 MiB available memory on the printing compute node when the environment starts

     Waiting for input...
     Reading input from standard input

     Current dimensions of program PWSCF are:
     Max number of different atomic species (ntypx) = 10
     Max number of k-points (npk) =  40000
     Max angular momentum in pseudopotentials (lmaxx) =  4

     K-points division:     npool     =       4
     R & G space division:  proc/nbgrp/npool/nimage =      32
     Subspace diagonalization in iterative solution of the eigenvalue problem:
     a serial algorithm will be used


     Parallelization info
     --------------------
     sticks:   dense  smooth     PW     G-vecs:    dense   smooth      PW
     Min         242     242     69                10253    10253    1565
     Max         243     243     70                10256    10256    1568
     Sum        7775    7775   2223               328157   328157   50111

     Using Slab Decomposition



     bravais-lattice index     =            7
     lattice parameter (alat)  =      10.7776  a.u.
     unit-cell volume          =     341.5118 (a.u.)^3
     number of atoms/cell      =            2
     number of atomic types    =            1
     number of electrons       =        28.00
     number of Kohn-Sham states=           14
     kinetic-energy cutoff     =     370.0000  Ry
     charge density cutoff     =    1480.0000  Ry
     scf convergence threshold =      1.0E-07
     mixing beta               =       0.7000
     number of iterations used =            8  plain     mixing
     Exchange-correlation=  SLA  PW   GGX  GGC
                           (   1   4   2   2   0   0   0)

     celldm(1)=  10.777560  celldm(2)=   0.000000  celldm(3)=   0.545600
     celldm(4)=   0.000000  celldm(5)=   0.000000  celldm(6)=   0.000000

     crystal axes: (cart. coord. in units of alat)
               a(1) = (   0.500000  -0.500000   0.272800 )  
               a(2) = (   0.500000   0.500000   0.272800 )  
               a(3) = (  -0.500000  -0.500000   0.272800 )  

     reciprocal axes: (cart. coord. in units 2 pi/alat)
               b(1) = (  1.000000 -1.000000  0.000000 )  
               b(2) = (  0.000000  1.000000  1.832845 )  
               b(3) = ( -1.000000  0.000000  1.832845 )  


     PseudoPot. # 1 for Sn read from file:
     ./Sn.pw91-n-van.UPF
     MD5 check sum: a38d2a872edd1a4efd76c0a1a38f7031
     Pseudo is Ultrasoft + core correction, Zval = 14.0
     Generated by new atomic code, or converted to UPF format
     Using radial grid of  891 points,  6 beta functions with: 
                l(1) =   0
                l(2) =   0
                l(3) =   1
                l(4) =   1
                l(5) =   2
                l(6) =   2
     Q(r) pseudized with  8 coefficients,  rinner =    1.100   1.100   1.100
                                                       1.100   1.100

     atomic species   valence    mass     pseudopotential
     Sn               14.00   118.70000     Sn( 1.00)

     16 Sym. Ops., with inversion, found (12 have fractional translation)



   Cartesian axes

     site n.     atom                  positions (alat units)
         1        Sn     tau(   1) = (   0.0000000  -0.2500000   0.0682000  )
         2        Sn     tau(   2) = (   0.0000000   0.2500000  -0.0682000  )

     number of k points=   244

     Number of k-points >= 100: set verbosity='high' to print them.

     Dense  grid:   328157 G-vectors     FFT dimensions: ( 108, 108, 108)

     Estimated max dynamical RAM per process >      35.71 MB

     Estimated total dynamical RAM >       4.23 GB

     Initial potential from superposition of free atoms

     starting charge      27.9964, renormalised to      28.0000
     Starting wfcs are   18 randomized atomic wfcs

     total cpu time spent up to now is        3.4 secs

     per-process dynamical memory:    36.7 Mb

     Self-consistent Calculation

     iteration #  1     ecut=   370.00 Ry     beta= 0.70
     Davidson diagonalization with overlap
     ethr =  1.00E-02,  avg # of iterations =  3.2

     Threshold (ethr) on eigenvalues was too large:
     Diagonalizing with lowered threshold

     Davidson diagonalization with overlap
     ethr =  6.90E-05,  avg # of iterations =  4.5

     total cpu time spent up to now is       14.1 secs

     total energy              =    -325.44481810 Ry
     estimated scf accuracy    <       0.02415285 Ry

     iteration #  2     ecut=   370.00 Ry     beta= 0.70
     Davidson diagonalization with overlap
     ethr =  8.63E-05,  avg # of iterations =  4.9

     total cpu time spent up to now is       21.2 secs

     total energy              =    -325.55322933 Ry
     estimated scf accuracy    <       0.02059239 Ry

     iteration #  3     ecut=   370.00 Ry     beta= 0.70
     Davidson diagonalization with overlap
     ethr =  7.35E-05,  avg # of iterations =  2.0

     total cpu time spent up to now is       25.9 secs

     total energy              =    -325.57936752 Ry
     estimated scf accuracy    <       0.00485025 Ry

     iteration #  4     ecut=   370.00 Ry     beta= 0.70
     Davidson diagonalization with overlap
     ethr =  1.73E-05,  avg # of iterations =  2.2

     total cpu time spent up to now is       30.7 secs

     total energy              =    -325.58443602 Ry
     estimated scf accuracy    <       0.00041716 Ry

     iteration #  5     ecut=   370.00 Ry     beta= 0.70
     Davidson diagonalization with overlap
     ethr =  1.49E-06,  avg # of iterations =  3.1

     total cpu time spent up to now is       35.9 secs

     total energy              =    -325.58451911 Ry
     estimated scf accuracy    <       0.00000901 Ry

     iteration #  6     ecut=   370.00 Ry     beta= 0.70
     Davidson diagonalization with overlap
     ethr =  3.22E-08,  avg # of iterations =  3.7

     total cpu time spent up to now is       41.3 secs

     total energy              =    -325.58462831 Ry
     estimated scf accuracy    <       0.00000071 Ry

     iteration #  7     ecut=   370.00 Ry     beta= 0.70
     Davidson diagonalization with overlap
     ethr =  2.54E-09,  avg # of iterations =  2.5

     total cpu time spent up to now is       46.3 secs

     End of self-consistent calculation

     Number of k-points >= 100: set verbosity='high' to print the bands.

     highest occupied level (ev):    13.4793

!    total energy              =    -325.58462877 Ry
     estimated scf accuracy    <       0.00000008 Ry

     The total energy is the sum of the following terms:
     one-electron contribution =    -100.33061933 Ry
     hartree contribution      =      72.00698294 Ry
     xc contribution           =     -95.30260466 Ry
     ewald contribution        =    -201.95838773 Ry

     convergence has been achieved in   7 iterations

     Writing all to output data dir ./beta-EOS/beta.save/ :
     XML data file, charge density, pseudopotentials, collected wavefunctions

     init_run     :      2.96s CPU      3.06s WALL (       1 calls)
     electrons    :     42.15s CPU     42.96s WALL (       1 calls)

     Called by init_run:
     wfcinit      :      2.08s CPU      2.11s WALL (       1 calls)
     potinit      :      0.06s CPU      0.08s WALL (       1 calls)
     hinit0       :      0.50s CPU      0.51s WALL (       1 calls)

     Called by electrons:
     c_bands      :     35.36s CPU     35.99s WALL (       8 calls)
     sum_band     :      6.26s CPU      6.34s WALL (       8 calls)
     v_of_rho     :      0.36s CPU      0.42s WALL (       8 calls)
     newd         :      0.14s CPU      0.16s WALL (       8 calls)
     mix_rho      :      0.04s CPU      0.04s WALL (       8 calls)

     Called by c_bands:
     init_us_2    :      0.62s CPU      0.64s WALL (    1037 calls)
     cegterg      :     32.90s CPU     33.26s WALL (     488 calls)

     Called by *egterg:
     cdiaghg      :      0.77s CPU      0.78s WALL (    2126 calls)
     h_psi        :     31.17s CPU     31.51s WALL (    2248 calls)
     s_psi        :      0.44s CPU      0.45s WALL (    2248 calls)
     g_psi        :      0.06s CPU      0.06s WALL (    1699 calls)

     Called by h_psi:
     h_psi:calbec :      0.95s CPU      0.96s WALL (    2248 calls)
     vloc_psi     :     29.60s CPU     29.91s WALL (    2248 calls)
     add_vuspsi   :      0.49s CPU      0.49s WALL (    2248 calls)

     General routines
     calbec       :      1.12s CPU      1.14s WALL (    2736 calls)
     fft          :      0.63s CPU      0.70s WALL (      89 calls)
     ffts         :      0.02s CPU      0.03s WALL (       8 calls)
     fftw         :     31.28s CPU     31.58s WALL (   43726 calls)

     Parallel routines

     PWSCF        :     46.13s CPU     49.94s WALL


   This run was terminated on:  19:50:46  25Feb2026            

=------------------------------------------------------------------------------=
   JOB DONE.
=------------------------------------------------------------------------------=
