
     Program PWSCF v.7.3.1 starts on 25Feb2026 at 19:50:51 

     This program is part of the open-source Quantum ESPRESSO suite
     for quantum simulation of materials; please cite
         "P. Giannozzi et al., J. Phys.:Condens. Matter 21 395502 (2009);
         "P. Giannozzi et al., J. Phys.:Condens. Matter 29 465901 (2017);
         "P. Giannozzi et al., J. Chem. Phys. 152 154105 (2020);
          URL http://www.quantum-espresso.org", 
     in publications or presentations arising from this work. More details at
     http://www.quantum-espresso.org/quote

     Parallel version (MPI), running on   128 processors

     MPI processes distributed on     1 nodes
     234450 MiB available memory on the printing compute node when the environment starts

     Waiting for input...
     Reading input from standard input

     Current dimensions of program PWSCF are:
     Max number of different atomic species (ntypx) = 10
     Max number of k-points (npk) =  40000
     Max angular momentum in pseudopotentials (lmaxx) =  4

     K-points division:     npool     =       4
     R & G space division:  proc/nbgrp/npool/nimage =      32
     Subspace diagonalization in iterative solution of the eigenvalue problem:
     a serial algorithm will be used


     Parallelization info
     --------------------
     sticks:   dense  smooth     PW     G-vecs:    dense   smooth      PW
     Min         244     244     69                10320    10320    1570
     Max         245     245     70                10323    10323    1573
     Sum        7833    7833   2227               330297   330297   50271

     Using Slab Decomposition



     bravais-lattice index     =            7
     lattice parameter (alat)  =      10.7996  a.u.
     unit-cell volume          =     343.6113 (a.u.)^3
     number of atoms/cell      =            2
     number of atomic types    =            1
     number of electrons       =        28.00
     number of Kohn-Sham states=           14
     kinetic-energy cutoff     =     370.0000  Ry
     charge density cutoff     =    1480.0000  Ry
     scf convergence threshold =      1.0E-07
     mixing beta               =       0.7000
     number of iterations used =            8  plain     mixing
     Exchange-correlation=  SLA  PW   GGX  GGC
                           (   1   4   2   2   0   0   0)

     celldm(1)=  10.799600  celldm(2)=   0.000000  celldm(3)=   0.545600
     celldm(4)=   0.000000  celldm(5)=   0.000000  celldm(6)=   0.000000

     crystal axes: (cart. coord. in units of alat)
               a(1) = (   0.500000  -0.500000   0.272800 )  
               a(2) = (   0.500000   0.500000   0.272800 )  
               a(3) = (  -0.500000  -0.500000   0.272800 )  

     reciprocal axes: (cart. coord. in units 2 pi/alat)
               b(1) = (  1.000000 -1.000000  0.000000 )  
               b(2) = (  0.000000  1.000000  1.832845 )  
               b(3) = ( -1.000000  0.000000  1.832845 )  


     PseudoPot. # 1 for Sn read from file:
     ./Sn.pw91-n-van.UPF
     MD5 check sum: a38d2a872edd1a4efd76c0a1a38f7031
     Pseudo is Ultrasoft + core correction, Zval = 14.0
     Generated by new atomic code, or converted to UPF format
     Using radial grid of  891 points,  6 beta functions with: 
                l(1) =   0
                l(2) =   0
                l(3) =   1
                l(4) =   1
                l(5) =   2
                l(6) =   2
     Q(r) pseudized with  8 coefficients,  rinner =    1.100   1.100   1.100
                                                       1.100   1.100

     atomic species   valence    mass     pseudopotential
     Sn               14.00   118.70000     Sn( 1.00)

     16 Sym. Ops., with inversion, found (12 have fractional translation)



   Cartesian axes

     site n.     atom                  positions (alat units)
         1        Sn     tau(   1) = (   0.0000000  -0.2500000   0.0682000  )
         2        Sn     tau(   2) = (   0.0000000   0.2500000  -0.0682000  )

     number of k points=   244

     Number of k-points >= 100: set verbosity='high' to print them.

     Dense  grid:   330297 G-vectors     FFT dimensions: ( 108, 108, 108)

     Estimated max dynamical RAM per process >      35.89 MB

     Estimated total dynamical RAM >       4.25 GB

     Initial potential from superposition of free atoms

     starting charge      27.9964, renormalised to      28.0000
     Starting wfcs are   18 randomized atomic wfcs

     total cpu time spent up to now is        3.4 secs

     per-process dynamical memory:    37.1 Mb

     Self-consistent Calculation

     iteration #  1     ecut=   370.00 Ry     beta= 0.70
     Davidson diagonalization with overlap
     ethr =  1.00E-02,  avg # of iterations =  3.1

     Threshold (ethr) on eigenvalues was too large:
     Diagonalizing with lowered threshold

     Davidson diagonalization with overlap
     ethr =  6.96E-05,  avg # of iterations =  4.6

     total cpu time spent up to now is       14.2 secs

     total energy              =    -325.44544369 Ry
     estimated scf accuracy    <       0.02443659 Ry

     iteration #  2     ecut=   370.00 Ry     beta= 0.70
     Davidson diagonalization with overlap
     ethr =  8.73E-05,  avg # of iterations =  4.9

     total cpu time spent up to now is       21.2 secs

     total energy              =    -325.55430040 Ry
     estimated scf accuracy    <       0.02074851 Ry

     iteration #  3     ecut=   370.00 Ry     beta= 0.70
     Davidson diagonalization with overlap
     ethr =  7.41E-05,  avg # of iterations =  2.0

     total cpu time spent up to now is       25.9 secs

     total energy              =    -325.58042878 Ry
     estimated scf accuracy    <       0.00488281 Ry

     iteration #  4     ecut=   370.00 Ry     beta= 0.70
     Davidson diagonalization with overlap
     ethr =  1.74E-05,  avg # of iterations =  2.2

     total cpu time spent up to now is       30.7 secs

     total energy              =    -325.58587609 Ry
     estimated scf accuracy    <       0.00045378 Ry

     iteration #  5     ecut=   370.00 Ry     beta= 0.70
     Davidson diagonalization with overlap
     ethr =  1.62E-06,  avg # of iterations =  3.2

     total cpu time spent up to now is       36.0 secs

     total energy              =    -325.58606106 Ry
     estimated scf accuracy    <       0.00000881 Ry

     iteration #  6     ecut=   370.00 Ry     beta= 0.70
     Davidson diagonalization with overlap
     ethr =  3.15E-08,  avg # of iterations =  3.5

     total cpu time spent up to now is       41.3 secs

     total energy              =    -325.58607636 Ry
     estimated scf accuracy    <       0.00000297 Ry

     iteration #  7     ecut=   370.00 Ry     beta= 0.70
     Davidson diagonalization with overlap
     ethr =  1.06E-08,  avg # of iterations =  1.2

     total cpu time spent up to now is       45.6 secs

     total energy              =    -325.58607578 Ry
     estimated scf accuracy    <       0.00000148 Ry

     iteration #  8     ecut=   370.00 Ry     beta= 0.70
     Davidson diagonalization with overlap
     ethr =  5.27E-09,  avg # of iterations =  2.6

     total cpu time spent up to now is       50.6 secs

     End of self-consistent calculation

     Number of k-points >= 100: set verbosity='high' to print the bands.

     highest occupied level (ev):    13.3643

!    total energy              =    -325.58607602 Ry
     estimated scf accuracy    <       0.00000002 Ry

     The total energy is the sum of the following terms:
     one-electron contribution =    -100.97835282 Ry
     hartree contribution      =      72.23354227 Ry
     xc contribution           =     -95.29503771 Ry
     ewald contribution        =    -201.54622775 Ry

     convergence has been achieved in   8 iterations

     Writing all to output data dir ./beta-EOS/beta.save/ :
     XML data file, charge density, pseudopotentials, collected wavefunctions

     init_run     :      2.99s CPU      3.10s WALL (       1 calls)
     electrons    :     46.41s CPU     47.29s WALL (       1 calls)

     Called by init_run:
     wfcinit      :      2.10s CPU      2.15s WALL (       1 calls)
     potinit      :      0.08s CPU      0.08s WALL (       1 calls)
     hinit0       :      0.50s CPU      0.51s WALL (       1 calls)

     Called by electrons:
     c_bands      :     38.78s CPU     39.43s WALL (       9 calls)
     sum_band     :      7.02s CPU      7.12s WALL (       9 calls)
     v_of_rho     :      0.44s CPU      0.47s WALL (       9 calls)
     newd         :      0.14s CPU      0.17s WALL (       9 calls)
     mix_rho      :      0.04s CPU      0.04s WALL (       9 calls)

     Called by c_bands:
     init_us_2    :      0.73s CPU      0.76s WALL (    1159 calls)
     cegterg      :     35.87s CPU     36.22s WALL (     549 calls)

     Called by *egterg:
     cdiaghg      :      0.81s CPU      0.82s WALL (    2245 calls)
     h_psi        :     33.93s CPU     34.27s WALL (    2367 calls)
     s_psi        :      0.48s CPU      0.49s WALL (    2367 calls)
     g_psi        :      0.06s CPU      0.07s WALL (    1757 calls)

     Called by h_psi:
     h_psi:calbec :      1.02s CPU      1.03s WALL (    2367 calls)
     vloc_psi     :     32.24s CPU     32.56s WALL (    2367 calls)
     add_vuspsi   :      0.52s CPU      0.53s WALL (    2367 calls)

     General routines
     calbec       :      1.21s CPU      1.22s WALL (    2916 calls)
     fft          :      0.68s CPU      0.72s WALL (     100 calls)
     ffts         :      0.02s CPU      0.02s WALL (       9 calls)
     fftw         :     34.10s CPU     34.44s WALL (   47944 calls)

     Parallel routines

     PWSCF        :     50.45s CPU     53.33s WALL


   This run was terminated on:  19:51:44  25Feb2026            

=------------------------------------------------------------------------------=
   JOB DONE.
=------------------------------------------------------------------------------=
