
     Program PWSCF v.7.3.1 starts on 25Feb2026 at 19:56:10 

     This program is part of the open-source Quantum ESPRESSO suite
     for quantum simulation of materials; please cite
         "P. Giannozzi et al., J. Phys.:Condens. Matter 21 395502 (2009);
         "P. Giannozzi et al., J. Phys.:Condens. Matter 29 465901 (2017);
         "P. Giannozzi et al., J. Chem. Phys. 152 154105 (2020);
          URL http://www.quantum-espresso.org", 
     in publications or presentations arising from this work. More details at
     http://www.quantum-espresso.org/quote

     Parallel version (MPI), running on   128 processors

     MPI processes distributed on     1 nodes
     234385 MiB available memory on the printing compute node when the environment starts

     Waiting for input...
     Reading input from standard input

     Current dimensions of program PWSCF are:
     Max number of different atomic species (ntypx) = 10
     Max number of k-points (npk) =  40000
     Max angular momentum in pseudopotentials (lmaxx) =  4

     K-points division:     npool     =       4
     R & G space division:  proc/nbgrp/npool/nimage =      32
     Subspace diagonalization in iterative solution of the eigenvalue problem:
     a serial algorithm will be used


     Parallelization info
     --------------------
     sticks:   dense  smooth     PW     G-vecs:    dense   smooth      PW
     Min         249     249     70                10646    10646    1617
     Max         250     250     71                10649    10649    1620
     Sum        7983    7983   2271               340717   340717   51787

     Using Slab Decomposition



     bravais-lattice index     =            7
     lattice parameter (alat)  =      10.9098  a.u.
     unit-cell volume          =     354.2377 (a.u.)^3
     number of atoms/cell      =            2
     number of atomic types    =            1
     number of electrons       =        28.00
     number of Kohn-Sham states=           14
     kinetic-energy cutoff     =     370.0000  Ry
     charge density cutoff     =    1480.0000  Ry
     scf convergence threshold =      1.0E-07
     mixing beta               =       0.7000
     number of iterations used =            8  plain     mixing
     Exchange-correlation=  SLA  PW   GGX  GGC
                           (   1   4   2   2   0   0   0)

     celldm(1)=  10.909800  celldm(2)=   0.000000  celldm(3)=   0.545600
     celldm(4)=   0.000000  celldm(5)=   0.000000  celldm(6)=   0.000000

     crystal axes: (cart. coord. in units of alat)
               a(1) = (   0.500000  -0.500000   0.272800 )  
               a(2) = (   0.500000   0.500000   0.272800 )  
               a(3) = (  -0.500000  -0.500000   0.272800 )  

     reciprocal axes: (cart. coord. in units 2 pi/alat)
               b(1) = (  1.000000 -1.000000  0.000000 )  
               b(2) = (  0.000000  1.000000  1.832845 )  
               b(3) = ( -1.000000  0.000000  1.832845 )  


     PseudoPot. # 1 for Sn read from file:
     ./Sn.pw91-n-van.UPF
     MD5 check sum: a38d2a872edd1a4efd76c0a1a38f7031
     Pseudo is Ultrasoft + core correction, Zval = 14.0
     Generated by new atomic code, or converted to UPF format
     Using radial grid of  891 points,  6 beta functions with: 
                l(1) =   0
                l(2) =   0
                l(3) =   1
                l(4) =   1
                l(5) =   2
                l(6) =   2
     Q(r) pseudized with  8 coefficients,  rinner =    1.100   1.100   1.100
                                                       1.100   1.100

     atomic species   valence    mass     pseudopotential
     Sn               14.00   118.70000     Sn( 1.00)

     16 Sym. Ops., with inversion, found (12 have fractional translation)



   Cartesian axes

     site n.     atom                  positions (alat units)
         1        Sn     tau(   1) = (   0.0000000  -0.2500000   0.0682000  )
         2        Sn     tau(   2) = (   0.0000000   0.2500000  -0.0682000  )

     number of k points=   244

     Number of k-points >= 100: set verbosity='high' to print them.

     Dense  grid:   340717 G-vectors     FFT dimensions: ( 108, 108, 108)

     Estimated max dynamical RAM per process >      36.82 MB

     Estimated total dynamical RAM >       4.36 GB

     Initial potential from superposition of free atoms

     starting charge      27.9964, renormalised to      28.0000
     Starting wfcs are   18 randomized atomic wfcs

     total cpu time spent up to now is        3.4 secs

     per-process dynamical memory:    37.7 Mb

     Self-consistent Calculation

     iteration #  1     ecut=   370.00 Ry     beta= 0.70
     Davidson diagonalization with overlap
     ethr =  1.00E-02,  avg # of iterations =  3.1

     Threshold (ethr) on eigenvalues was too large:
     Diagonalizing with lowered threshold

     Davidson diagonalization with overlap
     ethr =  7.80E-05,  avg # of iterations =  4.5

     total cpu time spent up to now is       14.3 secs

     total energy              =    -325.44210342 Ry
     estimated scf accuracy    <       0.02709993 Ry

     iteration #  2     ecut=   370.00 Ry     beta= 0.70
     Davidson diagonalization with overlap
     ethr =  9.68E-05,  avg # of iterations =  4.9

     total cpu time spent up to now is       21.4 secs

     total energy              =    -325.55879165 Ry
     estimated scf accuracy    <       0.02323366 Ry

     iteration #  3     ecut=   370.00 Ry     beta= 0.70
     Davidson diagonalization with overlap
     ethr =  8.30E-05,  avg # of iterations =  2.0

     total cpu time spent up to now is       26.2 secs

     total energy              =    -325.58422361 Ry
     estimated scf accuracy    <       0.00544721 Ry

     iteration #  4     ecut=   370.00 Ry     beta= 0.70
     Davidson diagonalization with overlap
     ethr =  1.95E-05,  avg # of iterations =  2.1

     total cpu time spent up to now is       31.0 secs

     total energy              =    -325.59215758 Ry
     estimated scf accuracy    <       0.00079569 Ry

     iteration #  5     ecut=   370.00 Ry     beta= 0.70
     Davidson diagonalization with overlap
     ethr =  2.84E-06,  avg # of iterations =  2.9

     total cpu time spent up to now is       36.2 secs

     total energy              =    -325.59230749 Ry
     estimated scf accuracy    <       0.00000804 Ry

     iteration #  6     ecut=   370.00 Ry     beta= 0.70
     Davidson diagonalization with overlap
     ethr =  2.87E-08,  avg # of iterations =  4.1

     total cpu time spent up to now is       41.9 secs

     total energy              =    -325.59232893 Ry
     estimated scf accuracy    <       0.00000361 Ry

     iteration #  7     ecut=   370.00 Ry     beta= 0.70
     Davidson diagonalization with overlap
     ethr =  1.29E-08,  avg # of iterations =  1.1

     total cpu time spent up to now is       46.1 secs

     total energy              =    -325.59232865 Ry
     estimated scf accuracy    <       0.00000185 Ry

     iteration #  8     ecut=   370.00 Ry     beta= 0.70
     Davidson diagonalization with overlap
     ethr =  6.62E-09,  avg # of iterations =  2.6

     total cpu time spent up to now is       51.1 secs

     End of self-consistent calculation

     Number of k-points >= 100: set verbosity='high' to print the bands.

     highest occupied level (ev):    12.8044

!    total energy              =    -325.59232899 Ry
     estimated scf accuracy    <       0.00000002 Ry

     The total energy is the sum of the following terms:
     one-electron contribution =    -104.18117491 Ry
     hartree contribution      =      73.35682920 Ry
     xc contribution           =     -95.25757601 Ry
     ewald contribution        =    -199.51040727 Ry

     convergence has been achieved in   8 iterations

     Writing all to output data dir ./beta-EOS/beta.save/ :
     XML data file, charge density, pseudopotentials, collected wavefunctions

     init_run     :      2.97s CPU      3.09s WALL (       1 calls)
     electrons    :     46.94s CPU     47.82s WALL (       1 calls)

     Called by init_run:
     wfcinit      :      2.07s CPU      2.13s WALL (       1 calls)
     potinit      :      0.08s CPU      0.09s WALL (       1 calls)
     hinit0       :      0.50s CPU      0.51s WALL (       1 calls)

     Called by electrons:
     c_bands      :     39.19s CPU     39.89s WALL (       9 calls)
     sum_band     :      7.11s CPU      7.18s WALL (       9 calls)
     v_of_rho     :      0.44s CPU      0.47s WALL (       9 calls)
     newd         :      0.15s CPU      0.17s WALL (       9 calls)
     mix_rho      :      0.05s CPU      0.05s WALL (       9 calls)

     Called by c_bands:
     init_us_2    :      0.73s CPU      0.76s WALL (    1159 calls)
     cegterg      :     36.30s CPU     36.73s WALL (     549 calls)

     Called by *egterg:
     cdiaghg      :      0.83s CPU      0.84s WALL (    2254 calls)
     h_psi        :     34.19s CPU     34.62s WALL (    2376 calls)
     s_psi        :      0.50s CPU      0.50s WALL (    2376 calls)
     g_psi        :      0.07s CPU      0.07s WALL (    1766 calls)

     Called by h_psi:
     h_psi:calbec :      1.05s CPU      1.06s WALL (    2376 calls)
     vloc_psi     :     32.44s CPU     32.85s WALL (    2376 calls)
     add_vuspsi   :      0.54s CPU      0.55s WALL (    2376 calls)

     General routines
     calbec       :      1.24s CPU      1.26s WALL (    2925 calls)
     fft          :      0.68s CPU      0.73s WALL (     100 calls)
     ffts         :      0.02s CPU      0.03s WALL (       9 calls)
     fftw         :     34.46s CPU     34.84s WALL (   48096 calls)

     Parallel routines

     PWSCF        :     51.03s CPU     55.88s WALL


   This run was terminated on:  19:57: 6  25Feb2026            

=------------------------------------------------------------------------------=
   JOB DONE.
=------------------------------------------------------------------------------=
