
     Program PWSCF v.7.3.1 starts on 25Feb2026 at 19:58: 5 

     This program is part of the open-source Quantum ESPRESSO suite
     for quantum simulation of materials; please cite
         "P. Giannozzi et al., J. Phys.:Condens. Matter 21 395502 (2009);
         "P. Giannozzi et al., J. Phys.:Condens. Matter 29 465901 (2017);
         "P. Giannozzi et al., J. Chem. Phys. 152 154105 (2020);
          URL http://www.quantum-espresso.org", 
     in publications or presentations arising from this work. More details at
     http://www.quantum-espresso.org/quote

     Parallel version (MPI), running on   128 processors

     MPI processes distributed on     1 nodes
     234385 MiB available memory on the printing compute node when the environment starts

     Waiting for input...
     Reading input from standard input

     Current dimensions of program PWSCF are:
     Max number of different atomic species (ntypx) = 10
     Max number of k-points (npk) =  40000
     Max angular momentum in pseudopotentials (lmaxx) =  4

     K-points division:     npool     =       4
     R & G space division:  proc/nbgrp/npool/nimage =      32
     Subspace diagonalization in iterative solution of the eigenvalue problem:
     a serial algorithm will be used


     Parallelization info
     --------------------
     sticks:   dense  smooth     PW     G-vecs:    dense   smooth      PW
     Min         251     251     71                10774    10774    1634
     Max         252     252     72                10777    10777    1637
     Sum        8043    8043   2287               344805   344805   52339

     Using Slab Decomposition



     bravais-lattice index     =            7
     lattice parameter (alat)  =      10.9539  a.u.
     unit-cell volume          =     358.5488 (a.u.)^3
     number of atoms/cell      =            2
     number of atomic types    =            1
     number of electrons       =        28.00
     number of Kohn-Sham states=           14
     kinetic-energy cutoff     =     370.0000  Ry
     charge density cutoff     =    1480.0000  Ry
     scf convergence threshold =      1.0E-07
     mixing beta               =       0.7000
     number of iterations used =            8  plain     mixing
     Exchange-correlation=  SLA  PW   GGX  GGC
                           (   1   4   2   2   0   0   0)

     celldm(1)=  10.953880  celldm(2)=   0.000000  celldm(3)=   0.545600
     celldm(4)=   0.000000  celldm(5)=   0.000000  celldm(6)=   0.000000

     crystal axes: (cart. coord. in units of alat)
               a(1) = (   0.500000  -0.500000   0.272800 )  
               a(2) = (   0.500000   0.500000   0.272800 )  
               a(3) = (  -0.500000  -0.500000   0.272800 )  

     reciprocal axes: (cart. coord. in units 2 pi/alat)
               b(1) = (  1.000000 -1.000000  0.000000 )  
               b(2) = (  0.000000  1.000000  1.832845 )  
               b(3) = ( -1.000000  0.000000  1.832845 )  


     PseudoPot. # 1 for Sn read from file:
     ./Sn.pw91-n-van.UPF
     MD5 check sum: a38d2a872edd1a4efd76c0a1a38f7031
     Pseudo is Ultrasoft + core correction, Zval = 14.0
     Generated by new atomic code, or converted to UPF format
     Using radial grid of  891 points,  6 beta functions with: 
                l(1) =   0
                l(2) =   0
                l(3) =   1
                l(4) =   1
                l(5) =   2
                l(6) =   2
     Q(r) pseudized with  8 coefficients,  rinner =    1.100   1.100   1.100
                                                       1.100   1.100

     atomic species   valence    mass     pseudopotential
     Sn               14.00   118.70000     Sn( 1.00)

     16 Sym. Ops., with inversion, found (12 have fractional translation)



   Cartesian axes

     site n.     atom                  positions (alat units)
         1        Sn     tau(   1) = (   0.0000000  -0.2500000   0.0682000  )
         2        Sn     tau(   2) = (   0.0000000   0.2500000  -0.0682000  )

     number of k points=   244

     Number of k-points >= 100: set verbosity='high' to print them.

     Dense  grid:   344805 G-vectors     FFT dimensions: ( 108, 108, 108)

     Estimated max dynamical RAM per process >      37.18 MB

     Estimated total dynamical RAM >       4.40 GB

     Initial potential from superposition of free atoms

     starting charge      27.9964, renormalised to      28.0000
     Starting wfcs are   18 randomized atomic wfcs

     total cpu time spent up to now is        3.4 secs

     per-process dynamical memory:    38.0 Mb

     Self-consistent Calculation

     iteration #  1     ecut=   370.00 Ry     beta= 0.70
     Davidson diagonalization with overlap
     ethr =  1.00E-02,  avg # of iterations =  3.1

     Threshold (ethr) on eigenvalues was too large:
     Diagonalizing with lowered threshold

     Davidson diagonalization with overlap
     ethr =  7.94E-05,  avg # of iterations =  4.5

     total cpu time spent up to now is       14.5 secs

     total energy              =    -325.44298674 Ry
     estimated scf accuracy    <       0.02759768 Ry

     iteration #  2     ecut=   370.00 Ry     beta= 0.70
     Davidson diagonalization with overlap
     ethr =  9.86E-05,  avg # of iterations =  4.8

     total cpu time spent up to now is       21.7 secs

     total energy              =    -325.56030722 Ry
     estimated scf accuracy    <       0.02354119 Ry

     iteration #  3     ecut=   370.00 Ry     beta= 0.70
     Davidson diagonalization with overlap
     ethr =  8.41E-05,  avg # of iterations =  2.0

     total cpu time spent up to now is       26.4 secs

     total energy              =    -325.58555979 Ry
     estimated scf accuracy    <       0.00550330 Ry

     iteration #  4     ecut=   370.00 Ry     beta= 0.70
     Davidson diagonalization with overlap
     ethr =  1.97E-05,  avg # of iterations =  2.1

     total cpu time spent up to now is       31.3 secs

     total energy              =    -325.59420628 Ry
     estimated scf accuracy    <       0.00087790 Ry

     iteration #  5     ecut=   370.00 Ry     beta= 0.70
     Davidson diagonalization with overlap
     ethr =  3.14E-06,  avg # of iterations =  2.9

     total cpu time spent up to now is       36.5 secs

     total energy              =    -325.59437322 Ry
     estimated scf accuracy    <       0.00000815 Ry

     iteration #  6     ecut=   370.00 Ry     beta= 0.70
     Davidson diagonalization with overlap
     ethr =  2.91E-08,  avg # of iterations =  4.1

     total cpu time spent up to now is       42.2 secs

     total energy              =    -325.59437688 Ry
     estimated scf accuracy    <       0.00000134 Ry

     iteration #  7     ecut=   370.00 Ry     beta= 0.70
     Davidson diagonalization with overlap
     ethr =  4.78E-09,  avg # of iterations =  2.1

     total cpu time spent up to now is       47.0 secs

     End of self-consistent calculation

     Number of k-points >= 100: set verbosity='high' to print the bands.

     highest occupied level (ev):    12.5871

!    total energy              =    -325.59437696 Ry
     estimated scf accuracy    <       0.00000007 Ry

     The total energy is the sum of the following terms:
     one-electron contribution =    -105.44557252 Ry
     hartree contribution      =      73.80149338 Ry
     xc contribution           =     -95.24274933 Ry
     ewald contribution        =    -198.70754849 Ry

     convergence has been achieved in   7 iterations

     Writing all to output data dir ./beta-EOS/beta.save/ :
     XML data file, charge density, pseudopotentials, collected wavefunctions

     init_run     :      3.01s CPU      3.15s WALL (       1 calls)
     electrons    :     42.81s CPU     43.68s WALL (       1 calls)

     Called by init_run:
     wfcinit      :      2.13s CPU      2.18s WALL (       1 calls)
     potinit      :      0.05s CPU      0.08s WALL (       1 calls)
     hinit0       :      0.50s CPU      0.51s WALL (       1 calls)

     Called by electrons:
     c_bands      :     35.92s CPU     36.56s WALL (       8 calls)
     sum_band     :      6.34s CPU      6.44s WALL (       8 calls)
     v_of_rho     :      0.38s CPU      0.42s WALL (       8 calls)
     newd         :      0.14s CPU      0.16s WALL (       8 calls)
     mix_rho      :      0.04s CPU      0.04s WALL (       8 calls)

     Called by c_bands:
     init_us_2    :      0.66s CPU      0.68s WALL (    1037 calls)
     cegterg      :     33.36s CPU     33.73s WALL (     488 calls)

     Called by *egterg:
     cdiaghg      :      0.77s CPU      0.78s WALL (    2113 calls)
     h_psi        :     31.53s CPU     31.89s WALL (    2235 calls)
     s_psi        :      0.47s CPU      0.47s WALL (    2235 calls)
     g_psi        :      0.06s CPU      0.06s WALL (    1686 calls)

     Called by h_psi:
     h_psi:calbec :      0.99s CPU      1.01s WALL (    2235 calls)
     vloc_psi     :     29.86s CPU     30.20s WALL (    2235 calls)
     add_vuspsi   :      0.52s CPU      0.53s WALL (    2235 calls)

     General routines
     calbec       :      1.17s CPU      1.19s WALL (    2723 calls)
     fft          :      0.66s CPU      0.70s WALL (      89 calls)
     ffts         :      0.02s CPU      0.02s WALL (       8 calls)
     fftw         :     31.51s CPU     31.87s WALL (   43726 calls)

     Parallel routines

     PWSCF        :     46.82s CPU     52.82s WALL


   This run was terminated on:  19:58:58  25Feb2026            

=------------------------------------------------------------------------------=
   JOB DONE.
=------------------------------------------------------------------------------=
