
     Program PWSCF v.7.3.1 starts on 25Feb2026 at 19:59:58 

     This program is part of the open-source Quantum ESPRESSO suite
     for quantum simulation of materials; please cite
         "P. Giannozzi et al., J. Phys.:Condens. Matter 21 395502 (2009);
         "P. Giannozzi et al., J. Phys.:Condens. Matter 29 465901 (2017);
         "P. Giannozzi et al., J. Chem. Phys. 152 154105 (2020);
          URL http://www.quantum-espresso.org", 
     in publications or presentations arising from this work. More details at
     http://www.quantum-espresso.org/quote

     Parallel version (MPI), running on   128 processors

     MPI processes distributed on     1 nodes
     234319 MiB available memory on the printing compute node when the environment starts

     Waiting for input...
     Reading input from standard input

     Current dimensions of program PWSCF are:
     Max number of different atomic species (ntypx) = 10
     Max number of k-points (npk) =  40000
     Max angular momentum in pseudopotentials (lmaxx) =  4

     K-points division:     npool     =       4
     R & G space division:  proc/nbgrp/npool/nimage =      32
     Subspace diagonalization in iterative solution of the eigenvalue problem:
     a serial algorithm will be used


     Parallelization info
     --------------------
     sticks:   dense  smooth     PW     G-vecs:    dense   smooth      PW
     Min         253     253     71                10901    10901    1652
     Max         254     254     72                10904    10904    1655
     Sum        8103    8103   2303               348877   348877   52939

     Using Slab Decomposition



     bravais-lattice index     =            7
     lattice parameter (alat)  =      10.9980  a.u.
     unit-cell volume          =     362.8948 (a.u.)^3
     number of atoms/cell      =            2
     number of atomic types    =            1
     number of electrons       =        28.00
     number of Kohn-Sham states=           14
     kinetic-energy cutoff     =     370.0000  Ry
     charge density cutoff     =    1480.0000  Ry
     scf convergence threshold =      1.0E-07
     mixing beta               =       0.7000
     number of iterations used =            8  plain     mixing
     Exchange-correlation=  SLA  PW   GGX  GGC
                           (   1   4   2   2   0   0   0)

     celldm(1)=  10.997960  celldm(2)=   0.000000  celldm(3)=   0.545600
     celldm(4)=   0.000000  celldm(5)=   0.000000  celldm(6)=   0.000000

     crystal axes: (cart. coord. in units of alat)
               a(1) = (   0.500000  -0.500000   0.272800 )  
               a(2) = (   0.500000   0.500000   0.272800 )  
               a(3) = (  -0.500000  -0.500000   0.272800 )  

     reciprocal axes: (cart. coord. in units 2 pi/alat)
               b(1) = (  1.000000 -1.000000  0.000000 )  
               b(2) = (  0.000000  1.000000  1.832845 )  
               b(3) = ( -1.000000  0.000000  1.832845 )  


     PseudoPot. # 1 for Sn read from file:
     ./Sn.pw91-n-van.UPF
     MD5 check sum: a38d2a872edd1a4efd76c0a1a38f7031
     Pseudo is Ultrasoft + core correction, Zval = 14.0
     Generated by new atomic code, or converted to UPF format
     Using radial grid of  891 points,  6 beta functions with: 
                l(1) =   0
                l(2) =   0
                l(3) =   1
                l(4) =   1
                l(5) =   2
                l(6) =   2
     Q(r) pseudized with  8 coefficients,  rinner =    1.100   1.100   1.100
                                                       1.100   1.100

     atomic species   valence    mass     pseudopotential
     Sn               14.00   118.70000     Sn( 1.00)

     16 Sym. Ops., with inversion, found (12 have fractional translation)



   Cartesian axes

     site n.     atom                  positions (alat units)
         1        Sn     tau(   1) = (   0.0000000  -0.2500000   0.0682000  )
         2        Sn     tau(   2) = (   0.0000000   0.2500000  -0.0682000  )

     number of k points=   244

     Number of k-points >= 100: set verbosity='high' to print them.

     Dense  grid:   348877 G-vectors     FFT dimensions: ( 108, 108, 108)

     Estimated max dynamical RAM per process >      37.55 MB

     Estimated total dynamical RAM >       4.44 GB

     Initial potential from superposition of free atoms

     starting charge      27.9964, renormalised to      28.0000
     Starting wfcs are   18 randomized atomic wfcs

     total cpu time spent up to now is        3.5 secs

     per-process dynamical memory:    38.3 Mb

     Self-consistent Calculation

     iteration #  1     ecut=   370.00 Ry     beta= 0.70
     Davidson diagonalization with overlap
     ethr =  1.00E-02,  avg # of iterations =  3.1

     Threshold (ethr) on eigenvalues was too large:
     Diagonalizing with lowered threshold

     Davidson diagonalization with overlap
     ethr =  8.18E-05,  avg # of iterations =  4.6

     total cpu time spent up to now is       14.6 secs

     total energy              =    -325.44273554 Ry
     estimated scf accuracy    <       0.02825799 Ry

     iteration #  2     ecut=   370.00 Ry     beta= 0.70
     Davidson diagonalization with overlap
     ethr =  1.01E-04,  avg # of iterations =  4.9

     total cpu time spent up to now is       21.8 secs

     total energy              =    -325.56173876 Ry
     estimated scf accuracy    <       0.02401543 Ry

     iteration #  3     ecut=   370.00 Ry     beta= 0.70
     Davidson diagonalization with overlap
     ethr =  8.58E-05,  avg # of iterations =  2.0

     total cpu time spent up to now is       26.6 secs

     total energy              =    -325.58674420 Ry
     estimated scf accuracy    <       0.00557766 Ry

     iteration #  4     ecut=   370.00 Ry     beta= 0.70
     Davidson diagonalization with overlap
     ethr =  1.99E-05,  avg # of iterations =  2.1

     total cpu time spent up to now is       31.5 secs

     total energy              =    -325.59602107 Ry
     estimated scf accuracy    <       0.00096483 Ry

     iteration #  5     ecut=   370.00 Ry     beta= 0.70
     Davidson diagonalization with overlap
     ethr =  3.45E-06,  avg # of iterations =  2.9

     total cpu time spent up to now is       36.7 secs

     total energy              =    -325.59620539 Ry
     estimated scf accuracy    <       0.00000791 Ry

     iteration #  6     ecut=   370.00 Ry     beta= 0.70
     Davidson diagonalization with overlap
     ethr =  2.83E-08,  avg # of iterations =  4.3

     total cpu time spent up to now is       42.5 secs

     total energy              =    -325.59623052 Ry
     estimated scf accuracy    <       0.00000323 Ry

     iteration #  7     ecut=   370.00 Ry     beta= 0.70
     Davidson diagonalization with overlap
     ethr =  1.15E-08,  avg # of iterations =  1.0

     total cpu time spent up to now is       46.8 secs

     total energy              =    -325.59623029 Ry
     estimated scf accuracy    <       0.00000251 Ry

     iteration #  8     ecut=   370.00 Ry     beta= 0.70
     Davidson diagonalization with overlap
     ethr =  8.98E-09,  avg # of iterations =  2.6

     total cpu time spent up to now is       51.8 secs

     End of self-consistent calculation

     Number of k-points >= 100: set verbosity='high' to print the bands.

     highest occupied level (ev):    12.3722

!    total energy              =    -325.59623074 Ry
     estimated scf accuracy    <       0.00000002 Ry

     The total energy is the sum of the following terms:
     one-electron contribution =    -106.70458969 Ry
     hartree contribution      =      74.24850234 Ry
     xc contribution           =     -95.22901794 Ry
     ewald contribution        =    -197.91112545 Ry

     convergence has been achieved in   8 iterations

     Writing all to output data dir ./beta-EOS/beta.save/ :
     XML data file, charge density, pseudopotentials, collected wavefunctions

     init_run     :      3.04s CPU      3.13s WALL (       1 calls)
     electrons    :     47.57s CPU     48.46s WALL (       1 calls)

     Called by init_run:
     wfcinit      :      2.12s CPU      2.15s WALL (       1 calls)
     potinit      :      0.06s CPU      0.09s WALL (       1 calls)
     hinit0       :      0.51s CPU      0.52s WALL (       1 calls)

     Called by electrons:
     c_bands      :     39.80s CPU     40.46s WALL (       9 calls)
     sum_band     :      7.15s CPU      7.26s WALL (       9 calls)
     v_of_rho     :      0.43s CPU      0.48s WALL (       9 calls)
     newd         :      0.16s CPU      0.18s WALL (       9 calls)
     mix_rho      :      0.04s CPU      0.05s WALL (       9 calls)

     Called by c_bands:
     init_us_2    :      0.74s CPU      0.77s WALL (    1159 calls)
     cegterg      :     36.95s CPU     37.36s WALL (     549 calls)

     Called by *egterg:
     cdiaghg      :      0.83s CPU      0.85s WALL (    2277 calls)
     h_psi        :     34.76s CPU     35.13s WALL (    2399 calls)
     s_psi        :      0.51s CPU      0.51s WALL (    2399 calls)
     g_psi        :      0.07s CPU      0.07s WALL (    1789 calls)

     Called by h_psi:
     h_psi:calbec :      1.09s CPU      1.10s WALL (    2399 calls)
     vloc_psi     :     32.94s CPU     33.30s WALL (    2399 calls)
     add_vuspsi   :      0.56s CPU      0.57s WALL (    2399 calls)

     General routines
     calbec       :      1.29s CPU      1.31s WALL (    2948 calls)
     fft          :      0.69s CPU      0.73s WALL (     100 calls)
     ffts         :      0.03s CPU      0.03s WALL (       9 calls)
     fftw         :     34.89s CPU     35.28s WALL (   48196 calls)

     Parallel routines

     PWSCF        :     51.66s CPU     57.51s WALL


   This run was terminated on:  20: 0:55  25Feb2026            

=------------------------------------------------------------------------------=
   JOB DONE.
=------------------------------------------------------------------------------=
