
     Program BANDS v.7.3.1 starts on 24Feb2026 at 15:56:53 

     This program is part of the open-source Quantum ESPRESSO suite
     for quantum simulation of materials; please cite
         "P. Giannozzi et al., J. Phys.:Condens. Matter 21 395502 (2009);
         "P. Giannozzi et al., J. Phys.:Condens. Matter 29 465901 (2017);
         "P. Giannozzi et al., J. Chem. Phys. 152 154105 (2020);
          URL http://www.quantum-espresso.org", 
     in publications or presentations arising from this work. More details at
     http://www.quantum-espresso.org/quote

     Parallel version (MPI), running on     1 processors

     MPI processes distributed on     1 nodes
     221285 MiB available memory on the printing compute node when the environment starts


     Reading xml data from directory:

     ./beta-bands/beta.save/

     IMPORTANT: XC functional enforced from input :
     Exchange-correlation= PW91
                           (   1   4   2   2   0   0   0)
     Any further DFT definition will be discarded
     Please, verify this is what you really want


     G-vector sticks info
     --------------------
     sticks:   dense  smooth     PW     G-vecs:    dense   smooth      PW
     Sum        8159    8159   2325               350797   350797   53487

     Using Slab Decomposition

     Reading collected, re-writing distributed wavefunctions
     high-symmetry point:  0.0000 0.0000 0.0000   x coordinate   0.0000
     high-symmetry point: -0.5000 0.0000 0.9164   x coordinate   1.0439
     high-symmetry point: -1.0000 1.0000 1.8328   x coordinate   2.4896
     high-symmetry point:  0.0000 0.0000 0.0000   x coordinate   4.8046
     high-symmetry point:  0.6488 0.0000-0.0000   x coordinate   5.4534
     high-symmetry point:  0.0000 0.5000 0.9164   x coordinate   6.6826
     high-symmetry point:  0.0000 0.0000 0.9164   x coordinate   7.1826
     high-symmetry point: -0.6488 1.0000 1.8328   x coordinate   8.6862
     high-symmetry point:  0.0000 0.0000 0.0000   x coordinate  10.8726

     Plottable bands (eV) written to file beta-bands.dat.gnu
     Bands written to file beta-bands.dat

 **************************************************************************

                    xk=(   0.00000,   0.00000,   0.00000  )

     point group D_4h(4/mmm)
     there are 10 classes
     the character table:

       E     2C4   C2    2C2'  2C2'' i     2S4   s_h   2s_v  2s_d 
A_1g   1.00  1.00  1.00  1.00  1.00  1.00  1.00  1.00  1.00  1.00
A_2g   1.00  1.00  1.00 -1.00 -1.00  1.00  1.00  1.00 -1.00 -1.00
B_1g   1.00 -1.00  1.00  1.00 -1.00  1.00 -1.00  1.00  1.00 -1.00
B_2g   1.00 -1.00  1.00 -1.00  1.00  1.00 -1.00  1.00 -1.00  1.00
E_g    2.00  0.00 -2.00  0.00  0.00  2.00  0.00 -2.00  0.00  0.00
A_1u   1.00  1.00  1.00  1.00  1.00 -1.00 -1.00 -1.00 -1.00 -1.00
A_2u   1.00  1.00  1.00 -1.00 -1.00 -1.00 -1.00 -1.00  1.00  1.00
B_1u   1.00 -1.00  1.00  1.00 -1.00 -1.00  1.00 -1.00 -1.00  1.00
B_2u   1.00 -1.00  1.00 -1.00  1.00 -1.00  1.00 -1.00  1.00 -1.00
E_u    2.00  0.00 -2.00  0.00  0.00 -2.00  0.00  2.00  0.00  0.00

     the symmetry operations in each class and the name of the first element:

     E        1
                                                                 
     2C4      7    8
                                                                 
     C2       2
                                                                 
     2C2'     3    4
                                                                 
     2C2''    5    6
                                                                 
     i        9
                                                                 
     2S4     15   16
                                                                 
     s_h     10
                                                                 
     2s_v    11   12
                                                                 
     2s_d    13   14
                                                                 

     Band symmetry, D_4h(4/mmm) point group:

     e(  1 -  1) =    -10.80913  eV     1   --> B_1g X_2  M_2  
     e(  2 -  2) =    -10.74601  eV     1   --> A_1g X_1  M_1  
     e(  3 -  3) =    -10.69151  eV     1   --> B_2u X_3' M_3' 
     e(  4 -  4) =    -10.68166  eV     1   --> A_1u X_1' M_1' 
     e(  5 -  6) =    -10.53512  eV     2   --> E_g  X_5  M_5  
     e(  7 -  8) =    -10.52408  eV     2   --> E_u  X_5' M_5' 
     e(  9 -  9) =    -10.41748  eV     1   --> B_2g X_3  M_3  
     e( 10 - 10) =    -10.30652  eV     1   --> A_2u X_4' M_4' 
     e( 11 - 11) =     -0.34958  eV     1   --> A_1g X_1  M_1  
     e( 12 - 12) =      7.15048  eV     1   --> B_2u X_3' M_3' 
     e( 13 - 14) =      8.84328  eV     2   --> E_g  X_5  M_5  
     e( 15 - 15) =     13.86140  eV     1   --> A_1u X_1' M_1' 
     e( 16 - 17) =     17.07414  eV     2   --> E_u  X_5' M_5' 
     e( 18 - 18) =     17.62534  eV     1   --> B_1g X_2  M_2  
     e( 19 - 19) =     17.71476  eV     1   --> A_2u X_4' M_4' 
     e( 20 - 20) =     20.72727  eV     1   --> B_1g X_2  M_2  
     e( 21 - 21) =     21.38717  eV     1   --> A_1g X_1  M_1  
     e( 22 - 22) =     22.07925  eV     1   --> B_2u X_3' M_3' 
     e( 23 - 24) =     22.26591  eV     2   --> E_g  X_5  M_5  
     e( 25 - 26) =     22.37758  eV     2   --> E_u  X_5' M_5' 
     e( 27 - 27) =     22.63288  eV     1   --> A_1g X_1  M_1  
     e( 28 - 29) =     35.00076  eV     2   --> E_u  X_5' M_5' 
     e( 30 - 30) =     36.61765  eV     1   --> B_1u X_2' M_2' 
     e( 31 - 31) =     36.78039  eV     1   --> A_2g X_4  M_4  
     e( 32 - 32) =     37.32191  eV     1   --> B_1g X_2  M_2  
     e( 33 - 33) =     37.33724  eV     1   --> A_2u X_4' M_4' 
     e( 34 - 35) =     37.79700  eV     2   --> E_g  X_5  M_5  
     e( 36 - 36) =     37.91879  eV     1   -->   ?

 **************************************************************************

 **************************************************************************

                    xk=(  -0.01000,   0.00000,   0.01833  )

     point group C_s (m)    
     there are  2 classes
     the character table:

       E     s    
A'     1.00  1.00
A''    1.00 -1.00

     the symmetry operations in each class and the name of the first element:

     E        1
                                                                 
     s        2
                                                                 

     Band symmetry, C_s (m)     point group:

     e(  1 -  1) =    -10.80908  eV     1   --> A'             
     e(  2 -  2) =    -10.74581  eV     1   --> A'             
     e(  3 -  3) =    -10.69125  eV     1   --> A'             
     e(  4 -  4) =    -10.68159  eV     1   --> A''            
     e(  5 -  6) =    -10.53529  eV     2   --> A'             
     e(  5 -  6) =    -10.53529  eV     2   --> A''            
     e(  7 -  8) =    -10.52407  eV     2   --> A'             
     e(  7 -  8) =    -10.52407  eV     2   --> A''            
     e(  9 -  9) =    -10.41751  eV     1   --> A''            
     e( 10 - 10) =    -10.30659  eV     1   --> A'             
     e( 11 - 11) =     -0.34760  eV     1   --> A'             
     e( 12 - 12) =      7.14677  eV     1   --> A'             
     e( 13 - 13) =      8.84342  eV     1   --> A''            
     e( 14 - 14) =      8.85078  eV     1   --> A'             
     e( 15 - 15) =     13.86481  eV     1   --> A''            
     e( 16 - 16) =     17.06349  eV     1   --> A'             
     e( 17 - 17) =     17.07424  eV     1   --> A''            
     e( 18 - 18) =     17.60829  eV     1   --> A'             
     e( 19 - 19) =     17.69285  eV     1   --> A'             
     e( 20 - 20) =     20.72846  eV     1   --> A'             
     e( 21 - 21) =     21.39691  eV     1   --> A'             
     e( 22 - 22) =     22.04417  eV     1   --> A'             
     e( 23 - 23) =     22.06082  eV     1   --> A''            
     e( 24 - 24) =     22.12218  eV     1   --> A'             
     e( 25 - 25) =     22.58801  eV     1   --> A'             
     e( 26 - 26) =     22.58833  eV     1   --> A''            
     e( 27 - 27) =     22.65458  eV     1   --> A'             
     e( 28 - 28) =     34.99176  eV     1   --> A''            
     e( 29 - 29) =     34.99378  eV     1   --> A'             
     e( 30 - 30) =     36.59310  eV     1   --> A''            
     e( 31 - 31) =     36.75986  eV     1   --> A''            
     e( 32 - 32) =     37.22108  eV     1   --> A'             
     e( 33 - 33) =     37.25134  eV     1   --> A'             
     e( 34 - 34) =     37.65700  eV     1   --> A''            
     e( 35 - 35) =     37.68856  eV     1   --> A'             
     e( 36 - 36) =     37.91470  eV     1   --> A'             

 **************************************************************************

 **************************************************************************

                    xk=(  -0.02000,   0.00000,   0.03666  )

     Band symmetry, C_s (m)     point group:

     e(  1 -  1) =    -10.80891  eV     1   --> A'             
     e(  2 -  2) =    -10.74519  eV     1   --> A'             
     e(  3 -  3) =    -10.69050  eV     1   --> A'             
     e(  4 -  4) =    -10.68136  eV     1   --> A''            
     e(  5 -  6) =    -10.53581  eV     2   --> A'             
     e(  5 -  6) =    -10.53581  eV     2   --> A''            
     e(  7 -  7) =    -10.52406  eV     1   --> A''            
     e(  8 -  8) =    -10.52395  eV     1   --> A'             
     e(  9 -  9) =    -10.41762  eV     1   --> A''            
     e( 10 - 10) =    -10.30681  eV     1   --> A'             
     e( 11 - 11) =     -0.34165  eV     1   --> A'             
     e( 12 - 12) =      7.13585  eV     1   --> A'             
     e( 13 - 13) =      8.84383  eV     1   --> A''            
     e( 14 - 14) =      8.87304  eV     1   --> A'             
     e( 15 - 15) =     13.87503  eV     1   --> A''            
     e( 16 - 16) =     17.03127  eV     1   --> A'             
     e( 17 - 17) =     17.07448  eV     1   --> A''            
     e( 18 - 18) =     17.55857  eV     1   --> A'             
     e( 19 - 19) =     17.62848  eV     1   --> A'             
     e( 20 - 20) =     20.73176  eV     1   --> A'             
     e( 21 - 21) =     21.42139  eV     1   --> A'             
     e( 22 - 22) =     21.81486  eV     1   --> A''            
     e( 23 - 23) =     21.82593  eV     1   --> A'             
     e( 24 - 24) =     22.17885  eV     1   --> A'             
     e( 25 - 25) =     22.68637  eV     1   --> A'             
     e( 26 - 26) =     22.85130  eV     1   --> A''            
     e( 27 - 27) =     22.88015  eV     1   --> A'             
     e( 28 - 28) =     34.96468  eV     1   --> A''            
     e( 29 - 29) =     34.97296  eV     1   --> A'             
     e( 30 - 30) =     36.51880  eV     1   --> A''            
     e( 31 - 31) =     36.69737  eV     1   --> A''            
     e( 32 - 32) =     36.93431  eV     1   --> A'             
     e( 33 - 33) =     37.07585  eV     1   --> A'             
     e( 34 - 34) =     37.43350  eV     1   --> A''            
     e( 35 - 35) =     37.59179  eV     1   --> A'             
     e( 36 - 36) =     37.88056  eV     1   --> A'             

 **************************************************************************

 **************************************************************************

                    xk=(  -0.03000,   0.00000,   0.05499  )

     Band symmetry, C_s (m)     point group:

     e(  1 -  1) =    -10.80863  eV     1   --> A'             
     e(  2 -  2) =    -10.74415  eV     1   --> A'             
     e(  3 -  3) =    -10.68924  eV     1   --> A'             
     e(  4 -  4) =    -10.68099  eV     1   --> A''            
     e(  5 -  6) =    -10.53664  eV     2   --> A'             
     e(  5 -  6) =    -10.53664  eV     2   --> A''            
     e(  7 -  7) =    -10.52407  eV     1   --> A''            
     e(  8 -  8) =    -10.52383  eV     1   --> A'             
     e(  9 -  9) =    -10.41781  eV     1   --> A''            
     e( 10 - 10) =    -10.30717  eV     1   --> A'             
     e( 11 - 11) =     -0.33174  eV     1   --> A'             
     e( 12 - 12) =      7.11834  eV     1   --> A'             
     e( 13 - 13) =      8.84453  eV     1   --> A''            
     e( 14 - 14) =      8.90944  eV     1   --> A'             
     e( 15 - 15) =     13.89204  eV     1   --> A''            
     e( 16 - 16) =     16.97651  eV     1   --> A'             
     e( 17 - 17) =     17.07469  eV     1   --> A''            
     e( 18 - 18) =     17.48039  eV     1   --> A'             
     e( 19 - 19) =     17.52543  eV     1   --> A'             
     e( 20 - 20) =     20.73559  eV     1   --> A'             
     e( 21 - 21) =     21.42826  eV     1   --> A'             
     e( 22 - 22) =     21.57343  eV     1   --> A''            
     e( 23 - 23) =     21.64981  eV     1   --> A'             
     e( 24 - 24) =     22.28509  eV     1   --> A'             
     e( 25 - 25) =     22.76197  eV     1   --> A'             
     e( 26 - 26) =     23.12127  eV     1   --> A''            
     e( 27 - 27) =     23.17273  eV     1   --> A'             
     e( 28 - 28) =     34.91929  eV     1   --> A''            
     e( 29 - 29) =     34.93869  eV     1   --> A'             
     e( 30 - 30) =     36.39368  eV     1   --> A''            
     e( 31 - 31) =     36.57748  eV     1   --> A'             
     e( 32 - 32) =     36.59077  eV     1   --> A''            
     e( 33 - 33) =     36.85151  eV     1   --> A'             
     e( 34 - 34) =     37.20385  eV     1   --> A''            
     e( 35 - 35) =     37.51212  eV     1   --> A'             
     e( 36 - 36) =     37.80778  eV     1   --> A'             

 **************************************************************************

 **************************************************************************

                    xk=(  -0.04000,   0.00000,   0.07331  )

     Band symmetry, C_s (m)     point group:

     e(  1 -  1) =    -10.80823  eV     1   --> A'             
     e(  2 -  2) =    -10.74271  eV     1   --> A'             
     e(  3 -  3) =    -10.68750  eV     1   --> A'             
     e(  4 -  4) =    -10.68047  eV     1   --> A''            
     e(  5 -  5) =    -10.53775  eV     1   --> A''            
     e(  6 -  6) =    -10.53759  eV     1   --> A'             
     e(  7 -  7) =    -10.52411  eV     1   --> A''            
     e(  8 -  8) =    -10.52373  eV     1   --> A'             
     e(  9 -  9) =    -10.41807  eV     1   --> A''            
     e( 10 - 10) =    -10.30768  eV     1   --> A'             
     e( 11 - 11) =     -0.31785  eV     1   --> A'             
     e( 12 - 12) =      7.09515  eV     1   --> A'             
     e( 13 - 13) =      8.84556  eV     1   --> A''            
     e( 14 - 14) =      8.95906  eV     1   --> A'             
     e( 15 - 15) =     13.91578  eV     1   --> A''            
     e( 16 - 16) =     16.89726  eV     1   --> A'             
     e( 17 - 17) =     17.07456  eV     1   --> A''            
     e( 18 - 18) =     17.37996  eV     1   --> A'             
     e( 19 - 19) =     17.38950  eV     1   --> A'             
     e( 20 - 20) =     20.73411  eV     1   --> A'             
     e( 21 - 21) =     21.32156  eV     1   --> A'             
     e( 22 - 22) =     21.33852  eV     1   --> A''            
     e( 23 - 23) =     21.62570  eV     1   --> A'             
     e( 24 - 24) =     22.42544  eV     1   --> A'             
     e( 25 - 25) =     22.86615  eV     1   --> A'             
     e( 26 - 26) =     23.39655  eV     1   --> A''            
     e( 27 - 27) =     23.47821  eV     1   --> A'             
     e( 28 - 28) =     34.85482  eV     1   --> A''            
     e( 29 - 29) =     34.89152  eV     1   --> A'             
     e( 30 - 30) =     36.19730  eV     1   --> A'             
     e( 31 - 31) =     36.21997  eV     1   --> A''            
     e( 32 - 32) =     36.43706  eV     1   --> A''            
     e( 33 - 33) =     36.60132  eV     1   --> A'             
     e( 34 - 34) =     36.99282  eV     1   --> A''            
     e( 35 - 35) =     37.43149  eV     1   --> A'             
     e( 36 - 36) =     37.72014  eV     1   --> A'             

 **************************************************************************

 **************************************************************************

                    xk=(  -0.05000,   0.00000,   0.09164  )

     Band symmetry, C_s (m)     point group:

     e(  1 -  1) =    -10.80771  eV     1   --> A'             
     e(  2 -  2) =    -10.74087  eV     1   --> A'             
     e(  3 -  3) =    -10.68528  eV     1   --> A'             
     e(  4 -  4) =    -10.67981  eV     1   --> A''            
     e(  5 -  5) =    -10.53911  eV     1   --> A''            
     e(  6 -  6) =    -10.53878  eV     1   --> A'             
     e(  7 -  7) =    -10.52424  eV     1   --> A''            
     e(  8 -  8) =    -10.52370  eV     1   --> A'             
     e(  9 -  9) =    -10.41840  eV     1   --> A''            
     e( 10 - 10) =    -10.30833  eV     1   --> A'             
     e( 11 - 11) =     -0.30000  eV     1   --> A'             
     e( 12 - 12) =      7.06735  eV     1   --> A'             
     e( 13 - 13) =      8.84695  eV     1   --> A''            
     e( 14 - 14) =      9.02079  eV     1   --> A'             
     e( 15 - 15) =     13.94621  eV     1   --> A''            
     e( 16 - 16) =     16.79054  eV     1   --> A'             
     e( 17 - 17) =     17.07369  eV     1   --> A''            
     e( 18 - 18) =     17.22531  eV     1   --> A'             
     e( 19 - 19) =     17.26708  eV     1   --> A'             
     e( 20 - 20) =     20.71117  eV     1   --> A'             
     e( 21 - 21) =     21.11107  eV     1   --> A''            
     e( 22 - 22) =     21.17618  eV     1   --> A'             
     e( 23 - 23) =     21.69222  eV     1   --> A'             
     e( 24 - 24) =     22.59255  eV     1   --> A'             
     e( 25 - 25) =     22.99934  eV     1   --> A'             
     e( 26 - 26) =     23.67662  eV     1   --> A''            
     e( 27 - 27) =     23.79452  eV     1   --> A'             
     e( 28 - 28) =     34.76956  eV     1   --> A''            
     e( 29 - 29) =     34.83205  eV     1   --> A'             
     e( 30 - 30) =     35.80842  eV     1   --> A'             
     e( 31 - 31) =     36.00696  eV     1   --> A''            
     e( 32 - 32) =     36.23634  eV     1   --> A''            
     e( 33 - 33) =     36.33609  eV     1   --> A'             
     e( 34 - 34) =     36.81152  eV     1   --> A''            
     e( 35 - 35) =     37.34925  eV     1   --> A'             
     e( 36 - 36) =     37.62570  eV     1   --> A'             

 **************************************************************************

 **************************************************************************

                    xk=(  -0.06000,   0.00000,   0.10997  )

     Band symmetry, C_s (m)     point group:

     e(  1 -  1) =    -10.80707  eV     1   --> A'             
     e(  2 -  2) =    -10.73864  eV     1   --> A'             
     e(  3 -  3) =    -10.68262  eV     1   --> A'             
     e(  4 -  4) =    -10.67900  eV     1   --> A''            
     e(  5 -  5) =    -10.54069  eV     1   --> A''            
     e(  6 -  6) =    -10.54010  eV     1   --> A'             
     e(  7 -  7) =    -10.52445  eV     1   --> A''            
     e(  8 -  8) =    -10.52376  eV     1   --> A'             
     e(  9 -  9) =    -10.41880  eV     1   --> A''            
     e( 10 - 10) =    -10.30911  eV     1   --> A'             
     e( 11 - 11) =     -0.27818  eV     1   --> A'             
     e( 12 - 12) =      7.03603  eV     1   --> A'             
     e( 13 - 13) =      8.84874  eV     1   --> A''            
     e( 14 - 14) =      9.09348  eV     1   --> A'             
     e( 15 - 15) =     13.98323  eV     1   --> A''            
     e( 16 - 16) =     16.65336  eV     1   --> A'             
     e( 17 - 17) =     17.04099  eV     1   --> A'             
     e( 18 - 18) =     17.07150  eV     1   --> A''            
     e( 19 - 19) =     17.14806  eV     1   --> A'             
     e( 20 - 20) =     20.63839  eV     1   --> A'             
     e( 21 - 21) =     20.89193  eV     1   --> A''            
     e( 22 - 22) =     21.08251  eV     1   --> A'             
     e( 23 - 23) =     21.78418  eV     1   --> A'             
     e( 24 - 24) =     22.77969  eV     1   --> A'             
     e( 25 - 25) =     23.16102  eV     1   --> A'             
     e( 26 - 26) =     23.96120  eV     1   --> A''            
     e( 27 - 27) =     24.12053  eV     1   --> A'             
     e( 28 - 28) =     34.66012  eV     1   --> A''            
     e( 29 - 29) =     34.76054  eV     1   --> A'             
     e( 30 - 30) =     35.41710  eV     1   --> A'             
     e( 31 - 31) =     35.76936  eV     1   --> A''            
     e( 32 - 32) =     35.99823  eV     1   --> A''            
     e( 33 - 33) =     36.06194  eV     1   --> A'             
     e( 34 - 34) =     36.65664  eV     1   --> A''            
     e( 35 - 35) =     37.26734  eV     1   --> A'             
     e( 36 - 36) =     37.52687  eV     1   --> A'             

 **************************************************************************

 **************************************************************************

                    xk=(  -0.07000,   0.00000,   0.12830  )

     Band symmetry, C_s (m)     point group:

     e(  1 -  1) =    -10.80631  eV     1   --> A'             
     e(  2 -  2) =    -10.73603  eV     1   --> A'             
     e(  3 -  3) =    -10.67954  eV     1   --> A'             
     e(  4 -  4) =    -10.67805  eV     1   --> A''            
     e(  5 -  5) =    -10.54248  eV     1   --> A''            
     e(  6 -  6) =    -10.54151  eV     1   --> A'             
     e(  7 -  7) =    -10.52477  eV     1   --> A''            
     e(  8 -  8) =    -10.52395  eV     1   --> A'             
     e(  9 -  9) =    -10.41927  eV     1   --> A''            
     e( 10 - 10) =    -10.31003  eV     1   --> A'             
     e( 11 - 11) =     -0.25239  eV     1   --> A'             
     e( 12 - 12) =      7.00227  eV     1   --> A'             
     e( 13 - 13) =      8.85099  eV     1   --> A''            
     e( 14 - 14) =      9.17604  eV     1   --> A'             
     e( 15 - 15) =     14.02676  eV     1   --> A''            
     e( 16 - 16) =     16.48477  eV     1   --> A'             
     e( 17 - 17) =     16.84140  eV     1   --> A'             
     e( 18 - 18) =     17.02955  eV     1   --> A'             
     e( 19 - 19) =     17.06726  eV     1   --> A''            
     e( 20 - 20) =     20.50885  eV     1   --> A'             
     e( 21 - 21) =     20.68204  eV     1   --> A''            
     e( 22 - 22) =     21.05578  eV     1   --> A'             
     e( 23 - 23) =     21.89041  eV     1   --> A'             
     e( 24 - 24) =     22.98092  eV     1   --> A'             
     e( 25 - 25) =     23.35012  eV     1   --> A'             
     e( 26 - 26) =     24.25007  eV     1   --> A''            
     e( 27 - 27) =     24.45522  eV     1   --> A'             
     e( 28 - 28) =     34.52105  eV     1   --> A''            
     e( 29 - 29) =     34.67514  eV     1   --> A'             
     e( 30 - 30) =     35.02882  eV     1   --> A'             
     e( 31 - 31) =     35.52230  eV     1   --> A''            
     e( 32 - 32) =     35.73835  eV     1   --> A''            
     e( 33 - 33) =     35.78297  eV     1   --> A'             
     e( 34 - 34) =     36.51830  eV     1   --> A''            
     e( 35 - 35) =     37.18711  eV     1   --> A'             
     e( 36 - 36) =     37.42502  eV     1   --> A'             

 **************************************************************************

 **************************************************************************

                    xk=(  -0.08000,   0.00000,   0.14663  )

     Band symmetry, C_s (m)     point group:

     e(  1 -  1) =    -10.80543  eV     1   --> A'             
     e(  2 -  2) =    -10.73307  eV     1   --> A'             
     e(  3 -  3) =    -10.67697  eV     1   --> A''            
     e(  4 -  4) =    -10.67607  eV     1   --> A'             
     e(  5 -  5) =    -10.54444  eV     1   --> A''            
     e(  6 -  6) =    -10.54297  eV     1   --> A'             
     e(  7 -  7) =    -10.52521  eV     1   --> A''            
     e(  8 -  8) =    -10.52426  eV     1   --> A'             
     e(  9 -  9) =    -10.41982  eV     1   --> A''            
     e( 10 - 10) =    -10.31107  eV     1   --> A'             
     e( 11 - 11) =     -0.22263  eV     1   --> A'             
     e( 12 - 12) =      6.96701  eV     1   --> A'             
     e( 13 - 13) =      8.85377  eV     1   --> A''            
     e( 14 - 14) =      9.26745  eV     1   --> A'             
     e( 15 - 15) =     14.07668  eV     1   --> A''            
     e( 16 - 16) =     16.28713  eV     1   --> A'             
     e( 17 - 17) =     16.63126  eV     1   --> A'             
     e( 18 - 18) =     16.91379  eV     1   --> A'             
     e( 19 - 19) =     17.06008  eV     1   --> A''            
     e( 20 - 20) =     20.34946  eV     1   --> A'             
     e( 21 - 21) =     20.48247  eV     1   --> A''            
     e( 22 - 22) =     21.06946  eV     1   --> A'             
     e( 23 - 23) =     22.00821  eV     1   --> A'             
     e( 24 - 24) =     23.19171  eV     1   --> A'             
     e( 25 - 25) =     23.56487  eV     1   --> A'             
     e( 26 - 26) =     24.54305  eV     1   --> A''            
     e( 27 - 27) =     24.79762  eV     1   --> A'             
     e( 28 - 28) =     34.34564  eV     1   --> A''            
     e( 29 - 29) =     34.54496  eV     1   --> A'             
     e( 30 - 30) =     34.67670  eV     1   --> A'             
     e( 31 - 31) =     35.27569  eV     1   --> A''            
     e( 32 - 32) =     35.47359  eV     1   --> A''            
     e( 33 - 33) =     35.50245  eV     1   --> A'             
     e( 34 - 34) =     36.38878  eV     1   --> A''            
     e( 35 - 35) =     37.10907  eV     1   --> A'             
     e( 36 - 36) =     37.32142  eV     1   --> A'             

 **************************************************************************

 **************************************************************************

                    xk=(  -0.09000,   0.00000,   0.16496  )

     Band symmetry, C_s (m)     point group:

     e(  1 -  1) =    -10.80442  eV     1   --> A'             
     e(  2 -  2) =    -10.72977  eV     1   --> A'             
     e(  3 -  3) =    -10.67576  eV     1   --> A''            
     e(  4 -  4) =    -10.67224  eV     1   --> A'             
     e(  5 -  5) =    -10.54657  eV     1   --> A''            
     e(  6 -  6) =    -10.54444  eV     1   --> A'             
     e(  7 -  7) =    -10.52578  eV     1   --> A''            
     e(  8 -  8) =    -10.52473  eV     1   --> A'             
     e(  9 -  9) =    -10.42043  eV     1   --> A''            
     e( 10 - 10) =    -10.31224  eV     1   --> A'             
     e( 11 - 11) =     -0.18891  eV     1   --> A'             
     e( 12 - 12) =      6.93108  eV     1   --> A'             
     e( 13 - 13) =      8.85714  eV     1   --> A''            
     e( 14 - 14) =      9.36680  eV     1   --> A'             
     e( 15 - 15) =     14.13285  eV     1   --> A''            
     e( 16 - 16) =     16.06515  eV     1   --> A'             
     e( 17 - 17) =     16.41402  eV     1   --> A'             
     e( 18 - 18) =     16.80053  eV     1   --> A'             
     e( 19 - 19) =     17.04890  eV     1   --> A''            
     e( 20 - 20) =     20.18106  eV     1   --> A'             
     e( 21 - 21) =     20.29446  eV     1   --> A''            
     e( 22 - 22) =     21.10179  eV     1   --> A'             
     e( 23 - 23) =     22.13668  eV     1   --> A'             
     e( 24 - 24) =     23.40920  eV     1   --> A'             
     e( 25 - 25) =     23.80261  eV     1   --> A'             
     e( 26 - 26) =     24.83997  eV     1   --> A''            
     e( 27 - 27) =     25.14666  eV     1   --> A'             
     e( 28 - 28) =     34.12926  eV     1   --> A''            
     e( 29 - 29) =     34.21832  eV     1   --> A'             
     e( 30 - 30) =     34.51346  eV     1   --> A'             
     e( 31 - 31) =     35.02581  eV     1   --> A''            
     e( 32 - 32) =     35.22370  eV     1   --> A'             
     e( 33 - 33) =     35.22598  eV     1   --> A''            
     e( 34 - 34) =     36.26403  eV     1   --> A''            
     e( 35 - 35) =     37.03303  eV     1   --> A'             
     e( 36 - 36) =     37.21743  eV     1   --> A'             

 **************************************************************************

 **************************************************************************

                    xk=(  -0.10000,   0.00000,   0.18328  )

     Band symmetry, C_s (m)     point group:

     e(  1 -  1) =    -10.80328  eV     1   --> A'             
     e(  2 -  2) =    -10.72614  eV     1   --> A'             
     e(  3 -  3) =    -10.67442  eV     1   --> A''            
     e(  4 -  4) =    -10.66809  eV     1   --> A'             
     e(  5 -  5) =    -10.54885  eV     1   --> A''            
     e(  6 -  6) =    -10.54587  eV     1   --> A'             
     e(  7 -  7) =    -10.52647  eV     1   --> A''            
     e(  8 -  8) =    -10.52534  eV     1   --> A'             
     e(  9 -  9) =    -10.42111  eV     1   --> A''            
     e( 10 - 10) =    -10.31352  eV     1   --> A'             
     e( 11 - 11) =     -0.15121  eV     1   --> A'             
     e( 12 - 12) =      6.89518  eV     1   --> A'             
     e( 13 - 13) =      8.86118  eV     1   --> A''            
     e( 14 - 14) =      9.47330  eV     1   --> A'             
     e( 15 - 15) =     14.19511  eV     1   --> A''            
     e( 16 - 16) =     15.82410  eV     1   --> A'             
     e( 17 - 17) =     16.19199  eV     1   --> A'             
     e( 18 - 18) =     16.68885  eV     1   --> A'             
     e( 19 - 19) =     17.03250  eV     1   --> A''            
     e( 20 - 20) =     20.01234  eV     1   --> A'             
     e( 21 - 21) =     20.11938  eV     1   --> A''            
     e( 22 - 22) =     21.14304  eV     1   --> A'             
     e( 23 - 23) =     22.27539  eV     1   --> A'             
     e( 24 - 24) =     23.63203  eV     1   --> A'             
     e( 25 - 25) =     24.05999  eV     1   --> A'             
     e( 26 - 26) =     25.14069  eV     1   --> A''            
     e( 27 - 27) =     25.50122  eV     1   --> A'             
     e( 28 - 28) =     33.83885  eV     1   --> A'             
     e( 29 - 29) =     33.87338  eV     1   --> A''            
     e( 30 - 30) =     34.39455  eV     1   --> A'             
     e( 31 - 31) =     34.75816  eV     1   --> A''            
     e( 32 - 32) =     34.95135  eV     1   --> A'             
     e( 33 - 33) =     35.01761  eV     1   --> A''            
     e( 34 - 34) =     36.14222  eV     1   --> A''            
     e( 35 - 35) =     36.95813  eV     1   --> A'             
     e( 36 - 36) =     37.11469  eV     1   --> A'             

 **************************************************************************

 **************************************************************************

                    xk=(  -0.11000,   0.00000,   0.20161  )

     Band symmetry, C_s (m)     point group:

     e(  1 -  1) =    -10.80202  eV     1   --> A'             
     e(  2 -  2) =    -10.72222  eV     1   --> A'             
     e(  3 -  3) =    -10.67295  eV     1   --> A''            
     e(  4 -  4) =    -10.66368  eV     1   --> A'             
     e(  5 -  5) =    -10.55126  eV     1   --> A''            
     e(  6 -  6) =    -10.54724  eV     1   --> A'             
     e(  7 -  7) =    -10.52729  eV     1   --> A''            
     e(  8 -  8) =    -10.52609  eV     1   --> A'             
     e(  9 -  9) =    -10.42187  eV     1   --> A''            
     e( 10 - 10) =    -10.31491  eV     1   --> A'             
     e( 11 - 11) =     -0.10954  eV     1   --> A'             
     e( 12 - 12) =      6.85989  eV     1   --> A'             
     e( 13 - 13) =      8.86596  eV     1   --> A''            
     e( 14 - 14) =      9.58626  eV     1   --> A'             
     e( 15 - 15) =     14.26329  eV     1   --> A''            
     e( 16 - 16) =     15.56870  eV     1   --> A'             
     e( 17 - 17) =     15.96674  eV     1   --> A'             
     e( 18 - 18) =     16.57802  eV     1   --> A'             
     e( 19 - 19) =     17.00952  eV     1   --> A''            
     e( 20 - 20) =     19.84673  eV     1   --> A'             
     e( 21 - 21) =     19.95875  eV     1   --> A''            
     e( 22 - 22) =     21.18901  eV     1   --> A'             
     e( 23 - 23) =     22.42393  eV     1   --> A'             
     e( 24 - 24) =     23.85971  eV     1   --> A'             
     e( 25 - 25) =     24.33361  eV     1   --> A'             
     e( 26 - 26) =     25.44505  eV     1   --> A''            
     e( 27 - 27) =     25.86003  eV     1   --> A'             
     e( 28 - 28) =     33.45945  eV     1   --> A'             
     e( 29 - 29) =     33.58535  eV     1   --> A''            
     e( 30 - 30) =     34.26211  eV     1   --> A'             
     e( 31 - 31) =     34.47225  eV     1   --> A''            
     e( 32 - 32) =     34.69380  eV     1   --> A'             
     e( 33 - 33) =     34.84795  eV     1   --> A''            
     e( 34 - 34) =     36.02265  eV     1   --> A''            
     e( 35 - 35) =     36.88267  eV     1   --> A'             
     e( 36 - 36) =     37.01542  eV     1   --> A'             

 **************************************************************************

 **************************************************************************

                    xk=(  -0.12000,   0.00000,   0.21994  )

     Band symmetry, C_s (m)     point group:

     e(  1 -  1) =    -10.80063  eV     1   --> A'             
     e(  2 -  2) =    -10.71803  eV     1   --> A'             
     e(  3 -  3) =    -10.67138  eV     1   --> A''            
     e(  4 -  4) =    -10.65905  eV     1   --> A'             
     e(  5 -  5) =    -10.55379  eV     1   --> A''            
     e(  6 -  6) =    -10.54849  eV     1   --> A'             
     e(  7 -  7) =    -10.52824  eV     1   --> A''            
     e(  8 -  8) =    -10.52697  eV     1   --> A'             
     e(  9 -  9) =    -10.42268  eV     1   --> A''            
     e( 10 - 10) =    -10.31640  eV     1   --> A'             
     e( 11 - 11) =     -0.06390  eV     1   --> A'             
     e( 12 - 12) =      6.82570  eV     1   --> A'             
     e( 13 - 13) =      8.87156  eV     1   --> A''            
     e( 14 - 14) =      9.70506  eV     1   --> A'             
     e( 15 - 15) =     14.33717  eV     1   --> A''            
     e( 16 - 16) =     15.30276  eV     1   --> A'             
     e( 17 - 17) =     15.73939  eV     1   --> A'             
     e( 18 - 18) =     16.46768  eV     1   --> A'             
     e( 19 - 19) =     16.97860  eV     1   --> A''            
     e( 20 - 20) =     19.68563  eV     1   --> A'             
     e( 21 - 21) =     19.81413  eV     1   --> A''            
     e( 22 - 22) =     21.23776  eV     1   --> A'             
     e( 23 - 23) =     22.58181  eV     1   --> A'             
     e( 24 - 24) =     24.09204  eV     1   --> A'             
     e( 25 - 25) =     24.62044  eV     1   --> A'             
     e( 26 - 26) =     25.75288  eV     1   --> A''            
     e( 27 - 27) =     26.22156  eV     1   --> A'             
     e( 28 - 28) =     33.08525  eV     1   --> A'             
     e( 29 - 29) =     33.27417  eV     1   --> A''            
     e( 30 - 30) =     34.09922  eV     1   --> A'             
     e( 31 - 31) =     34.17688  eV     1   --> A''            
     e( 32 - 32) =     34.46620  eV     1   --> A'             
     e( 33 - 33) =     34.70367  eV     1   --> A''            
     e( 34 - 34) =     35.90517  eV     1   --> A''            
     e( 35 - 35) =     36.80384  eV     1   --> A'             
     e( 36 - 36) =     36.92277  eV     1   --> A'             

 **************************************************************************

 **************************************************************************

                    xk=(  -0.13000,   0.00000,   0.23827  )

     Band symmetry, C_s (m)     point group:

     e(  1 -  1) =    -10.79913  eV     1   --> A'             
     e(  2 -  2) =    -10.71361  eV     1   --> A'             
     e(  3 -  3) =    -10.66969  eV     1   --> A''            
     e(  4 -  4) =    -10.65426  eV     1   --> A'             
     e(  5 -  5) =    -10.55643  eV     1   --> A''            
     e(  6 -  6) =    -10.54957  eV     1   --> A'             
     e(  7 -  7) =    -10.52931  eV     1   --> A''            
     e(  8 -  8) =    -10.52798  eV     1   --> A'             
     e(  9 -  9) =    -10.42357  eV     1   --> A''            
     e( 10 - 10) =    -10.31799  eV     1   --> A'             
     e( 11 - 11) =     -0.01429  eV     1   --> A'             
     e( 12 - 12) =      6.79298  eV     1   --> A'             
     e( 13 - 13) =      8.87806  eV     1   --> A''            
     e( 14 - 14) =      9.82915  eV     1   --> A'             
     e( 15 - 15) =     14.41649  eV     1   --> A''            
     e( 16 - 16) =     15.02926  eV     1   --> A'             
     e( 17 - 17) =     15.51087  eV     1   --> A'             
     e( 18 - 18) =     16.35778  eV     1   --> A'             
     e( 19 - 19) =     16.93842  eV     1   --> A''            
     e( 20 - 20) =     19.52962  eV     1   --> A'             
     e( 21 - 21) =     19.68703  eV     1   --> A''            
     e( 22 - 22) =     21.28838  eV     1   --> A'             
     e( 23 - 23) =     22.74843  eV     1   --> A'             
     e( 24 - 24) =     24.32882  eV     1   --> A'             
     e( 25 - 25) =     24.91795  eV     1   --> A'             
     e( 26 - 26) =     26.06402  eV     1   --> A''            
     e( 27 - 27) =     26.58388  eV     1   --> A'             
     e( 28 - 28) =     32.71891  eV     1   --> A'             
     e( 29 - 29) =     32.94742  eV     1   --> A''            
     e( 30 - 30) =     33.87777  eV     1   --> A''            
     e( 31 - 31) =     33.89311  eV     1   --> A'             
     e( 32 - 32) =     34.28221  eV     1   --> A'             
     e( 33 - 33) =     34.57485  eV     1   --> A''            
     e( 34 - 34) =     35.78983  eV     1   --> A''            
     e( 35 - 35) =     36.71882  eV     1   --> A'             
     e( 36 - 36) =     36.83981  eV     1   --> A'             

 **************************************************************************

 **************************************************************************

                    xk=(  -0.14000,   0.00000,   0.25660  )

     Band symmetry, C_s (m)     point group:

     e(  1 -  1) =    -10.79751  eV     1   --> A'             
     e(  2 -  2) =    -10.70897  eV     1   --> A'             
     e(  3 -  3) =    -10.66791  eV     1   --> A''            
     e(  4 -  4) =    -10.64939  eV     1   --> A'             
     e(  5 -  5) =    -10.55915  eV     1   --> A''            
     e(  6 -  6) =    -10.55044  eV     1   --> A'             
     e(  7 -  7) =    -10.53050  eV     1   --> A''            
     e(  8 -  8) =    -10.52908  eV     1   --> A'             
     e(  9 -  9) =    -10.42451  eV     1   --> A''            
     e( 10 - 10) =    -10.31967  eV     1   --> A'             
     e( 11 - 11) =      0.03929  eV     1   --> A'             
     e( 12 - 12) =      6.76206  eV     1   --> A'             
     e( 13 - 13) =      8.88553  eV     1   --> A''            
     e( 14 - 14) =      9.95799  eV     1   --> A'             
     e( 15 - 15) =     14.50093  eV     1   --> A''            
     e( 16 - 16) =     14.75050  eV     1   --> A'             
     e( 17 - 17) =     15.28195  eV     1   --> A'             
     e( 18 - 18) =     16.24846  eV     1   --> A'             
     e( 19 - 19) =     16.88795  eV     1   --> A''            
     e( 20 - 20) =     19.37895  eV     1   --> A'             
     e( 21 - 21) =     19.57876  eV     1   --> A''            
     e( 22 - 22) =     21.34051  eV     1   --> A'             
     e( 23 - 23) =     22.92312  eV     1   --> A'             
     e( 24 - 24) =     24.56977  eV     1   --> A'             
     e( 25 - 25) =     25.22412  eV     1   --> A'             
     e( 26 - 26) =     26.37825  eV     1   --> A''            
     e( 27 - 27) =     26.94433  eV     1   --> A'             
     e( 28 - 28) =     32.36336  eV     1   --> A'             
     e( 29 - 29) =     32.61051  eV     1   --> A''            
     e( 30 - 30) =     33.57782  eV     1   --> A''            
     e( 31 - 31) =     33.65240  eV     1   --> A'             
     e( 32 - 32) =     34.13447  eV     1   --> A'             
     e( 33 - 33) =     34.45578  eV     1   --> A''            
     e( 34 - 34) =     35.67678  eV     1   --> A''            
     e( 35 - 35) =     36.62740  eV     1   --> A'             
     e( 36 - 36) =     36.76693  eV     1   --> A'             

 **************************************************************************

 **************************************************************************

                    xk=(  -0.15000,   0.00000,   0.27493  )

     Band symmetry, C_s (m)     point group:

     e(  1 -  1) =    -10.79578  eV     1   --> A'             
     e(  2 -  2) =    -10.70418  eV     1   --> A'             
     e(  3 -  3) =    -10.66603  eV     1   --> A''            
     e(  4 -  4) =    -10.64451  eV     1   --> A'             
     e(  5 -  5) =    -10.56195  eV     1   --> A''            
     e(  6 -  6) =    -10.55104  eV     1   --> A'             
     e(  7 -  7) =    -10.53181  eV     1   --> A''            
     e(  8 -  8) =    -10.53025  eV     1   --> A'             
     e(  9 -  9) =    -10.42552  eV     1   --> A''            
     e( 10 - 10) =    -10.32143  eV     1   --> A'             
     e( 11 - 11) =      0.09683  eV     1   --> A'             
     e( 12 - 12) =      6.73317  eV     1   --> A'             
     e( 13 - 13) =      8.89404  eV     1   --> A''            
     e( 14 - 14) =     10.09108  eV     1   --> A'             
     e( 15 - 15) =     14.46830  eV     1   --> A'             
     e( 16 - 16) =     14.59008  eV     1   --> A''            
     e( 17 - 17) =     15.05337  eV     1   --> A'             
     e( 18 - 18) =     16.13992  eV     1   --> A'             
     e( 19 - 19) =     16.82661  eV     1   --> A''            
     e( 20 - 20) =     19.23369  eV     1   --> A'             
     e( 21 - 21) =     19.49023  eV     1   --> A''            
     e( 22 - 22) =     21.39401  eV     1   --> A'             
     e( 23 - 23) =     23.10514  eV     1   --> A'             
     e( 24 - 24) =     24.81451  eV     1   --> A'             
     e( 25 - 25) =     25.53726  eV     1   --> A'             
     e( 26 - 26) =     26.69533  eV     1   --> A''            
     e( 27 - 27) =     27.29907  eV     1   --> A'             
     e( 28 - 28) =     32.02269  eV     1   --> A'             
     e( 29 - 29) =     32.26713  eV     1   --> A''            
     e( 30 - 30) =     33.27864  eV     1   --> A''            
     e( 31 - 31) =     33.39508  eV     1   --> A'             
     e( 32 - 32) =     34.00621  eV     1   --> A'             
     e( 33 - 33) =     34.34323  eV     1   --> A''            
     e( 34 - 34) =     35.56622  eV     1   --> A''            
     e( 35 - 35) =     36.53208  eV     1   --> A'             
     e( 36 - 36) =     36.70177  eV     1   --> A'             

 **************************************************************************

 **************************************************************************

                    xk=(  -0.16000,   0.00000,   0.29326  )

     Band symmetry, C_s (m)     point group:

     e(  1 -  1) =    -10.79395  eV     1   --> A'             
     e(  2 -  2) =    -10.69926  eV     1   --> A'             
     e(  3 -  3) =    -10.66407  eV     1   --> A''            
     e(  4 -  4) =    -10.63970  eV     1   --> A'             
     e(  5 -  5) =    -10.56482  eV     1   --> A''            
     e(  6 -  6) =    -10.55130  eV     1   --> A'             
     e(  7 -  7) =    -10.53323  eV     1   --> A''            
     e(  8 -  8) =    -10.53143  eV     1   --> A'             
     e(  9 -  9) =    -10.42660  eV     1   --> A''            
     e( 10 - 10) =    -10.32328  eV     1   --> A'             
     e( 11 - 11) =      0.15833  eV     1   --> A'             
     e( 12 - 12) =      6.70652  eV     1   --> A'             
     e( 13 - 13) =      8.90368  eV     1   --> A''            
     e( 14 - 14) =     10.22789  eV     1   --> A'             
     e( 15 - 15) =     14.18415  eV     1   --> A'             
     e( 16 - 16) =     14.68339  eV     1   --> A''            
     e( 17 - 17) =     14.82578  eV     1   --> A'             
     e( 18 - 18) =     16.03245  eV     1   --> A'             
     e( 19 - 19) =     16.75445  eV     1   --> A''            
     e( 20 - 20) =     19.09386  eV     1   --> A'             
     e( 21 - 21) =     19.42185  eV     1   --> A''            
     e( 22 - 22) =     21.44892  eV     1   --> A'             
     e( 23 - 23) =     23.29376  eV     1   --> A'             
     e( 24 - 24) =     25.06258  eV     1   --> A'             
     e( 25 - 25) =     25.85590  eV     1   --> A'             
     e( 26 - 26) =     27.01494  eV     1   --> A''            
     e( 27 - 27) =     27.64208  eV     1   --> A'             
     e( 28 - 28) =     31.70323  eV     1   --> A'             
     e( 29 - 29) =     31.91978  eV     1   --> A''            
     e( 30 - 30) =     32.98135  eV     1   --> A''            
     e( 31 - 31) =     33.13231  eV     1   --> A'             
     e( 32 - 32) =     33.88755  eV     1   --> A'             
     e( 33 - 33) =     34.23539  eV     1   --> A''            
     e( 34 - 34) =     35.45834  eV     1   --> A''            
     e( 35 - 35) =     36.43540  eV     1   --> A'             
     e( 36 - 36) =     36.64191  eV     1   --> A'             

 **************************************************************************

 **************************************************************************

                    xk=(  -0.17000,   0.00000,   0.31158  )

     Band symmetry, C_s (m)     point group:

     e(  1 -  1) =    -10.79203  eV     1   --> A'             
     e(  2 -  2) =    -10.69427  eV     1   --> A'             
     e(  3 -  3) =    -10.66205  eV     1   --> A''            
     e(  4 -  4) =    -10.63507  eV     1   --> A'             
     e(  5 -  5) =    -10.56772  eV     1   --> A''            
     e(  6 -  6) =    -10.55118  eV     1   --> A'             
     e(  7 -  7) =    -10.53475  eV     1   --> A''            
     e(  8 -  8) =    -10.53258  eV     1   --> A'             
     e(  9 -  9) =    -10.42773  eV     1   --> A''            
     e( 10 - 10) =    -10.32519  eV     1   --> A'             
     e( 11 - 11) =      0.22379  eV     1   --> A'             
     e( 12 - 12) =      6.68225  eV     1   --> A'             
     e( 13 - 13) =      8.91450  eV     1   --> A''            
     e( 14 - 14) =     10.36780  eV     1   --> A'             
     e( 15 - 15) =     13.89931  eV     1   --> A'             
     e( 16 - 16) =     14.59979  eV     1   --> A'             
     e( 17 - 17) =     14.78011  eV     1   --> A''            
     e( 18 - 18) =     15.92632  eV     1   --> A'             
     e( 19 - 19) =     16.67236  eV     1   --> A''            
     e( 20 - 20) =     18.95940  eV     1   --> A'             
     e( 21 - 21) =     19.37344  eV     1   --> A''            
     e( 22 - 22) =     21.50531  eV     1   --> A'             
     e( 23 - 23) =     23.48817  eV     1   --> A'             
     e( 24 - 24) =     25.31339  eV     1   --> A'             
     e( 25 - 25) =     26.17866  eV     1   --> A'             
     e( 26 - 26) =     27.33663  eV     1   --> A''            
     e( 27 - 27) =     27.96359  eV     1   --> A'             
     e( 28 - 28) =     31.41527  eV     1   --> A'             
     e( 29 - 29) =     31.57021  eV     1   --> A''            
     e( 30 - 30) =     32.68684  eV     1   --> A''            
     e( 31 - 31) =     32.86954  eV     1   --> A'             
     e( 32 - 32) =     33.77431  eV     1   --> A'             
     e( 33 - 33) =     34.13123  eV     1   --> A''            
     e( 34 - 34) =     35.35329  eV     1   --> A''            
     e( 35 - 35) =     36.33899  eV     1   --> A'             
     e( 36 - 36) =     36.58584  eV     1   --> A'             

 **************************************************************************

 **************************************************************************

                    xk=(  -0.18000,   0.00000,   0.32991  )

     Band symmetry, C_s (m)     point group:

     e(  1 -  1) =    -10.79003  eV     1   --> A'             
     e(  2 -  2) =    -10.68925  eV     1   --> A'             
     e(  3 -  3) =    -10.65997  eV     1   --> A''            
     e(  4 -  4) =    -10.63072  eV     1   --> A'             
     e(  5 -  5) =    -10.57065  eV     1   --> A''            
     e(  6 -  6) =    -10.55064  eV     1   --> A'             
     e(  7 -  7) =    -10.53636  eV     1   --> A''            
     e(  8 -  8) =    -10.53358  eV     1   --> A'             
     e(  9 -  9) =    -10.42891  eV     1   --> A''            
     e( 10 - 10) =    -10.32716  eV     1   --> A'             
     e( 11 - 11) =      0.29320  eV     1   --> A'             
     e( 12 - 12) =      6.66046  eV     1   --> A'             
     e( 13 - 13) =      8.92656  eV     1   --> A''            
     e( 14 - 14) =     10.51008  eV     1   --> A'             
     e( 15 - 15) =     13.61496  eV     1   --> A'             
     e( 16 - 16) =     14.37602  eV     1   --> A'             
     e( 17 - 17) =     14.87911  eV     1   --> A''            
     e( 18 - 18) =     15.82183  eV     1   --> A'             
     e( 19 - 19) =     16.58210  eV     1   --> A''            
     e( 20 - 20) =     18.83029  eV     1   --> A'             
     e( 21 - 21) =     19.34426  eV     1   --> A''            
     e( 22 - 22) =     21.56330  eV     1   --> A'             
     e( 23 - 23) =     23.68755  eV     1   --> A'             
     e( 24 - 24) =     25.56619  eV     1   --> A'             
     e( 25 - 25) =     26.50411  eV     1   --> A'             
     e( 26 - 26) =     27.65979  eV     1   --> A''            
     e( 27 - 27) =     28.24732  eV     1   --> A'             
     e( 28 - 28) =     31.17588  eV     1   --> A'             
     e( 29 - 29) =     31.21967  eV     1   --> A''            
     e( 30 - 30) =     32.39604  eV     1   --> A''            
     e( 31 - 31) =     32.60985  eV     1   --> A'             
     e( 32 - 32) =     33.66478  eV     1   --> A'             
     e( 33 - 33) =     34.03017  eV     1   --> A''            
     e( 34 - 34) =     35.25122  eV     1   --> A''            
     e( 35 - 35) =     36.24380  eV     1   --> A'             
     e( 36 - 36) =     36.53274  eV     1   --> A'             

 **************************************************************************

 **************************************************************************

                    xk=(  -0.19000,   0.00000,   0.34824  )

     Band symmetry, C_s (m)     point group:

     e(  1 -  1) =    -10.78796  eV     1   --> A'             
     e(  2 -  2) =    -10.68426  eV     1   --> A'             
     e(  3 -  3) =    -10.65784  eV     1   --> A''            
     e(  4 -  4) =    -10.62676  eV     1   --> A'             
     e(  5 -  5) =    -10.57359  eV     1   --> A''            
     e(  6 -  6) =    -10.54969  eV     1   --> A'             
     e(  7 -  7) =    -10.53806  eV     1   --> A''            
     e(  8 -  8) =    -10.53432  eV     1   --> A'             
     e(  9 -  9) =    -10.43016  eV     1   --> A''            
     e( 10 - 10) =    -10.32920  eV     1   --> A'             
     e( 11 - 11) =      0.36655  eV     1   --> A'             
     e( 12 - 12) =      6.64122  eV     1   --> A'             
     e( 13 - 13) =      8.93992  eV     1   --> A''            
     e( 14 - 14) =     10.65378  eV     1   --> A'             
     e( 15 - 15) =     13.33225  eV     1   --> A'             
     e( 16 - 16) =     14.15510  eV     1   --> A'             
     e( 17 - 17) =     14.97864  eV     1   --> A''            
     e( 18 - 18) =     15.71926  eV     1   --> A'             
     e( 19 - 19) =     16.48652  eV     1   --> A''            
     e( 20 - 20) =     18.70647  eV     1   --> A'             
     e( 21 - 21) =     19.33312  eV     1   --> A''            
     e( 22 - 22) =     21.62302  eV     1   --> A'             
     e( 23 - 23) =     23.89093  eV     1   --> A'             
     e( 24 - 24) =     25.81987  eV     1   --> A'             
     e( 25 - 25) =     26.83063  eV     1   --> A'             
     e( 26 - 26) =     27.98344  eV     1   --> A''            
     e( 27 - 27) =     28.46792  eV     1   --> A'             
     e( 28 - 28) =     30.86909  eV     1   --> A''            
     e( 29 - 29) =     31.01168  eV     1   --> A'             
     e( 30 - 30) =     32.11007  eV     1   --> A''            
     e( 31 - 31) =     32.35552  eV     1   --> A'             
     e( 32 - 32) =     33.55831  eV     1   --> A'             
     e( 33 - 33) =     33.93192  eV     1   --> A''            
     e( 34 - 34) =     35.15227  eV     1   --> A''            
     e( 35 - 35) =     36.15040  eV     1   --> A'             
     e( 36 - 36) =     36.48216  eV     1   --> A'             

 **************************************************************************

 **************************************************************************

                    xk=(  -0.20000,   0.00000,   0.36657  )

     Band symmetry, C_s (m)     point group:

     e(  1 -  1) =    -10.78583  eV     1   --> A'             
     e(  2 -  2) =    -10.67935  eV     1   --> A'             
     e(  3 -  3) =    -10.65569  eV     1   --> A''            
     e(  4 -  4) =    -10.62328  eV     1   --> A'             
     e(  5 -  5) =    -10.57651  eV     1   --> A''            
     e(  6 -  6) =    -10.54840  eV     1   --> A'             
     e(  7 -  7) =    -10.53983  eV     1   --> A''            
     e(  8 -  8) =    -10.53459  eV     1   --> A'             
     e(  9 -  9) =    -10.43145  eV     1   --> A''            
     e( 10 - 10) =    -10.33129  eV     1   --> A'             
     e( 11 - 11) =      0.44384  eV     1   --> A'             
     e( 12 - 12) =      6.62457  eV     1   --> A'             
     e( 13 - 13) =      8.95462  eV     1   --> A''            
     e( 14 - 14) =     10.79748  eV     1   --> A'             
     e( 15 - 15) =     13.05259  eV     1   --> A'             
     e( 16 - 16) =     13.93775  eV     1   --> A'             
     e( 17 - 17) =     15.07585  eV     1   --> A''            
     e( 18 - 18) =     15.61889  eV     1   --> A'             
     e( 19 - 19) =     16.38985  eV     1   --> A''            
     e( 20 - 20) =     18.58792  eV     1   --> A'             
     e( 21 - 21) =     19.33856  eV     1   --> A''            
     e( 22 - 22) =     21.68455  eV     1   --> A'             
     e( 23 - 23) =     24.09721  eV     1   --> A'             
     e( 24 - 24) =     26.07277  eV     1   --> A'             
     e( 25 - 25) =     27.15613  eV     1   --> A'             
     e( 26 - 26) =     28.30603  eV     1   --> A''            
     e( 27 - 27) =     28.59461  eV     1   --> A'             
     e( 28 - 28) =     30.51922  eV     1   --> A''            
     e( 29 - 29) =     30.95553  eV     1   --> A'             
     e( 30 - 30) =     31.83056  eV     1   --> A''            
     e( 31 - 31) =     32.10884  eV     1   --> A'             
     e( 32 - 32) =     33.45470  eV     1   --> A'             
     e( 33 - 33) =     33.83636  eV     1   --> A''            
     e( 34 - 34) =     35.05653  eV     1   --> A''            
     e( 35 - 35) =     36.05916  eV     1   --> A'             
     e( 36 - 36) =     36.43387  eV     1   --> A'             

 **************************************************************************

 **************************************************************************

                    xk=(  -0.21000,   0.00000,   0.38490  )

     Band symmetry, C_s (m)     point group:

     e(  1 -  1) =    -10.78365  eV     1   --> A'             
     e(  2 -  2) =    -10.67459  eV     1   --> A'             
     e(  3 -  3) =    -10.65354  eV     1   --> A''            
     e(  4 -  4) =    -10.62036  eV     1   --> A'             
     e(  5 -  5) =    -10.57940  eV     1   --> A''            
     e(  6 -  6) =    -10.54698  eV     1   --> A'             
     e(  7 -  7) =    -10.54168  eV     1   --> A''            
     e(  8 -  8) =    -10.53408  eV     1   --> A'             
     e(  9 -  9) =    -10.43280  eV     1   --> A''            
     e( 10 - 10) =    -10.33343  eV     1   --> A'             
     e( 11 - 11) =      0.52504  eV     1   --> A'             
     e( 12 - 12) =      6.61050  eV     1   --> A'             
     e( 13 - 13) =      8.97071  eV     1   --> A''            
     e( 14 - 14) =     10.93891  eV     1   --> A'             
     e( 15 - 15) =     12.77790  eV     1   --> A'             
     e( 16 - 16) =     13.72488  eV     1   --> A'             
     e( 17 - 17) =     15.16588  eV     1   --> A''            
     e( 18 - 18) =     15.52100  eV     1   --> A'             
     e( 19 - 19) =     16.29844  eV     1   --> A''            
     e( 20 - 20) =     18.47460  eV     1   --> A'             
     e( 21 - 21) =     19.35901  eV     1   --> A''            
     e( 22 - 22) =     21.74799  eV     1   --> A'             
     e( 23 - 23) =     24.30496  eV     1   --> A'             
     e( 24 - 24) =     26.32211  eV     1   --> A'             
     e( 25 - 25) =     27.47762  eV     1   --> A'             
     e( 26 - 26) =     28.61095  eV     1   --> A'             
     e( 27 - 27) =     28.62472  eV     1   --> A''            
     e( 28 - 28) =     30.17072  eV     1   --> A''            
     e( 29 - 29) =     31.02729  eV     1   --> A'             
     e( 30 - 30) =     31.56025  eV     1   --> A''            
     e( 31 - 31) =     31.87298  eV     1   --> A'             
     e( 32 - 32) =     33.35393  eV     1   --> A'             
     e( 33 - 33) =     33.74350  eV     1   --> A''            
     e( 34 - 34) =     34.96409  eV     1   --> A''            
     e( 35 - 35) =     35.97036  eV     1   --> A'             
     e( 36 - 36) =     36.38779  eV     1   --> A'             

 **************************************************************************

 **************************************************************************

                    xk=(  -0.22000,   0.00000,   0.40323  )

     Band symmetry, C_s (m)     point group:

     e(  1 -  1) =    -10.78144  eV     1   --> A'             
     e(  2 -  2) =    -10.67003  eV     1   --> A'             
     e(  3 -  3) =    -10.65141  eV     1   --> A''            
     e(  4 -  4) =    -10.61805  eV     1   --> A'             
     e(  5 -  5) =    -10.58221  eV     1   --> A''            
     e(  6 -  6) =    -10.54564  eV     1   --> A'             
     e(  7 -  7) =    -10.54358  eV     1   --> A''            
     e(  8 -  8) =    -10.53249  eV     1   --> A'             
     e(  9 -  9) =    -10.43419  eV     1   --> A''            
     e( 10 - 10) =    -10.33562  eV     1   --> A'             
     e( 11 - 11) =      0.61015  eV     1   --> A'             
     e( 12 - 12) =      6.59898  eV     1   --> A'             
     e( 13 - 13) =      8.98821  eV     1   --> A''            
     e( 14 - 14) =     11.07394  eV     1   --> A'             
     e( 15 - 15) =     12.51152  eV     1   --> A'             
     e( 16 - 16) =     13.51774  eV     1   --> A'             
     e( 17 - 17) =     15.24047  eV     1   --> A''            
     e( 18 - 18) =     15.42587  eV     1   --> A'             
     e( 19 - 19) =     16.22201  eV     1   --> A''            
     e( 20 - 20) =     18.36651  eV     1   --> A'             
     e( 21 - 21) =     19.39291  eV     1   --> A''            
     e( 22 - 22) =     21.81339  eV     1   --> A'             
     e( 23 - 23) =     24.51220  eV     1   --> A'             
     e( 24 - 24) =     26.56279  eV     1   --> A'             
     e( 25 - 25) =     27.78981  eV     1   --> A'             
     e( 26 - 26) =     28.53670  eV     1   --> A'             
     e( 27 - 27) =     28.93383  eV     1   --> A''            
     e( 28 - 28) =     29.82458  eV     1   --> A''            
     e( 29 - 29) =     31.21191  eV     1   --> A'             
     e( 30 - 30) =     31.30426  eV     1   --> A''            
     e( 31 - 31) =     31.65487  eV     1   --> A'             
     e( 32 - 32) =     33.25611  eV     1   --> A'             
     e( 33 - 33) =     33.65341  eV     1   --> A''            
     e( 34 - 34) =     34.87501  eV     1   --> A''            
     e( 35 - 35) =     35.88422  eV     1   --> A'             
     e( 36 - 36) =     36.34388  eV     1   --> A'             

 **************************************************************************

 **************************************************************************

                    xk=(  -0.23000,   0.00000,   0.42155  )

     Band symmetry, C_s (m)     point group:

     e(  1 -  1) =    -10.77921  eV     1   --> A'             
     e(  2 -  2) =    -10.66573  eV     1   --> A'             
     e(  3 -  3) =    -10.64933  eV     1   --> A''            
     e(  4 -  4) =    -10.61639  eV     1   --> A'             
     e(  5 -  5) =    -10.58492  eV     1   --> A''            
     e(  6 -  6) =    -10.54554  eV     1   --> A''            
     e(  7 -  7) =    -10.54446  eV     1   --> A'             
     e(  8 -  8) =    -10.52967  eV     1   --> A'             
     e(  9 -  9) =    -10.43563  eV     1   --> A''            
     e( 10 - 10) =    -10.33784  eV     1   --> A'             
     e( 11 - 11) =      0.69915  eV     1   --> A'             
     e( 12 - 12) =      6.58994  eV     1   --> A'             
     e( 13 - 13) =      9.00714  eV     1   --> A''            
     e( 14 - 14) =     11.19393  eV     1   --> A'             
     e( 15 - 15) =     12.26056  eV     1   --> A'             
     e( 16 - 16) =     13.31826  eV     1   --> A'             
     e( 17 - 17) =     15.28714  eV     1   --> A''            
     e( 18 - 18) =     15.33378  eV     1   --> A'             
     e( 19 - 19) =     16.17442  eV     1   --> A''            
     e( 20 - 20) =     18.26365  eV     1   --> A'             
     e( 21 - 21) =     19.43879  eV     1   --> A''            
     e( 22 - 22) =     21.88081  eV     1   --> A'             
     e( 23 - 23) =     24.71603  eV     1   --> A'             
     e( 24 - 24) =     26.78473  eV     1   --> A'             
     e( 25 - 25) =     28.07748  eV     1   --> A'             
     e( 26 - 26) =     28.42663  eV     1   --> A'             
     e( 27 - 27) =     29.21667  eV     1   --> A''            
     e( 28 - 28) =     29.48687  eV     1   --> A''            
     e( 29 - 29) =     31.07348  eV     1   --> A''            
     e( 30 - 30) =     31.38670  eV     1   --> A'             
     e( 31 - 31) =     31.54984  eV     1   --> A'             
     e( 32 - 32) =     33.16139  eV     1   --> A'             
     e( 33 - 33) =     33.56629  eV     1   --> A''            
     e( 34 - 34) =     34.78937  eV     1   --> A''            
     e( 35 - 35) =     35.80092  eV     1   --> A'             
     e( 36 - 36) =     36.30221  eV     1   --> A'             

 **************************************************************************

 **************************************************************************

                    xk=(  -0.24000,   0.00000,   0.43988  )

     Band symmetry, C_s (m)     point group:

     e(  1 -  1) =    -10.77697  eV     1   --> A'             
     e(  2 -  2) =    -10.66172  eV     1   --> A'             
     e(  3 -  3) =    -10.64734  eV     1   --> A''            
     e(  4 -  4) =    -10.61539  eV     1   --> A'             
     e(  5 -  5) =    -10.58750  eV     1   --> A''            
     e(  6 -  6) =    -10.54753  eV     1   --> A''            
     e(  7 -  7) =    -10.54329  eV     1   --> A'             
     e(  8 -  8) =    -10.52578  eV     1   --> A'             
     e(  9 -  9) =    -10.43712  eV     1   --> A''            
     e( 10 - 10) =    -10.34010  eV     1   --> A'             
     e( 11 - 11) =      0.79201  eV     1   --> A'             
     e( 12 - 12) =      6.58326  eV     1   --> A'             
     e( 13 - 13) =      9.02750  eV     1   --> A''            
     e( 14 - 14) =     11.27790  eV     1   --> A'             
     e( 15 - 15) =     12.04299  eV     1   --> A'             
     e( 16 - 16) =     13.12972  eV     1   --> A'             
     e( 17 - 17) =     15.24504  eV     1   --> A'             
     e( 18 - 18) =     15.29267  eV     1   --> A''            
     e( 19 - 19) =     16.17010  eV     1   --> A''            
     e( 20 - 20) =     18.16605  eV     1   --> A'             
     e( 21 - 21) =     19.49533  eV     1   --> A''            
     e( 22 - 22) =     21.95022  eV     1   --> A'             
     e( 23 - 23) =     24.91190  eV     1   --> A'             
     e( 24 - 24) =     26.96754  eV     1   --> A'             
     e( 25 - 25) =     28.22009  eV     1   --> A'             
     e( 26 - 26) =     28.44758  eV     1   --> A'             
     e( 27 - 27) =     29.12389  eV     1   --> A''            
     e( 28 - 28) =     29.48194  eV     1   --> A''            
     e( 29 - 29) =     30.89303  eV     1   --> A''            
     e( 30 - 30) =     31.24711  eV     1   --> A'             
     e( 31 - 31) =     31.84029  eV     1   --> A'             
     e( 32 - 32) =     33.06996  eV     1   --> A'             
     e( 33 - 33) =     33.48239  eV     1   --> A''            
     e( 34 - 34) =     34.70720  eV     1   --> A''            
     e( 35 - 35) =     35.72065  eV     1   --> A'             
     e( 36 - 36) =     36.26291  eV     1   --> A'             

 **************************************************************************

 **************************************************************************

                    xk=(  -0.25000,   0.00000,   0.45821  )

     Band symmetry, C_s (m)     point group:

     e(  1 -  1) =    -10.77474  eV     1   --> A'             
     e(  2 -  2) =    -10.65803  eV     1   --> A'             
     e(  3 -  3) =    -10.64547  eV     1   --> A''            
     e(  4 -  4) =    -10.61503  eV     1   --> A'             
     e(  5 -  5) =    -10.58988  eV     1   --> A''            
     e(  6 -  6) =    -10.54955  eV     1   --> A''            
     e(  7 -  7) =    -10.54188  eV     1   --> A'             
     e(  8 -  8) =    -10.52107  eV     1   --> A'             
     e(  9 -  9) =    -10.43864  eV     1   --> A''            
     e( 10 - 10) =    -10.34238  eV     1   --> A'             
     e( 11 - 11) =      0.88871  eV     1   --> A'             
     e( 12 - 12) =      6.57878  eV     1   --> A'             
     e( 13 - 13) =      9.04930  eV     1   --> A''            
     e( 14 - 14) =     11.27855  eV     1   --> A'             
     e( 15 - 15) =     11.90028  eV     1   --> A'             
     e( 16 - 16) =     12.95816  eV     1   --> A'             
     e( 17 - 17) =     15.15997  eV     1   --> A'             
     e( 18 - 18) =     15.25294  eV     1   --> A''            
     e( 19 - 19) =     16.21427  eV     1   --> A''            
     e( 20 - 20) =     18.07375  eV     1   --> A'             
     e( 21 - 21) =     19.56137  eV     1   --> A''            
     e( 22 - 22) =     22.02161  eV     1   --> A'             
     e( 23 - 23) =     25.09223  eV     1   --> A'             
     e( 24 - 24) =     27.07730  eV     1   --> A'             
     e( 25 - 25) =     28.20192  eV     1   --> A'             
     e( 26 - 26) =     28.66297  eV     1   --> A'             
     e( 27 - 27) =     28.78764  eV     1   --> A''            
     e( 28 - 28) =     29.62481  eV     1   --> A''            
     e( 29 - 29) =     30.81567  eV     1   --> A''            
     e( 30 - 30) =     31.11253  eV     1   --> A'             
     e( 31 - 31) =     32.19963  eV     1   --> A'             
     e( 32 - 32) =     32.98210  eV     1   --> A'             
     e( 33 - 33) =     33.40212  eV     1   --> A''            
     e( 34 - 34) =     34.62858  eV     1   --> A''            
     e( 35 - 35) =     35.64359  eV     1   --> A'             
     e( 36 - 36) =     36.22620  eV     1   --> A'             

 **************************************************************************

 **************************************************************************

                    xk=(  -0.26000,   0.00000,   0.47654  )

     Band symmetry, C_s (m)     point group:

     e(  1 -  1) =    -10.77252  eV     1   --> A'             
     e(  2 -  2) =    -10.65469  eV     1   --> A'             
     e(  3 -  3) =    -10.64378  eV     1   --> A''            
     e(  4 -  4) =    -10.61530  eV     1   --> A'             
     e(  5 -  5) =    -10.59203  eV     1   --> A''            
     e(  6 -  6) =    -10.55160  eV     1   --> A''            
     e(  7 -  7) =    -10.54004  eV     1   --> A'             
     e(  8 -  8) =    -10.51577  eV     1   --> A'             
     e(  9 -  9) =    -10.44020  eV     1   --> A''            
     e( 10 - 10) =    -10.34469  eV     1   --> A'             
     e( 11 - 11) =      0.98922  eV     1   --> A'             
     e( 12 - 12) =      6.57629  eV     1   --> A'             
     e( 13 - 13) =      9.07252  eV     1   --> A''            
     e( 14 - 14) =     11.15756  eV     1   --> A'             
     e( 15 - 15) =     11.85934  eV     1   --> A'             
     e( 16 - 16) =     12.81515  eV     1   --> A'             
     e( 17 - 17) =     15.07897  eV     1   --> A'             
     e( 18 - 18) =     15.17653  eV     1   --> A''            
     e( 19 - 19) =     16.29926  eV     1   --> A''            
     e( 20 - 20) =     17.98682  eV     1   --> A'             
     e( 21 - 21) =     19.63587  eV     1   --> A''            
     e( 22 - 22) =     22.09487  eV     1   --> A'             
     e( 23 - 23) =     25.24430  eV     1   --> A'             
     e( 24 - 24) =     27.09356  eV     1   --> A'             
     e( 25 - 25) =     28.26770  eV     1   --> A'             
     e( 26 - 26) =     28.45016  eV     1   --> A''            
     e( 27 - 27) =     28.85323  eV     1   --> A'             
     e( 28 - 28) =     29.61883  eV     1   --> A''            
     e( 29 - 29) =     30.89550  eV     1   --> A''            
     e( 30 - 30) =     31.03461  eV     1   --> A'             
     e( 31 - 31) =     32.58282  eV     1   --> A'             
     e( 32 - 32) =     32.89841  eV     1   --> A'             
     e( 33 - 33) =     33.32610  eV     1   --> A''            
     e( 34 - 34) =     34.55357  eV     1   --> A''            
     e( 35 - 35) =     35.56996  eV     1   --> A'             
     e( 36 - 36) =     36.19243  eV     1   --> A'             

 **************************************************************************

 **************************************************************************

                    xk=(  -0.27000,   0.00000,   0.49487  )

     Band symmetry, C_s (m)     point group:

     e(  1 -  1) =    -10.77033  eV     1   --> A'             
     e(  2 -  2) =    -10.65169  eV     1   --> A'             
     e(  3 -  3) =    -10.64233  eV     1   --> A''            
     e(  4 -  4) =    -10.61614  eV     1   --> A'             
     e(  5 -  5) =    -10.59388  eV     1   --> A''            
     e(  6 -  6) =    -10.55365  eV     1   --> A''            
     e(  7 -  7) =    -10.53768  eV     1   --> A'             
     e(  8 -  8) =    -10.51005  eV     1   --> A'             
     e(  9 -  9) =    -10.44180  eV     1   --> A''            
     e( 10 - 10) =    -10.34702  eV     1   --> A'             
     e( 11 - 11) =      1.09350  eV     1   --> A'             
     e( 12 - 12) =      6.57551  eV     1   --> A'             
     e( 13 - 13) =      9.09712  eV     1   --> A''            
     e( 14 - 14) =     10.95804  eV     1   --> A'             
     e( 15 - 15) =     11.85707  eV     1   --> A'             
     e( 16 - 16) =     12.72072  eV     1   --> A'             
     e( 17 - 17) =     15.00247  eV     1   --> A'             
     e( 18 - 18) =     15.07621  eV     1   --> A''            
     e( 19 - 19) =     16.41310  eV     1   --> A''            
     e( 20 - 20) =     17.90537  eV     1   --> A'             
     e( 21 - 21) =     19.71796  eV     1   --> A''            
     e( 22 - 22) =     22.16986  eV     1   --> A'             
     e( 23 - 23) =     25.34796  eV     1   --> A'             
     e( 24 - 24) =     27.05570  eV     1   --> A'             
     e( 25 - 25) =     28.11477  eV     1   --> A''            
     e( 26 - 26) =     28.42837  eV     1   --> A'             
     e( 27 - 27) =     28.97279  eV     1   --> A'             
     e( 28 - 28) =     29.48595  eV     1   --> A''            
     e( 29 - 29) =     31.03722  eV     1   --> A'             
     e( 30 - 30) =     31.10650  eV     1   --> A''            
     e( 31 - 31) =     32.81568  eV     1   --> A'             
     e( 32 - 32) =     32.98363  eV     1   --> A'             
     e( 33 - 33) =     33.25530  eV     1   --> A''            
     e( 34 - 34) =     34.48227  eV     1   --> A''            
     e( 35 - 35) =     35.50001  eV     1   --> A'             
     e( 36 - 36) =     36.16210  eV     1   --> A'             

 **************************************************************************

 **************************************************************************

                    xk=(  -0.28000,   0.00000,   0.51320  )

     Band symmetry, C_s (m)     point group:

     e(  1 -  1) =    -10.76818  eV     1   --> A'             
     e(  2 -  2) =    -10.64902  eV     1   --> A'             
     e(  3 -  3) =    -10.64116  eV     1   --> A''            
     e(  4 -  4) =    -10.61750  eV     1   --> A'             
     e(  5 -  5) =    -10.59538  eV     1   --> A''            
     e(  6 -  6) =    -10.55571  eV     1   --> A''            
     e(  7 -  7) =    -10.53476  eV     1   --> A'             
     e(  8 -  8) =    -10.50406  eV     1   --> A'             
     e(  9 -  9) =    -10.44342  eV     1   --> A''            
     e( 10 - 10) =    -10.34937  eV     1   --> A'             
     e( 11 - 11) =      1.20151  eV     1   --> A'             
     e( 12 - 12) =      6.57607  eV     1   --> A'             
     e( 13 - 13) =      9.12306  eV     1   --> A''            
     e( 14 - 14) =     10.72964  eV     1   --> A'             
     e( 15 - 15) =     11.82212  eV     1   --> A'             
     e( 16 - 16) =     12.69653  eV     1   --> A'             
     e( 17 - 17) =     14.93103  eV     1   --> A'             
     e( 18 - 18) =     14.96194  eV     1   --> A''            
     e( 19 - 19) =     16.54649  eV     1   --> A''            
     e( 20 - 20) =     17.82952  eV     1   --> A'             
     e( 21 - 21) =     19.80684  eV     1   --> A''            
     e( 22 - 22) =     22.24631  eV     1   --> A'             
     e( 23 - 23) =     25.37807  eV     1   --> A'             
     e( 24 - 24) =     27.03365  eV     1   --> A'             
     e( 25 - 25) =     27.78203  eV     1   --> A''            
     e( 26 - 26) =     28.64379  eV     1   --> A'             
     e( 27 - 27) =     29.00885  eV     1   --> A'             
     e( 28 - 28) =     29.28888  eV     1   --> A''            
     e( 29 - 29) =     31.13240  eV     1   --> A'             
     e( 30 - 30) =     31.38378  eV     1   --> A''            
     e( 31 - 31) =     32.74145  eV     1   --> A'             
     e( 32 - 32) =     33.19153  eV     1   --> A''            
     e( 33 - 33) =     33.38919  eV     1   --> A'             
     e( 34 - 34) =     34.41482  eV     1   --> A''            
     e( 35 - 35) =     35.43412  eV     1   --> A'             
     e( 36 - 36) =     36.13604  eV     1   --> A'             

 **************************************************************************

 **************************************************************************

                    xk=(  -0.29000,   0.00000,   0.53152  )

     Band symmetry, C_s (m)     point group:

     e(  1 -  1) =    -10.76608  eV     1   --> A'             
     e(  2 -  2) =    -10.64666  eV     1   --> A'             
     e(  3 -  3) =    -10.64035  eV     1   --> A''            
     e(  4 -  4) =    -10.61931  eV     1   --> A'             
     e(  5 -  5) =    -10.59646  eV     1   --> A''            
     e(  6 -  6) =    -10.55776  eV     1   --> A''            
     e(  7 -  7) =    -10.53129  eV     1   --> A'             
     e(  8 -  8) =    -10.49791  eV     1   --> A'             
     e(  9 -  9) =    -10.44507  eV     1   --> A''            
     e( 10 - 10) =    -10.35172  eV     1   --> A'             
     e( 11 - 11) =      1.31319  eV     1   --> A'             
     e( 12 - 12) =      6.57750  eV     1   --> A'             
     e( 13 - 13) =      9.15028  eV     1   --> A''            
     e( 14 - 14) =     10.49309  eV     1   --> A'             
     e( 15 - 15) =     11.73333  eV     1   --> A'             
     e( 16 - 16) =     12.74285  eV     1   --> A'             
     e( 17 - 17) =     14.84009  eV     1   --> A''            
     e( 18 - 18) =     14.86534  eV     1   --> A'             
     e( 19 - 19) =     16.69366  eV     1   --> A''            
     e( 20 - 20) =     17.75945  eV     1   --> A'             
     e( 21 - 21) =     19.90183  eV     1   --> A''            
     e( 22 - 22) =     22.32384  eV     1   --> A'             
     e( 23 - 23) =     25.31912  eV     1   --> A'             
     e( 24 - 24) =     27.07360  eV     1   --> A'             
     e( 25 - 25) =     27.45220  eV     1   --> A''            
     e( 26 - 26) =     28.85795  eV     1   --> A'             
[...]
     e( 30 - 30) =     32.85775  eV     1   --> A              
     e( 31 - 31) =     33.43974  eV     1   --> A              
     e( 32 - 32) =     34.31261  eV     1   --> A              
     e( 33 - 33) =     34.98006  eV     1   --> A              
     e( 34 - 34) =     35.78460  eV     1   --> A              
     e( 35 - 35) =     36.37618  eV     1   --> A              
     e( 36 - 36) =     37.43413  eV     1   --> A              

 **************************************************************************

 **************************************************************************

                    xk=(  -0.07786,   0.12000,   0.21994  )

     Band symmetry, C_1 (1)     point group:

     e(  1 -  1) =    -10.79835  eV     1   --> A              
     e(  2 -  2) =    -10.71871  eV     1   --> A              
     e(  3 -  3) =    -10.66951  eV     1   --> A              
     e(  4 -  4) =    -10.66096  eV     1   --> A              
     e(  5 -  5) =    -10.55354  eV     1   --> A              
     e(  6 -  6) =    -10.54663  eV     1   --> A              
     e(  7 -  7) =    -10.52953  eV     1   --> A              
     e(  8 -  8) =    -10.52513  eV     1   --> A              
     e(  9 -  9) =    -10.42422  eV     1   --> A              
     e( 10 - 10) =    -10.31883  eV     1   --> A              
     e( 11 - 11) =     -0.03653  eV     1   --> A              
     e( 12 - 12) =      6.61752  eV     1   --> A              
     e( 13 - 13) =      9.07485  eV     1   --> A              
     e( 14 - 14) =      9.68559  eV     1   --> A              
     e( 15 - 15) =     14.46604  eV     1   --> A              
     e( 16 - 16) =     15.29540  eV     1   --> A              
     e( 17 - 17) =     15.60981  eV     1   --> A              
     e( 18 - 18) =     16.47421  eV     1   --> A              
     e( 19 - 19) =     16.78717  eV     1   --> A              
     e( 20 - 20) =     19.63510  eV     1   --> A              
     e( 21 - 21) =     19.81113  eV     1   --> A              
     e( 22 - 22) =     21.70819  eV     1   --> A              
     e( 23 - 23) =     22.65489  eV     1   --> A              
     e( 24 - 24) =     24.10126  eV     1   --> A              
     e( 25 - 25) =     24.43217  eV     1   --> A              
     e( 26 - 26) =     26.00856  eV     1   --> A              
     e( 27 - 27) =     26.24287  eV     1   --> A              
     e( 28 - 28) =     32.67465  eV     1   --> A              
     e( 29 - 29) =     33.00112  eV     1   --> A              
     e( 30 - 30) =     33.33971  eV     1   --> A              
     e( 31 - 31) =     33.95145  eV     1   --> A              
     e( 32 - 32) =     34.71085  eV     1   --> A              
     e( 33 - 33) =     35.29289  eV     1   --> A              
     e( 34 - 34) =     35.93093  eV     1   --> A              
     e( 35 - 35) =     36.54852  eV     1   --> A              
     e( 36 - 36) =     37.45415  eV     1   --> A              

 **************************************************************************

 **************************************************************************

                    xk=(  -0.06488,   0.10000,   0.18328  )

     Band symmetry, C_1 (1)     point group:

     e(  1 -  1) =    -10.80164  eV     1   --> A              
     e(  2 -  2) =    -10.72657  eV     1   --> A              
     e(  3 -  3) =    -10.67312  eV     1   --> A              
     e(  4 -  4) =    -10.66932  eV     1   --> A              
     e(  5 -  5) =    -10.54905  eV     1   --> A              
     e(  6 -  6) =    -10.54438  eV     1   --> A              
     e(  7 -  7) =    -10.52703  eV     1   --> A              
     e(  8 -  8) =    -10.52433  eV     1   --> A              
     e(  9 -  9) =    -10.42218  eV     1   --> A              
     e( 10 - 10) =    -10.31527  eV     1   --> A              
     e( 11 - 11) =     -0.13219  eV     1   --> A              
     e( 12 - 12) =      6.73907  eV     1   --> A              
     e( 13 - 13) =      9.00509  eV     1   --> A              
     e( 14 - 14) =      9.46924  eV     1   --> A              
     e( 15 - 15) =     14.28528  eV     1   --> A              
     e( 16 - 16) =     15.80159  eV     1   --> A              
     e( 17 - 17) =     16.10366  eV     1   --> A              
     e( 18 - 18) =     16.67196  eV     1   --> A              
     e( 19 - 19) =     16.90395  eV     1   --> A              
     e( 20 - 20) =     19.96727  eV     1   --> A              
     e( 21 - 21) =     20.13475  eV     1   --> A              
     e( 22 - 22) =     21.47289  eV     1   --> A              
     e( 23 - 23) =     22.33851  eV     1   --> A              
     e( 24 - 24) =     23.62498  eV     1   --> A              
     e( 25 - 25) =     23.94358  eV     1   --> A              
     e( 26 - 26) =     25.33082  eV     1   --> A              
     e( 27 - 27) =     25.51711  eV     1   --> A              
     e( 28 - 28) =     33.45602  eV     1   --> A              
     e( 29 - 29) =     33.68208  eV     1   --> A              
     e( 30 - 30) =     33.90202  eV     1   --> A              
     e( 31 - 31) =     34.44056  eV     1   --> A              
     e( 32 - 32) =     35.09477  eV     1   --> A              
     e( 33 - 33) =     35.57556  eV     1   --> A              
     e( 34 - 34) =     36.17220  eV     1   --> A              
     e( 35 - 35) =     36.74935  eV     1   --> A              
     e( 36 - 36) =     37.48722  eV     1   --> A              

 **************************************************************************

 **************************************************************************

                    xk=(  -0.05191,   0.08000,   0.14663  )

     Band symmetry, C_1 (1)     point group:

     e(  1 -  1) =    -10.80436  eV     1   --> A              
     e(  2 -  2) =    -10.73332  eV     1   --> A              
     e(  3 -  3) =    -10.67704  eV     1   --> A              
     e(  4 -  4) =    -10.67589  eV     1   --> A              
     e(  5 -  5) =    -10.54485  eV     1   --> A              
     e(  6 -  6) =    -10.54187  eV     1   --> A              
     e(  7 -  7) =    -10.52531  eV     1   --> A              
     e(  8 -  8) =    -10.52380  eV     1   --> A              
     e(  9 -  9) =    -10.42050  eV     1   --> A              
     e( 10 - 10) =    -10.31223  eV     1   --> A              
     e( 11 - 11) =     -0.21046  eV     1   --> A              
     e( 12 - 12) =      6.85878  eV     1   --> A              
     e( 13 - 13) =      8.94733  eV     1   --> A              
     e( 14 - 14) =      9.27212  eV     1   --> A              
     e( 15 - 15) =     14.13435  eV     1   --> A              
     e( 16 - 16) =     16.25634  eV     1   --> A              
     e( 17 - 17) =     16.57346  eV     1   --> A              
     e( 18 - 18) =     16.84829  eV     1   --> A              
     e( 19 - 19) =     17.03414  eV     1   --> A              
     e( 20 - 20) =     20.31312  eV     1   --> A              
     e( 21 - 21) =     20.49170  eV     1   --> A              
     e( 22 - 22) =     21.28608  eV     1   --> A              
     e( 23 - 23) =     22.05772  eV     1   --> A              
     e( 24 - 24) =     23.17297  eV     1   --> A              
     e( 25 - 25) =     23.50775  eV     1   --> A              
     e( 26 - 26) =     24.67277  eV     1   --> A              
     e( 27 - 27) =     24.80817  eV     1   --> A              
     e( 28 - 28) =     34.02404  eV     1   --> A              
     e( 29 - 29) =     34.36787  eV     1   --> A              
     e( 30 - 30) =     34.59802  eV     1   --> A              
     e( 31 - 31) =     34.87125  eV     1   --> A              
     e( 32 - 32) =     35.49483  eV     1   --> A              
     e( 33 - 33) =     35.87354  eV     1   --> A              
     e( 34 - 34) =     36.49520  eV     1   --> A              
     e( 35 - 35) =     36.96666  eV     1   --> A              
     e( 36 - 36) =     37.53604  eV     1   --> A              

 **************************************************************************

 **************************************************************************

                    xk=(  -0.03893,   0.06000,   0.10997  )

     Band symmetry, C_1 (1)     point group:

     e(  1 -  1) =    -10.80646  eV     1   --> A              
     e(  2 -  2) =    -10.73877  eV     1   --> A              
     e(  3 -  3) =    -10.68307  eV     1   --> A              
     e(  4 -  4) =    -10.67846  eV     1   --> A              
     e(  5 -  5) =    -10.54110  eV     1   --> A              
     e(  6 -  6) =    -10.53939  eV     1   --> A              
     e(  7 -  7) =    -10.52435  eV     1   --> A              
     e(  8 -  8) =    -10.52360  eV     1   --> A              
     e(  9 -  9) =    -10.41919  eV     1   --> A              
     e( 10 - 10) =    -10.30978  eV     1   --> A              
     e( 11 - 11) =     -0.27133  eV     1   --> A              
     e( 12 - 12) =      6.97008  eV     1   --> A              
     e( 13 - 13) =      8.90201  eV     1   --> A              
     e( 14 - 14) =      9.10074  eV     1   --> A              
     e( 15 - 15) =     14.01559  eV     1   --> A              
     e( 16 - 16) =     16.62690  eV     1   --> A              
     e( 17 - 17) =     16.92763  eV     1   --> A              
     e( 18 - 18) =     17.04613  eV     1   --> A              
     e( 19 - 19) =     17.20582  eV     1   --> A              
     e( 20 - 20) =     20.62153  eV     1   --> A              
     e( 21 - 21) =     20.88153  eV     1   --> A              
     e( 22 - 22) =     21.20743  eV     1   --> A              
     e( 23 - 23) =     21.81853  eV     1   --> A              
     e( 24 - 24) =     22.76057  eV     1   --> A              
     e( 25 - 25) =     23.14120  eV     1   --> A              
     e( 26 - 26) =     24.03968  eV     1   --> A              
     e( 27 - 27) =     24.12660  eV     1   --> A              
     e( 28 - 28) =     34.41272  eV     1   --> A              
     e( 29 - 29) =     34.82687  eV     1   --> A              
     e( 30 - 30) =     35.29671  eV     1   --> A              
     e( 31 - 31) =     35.49094  eV     1   --> A              
     e( 32 - 32) =     35.93735  eV     1   --> A              
     e( 33 - 33) =     36.20183  eV     1   --> A              
     e( 34 - 34) =     36.84939  eV     1   --> A              
     e( 35 - 35) =     37.19048  eV     1   --> A              
     e( 36 - 36) =     37.60574  eV     1   --> A              

 **************************************************************************

 **************************************************************************

                    xk=(  -0.02595,   0.04000,   0.07331  )

     Band symmetry, C_1 (1)     point group:

     e(  1 -  1) =    -10.80795  eV     1   --> A              
     e(  2 -  2) =    -10.74277  eV     1   --> A              
     e(  3 -  3) =    -10.68769  eV     1   --> A              
     e(  4 -  4) =    -10.68023  eV     1   --> A              
     e(  5 -  5) =    -10.53802  eV     1   --> A              
     e(  6 -  6) =    -10.53722  eV     1   --> A              
     e(  7 -  7) =    -10.52400  eV     1   --> A              
     e(  8 -  8) =    -10.52370  eV     1   --> A              
     e(  9 -  9) =    -10.41824  eV     1   --> A              
     e( 10 - 10) =    -10.30798  eV     1   --> A              
     e( 11 - 11) =     -0.31481  eV     1   --> A              
     e( 12 - 12) =      7.06362  eV     1   --> A              
     e( 13 - 13) =      8.86945  eV     1   --> A              
     e( 14 - 14) =      8.96436  eV     1   --> A              
     e( 15 - 15) =     13.93012  eV     1   --> A              
     e( 16 - 16) =     16.88423  eV     1   --> A              
     e( 17 - 17) =     17.01978  eV     1   --> A              
     e( 18 - 18) =     17.38468  eV     1   --> A              
     e( 19 - 19) =     17.40333  eV     1   --> A              
     e( 20 - 20) =     20.74435  eV     1   --> A              
     e( 21 - 21) =     21.28277  eV     1   --> A              
     e( 22 - 22) =     21.39754  eV     1   --> A              
     e( 23 - 23) =     21.64886  eV     1   --> A              
     e( 24 - 24) =     22.41533  eV     1   --> A              
     e( 25 - 25) =     22.86162  eV     1   --> A              
     e( 26 - 26) =     23.43549  eV     1   --> A              
     e( 27 - 27) =     23.48096  eV     1   --> A              
     e( 28 - 28) =     34.71939  eV     1   --> A              
     e( 29 - 29) =     34.94757  eV     1   --> A              
     e( 30 - 30) =     36.06195  eV     1   --> A              
     e( 31 - 31) =     36.20828  eV     1   --> A              
     e( 32 - 32) =     36.38390  eV     1   --> A              
     e( 33 - 33) =     36.52929  eV     1   --> A              
     e( 34 - 34) =     37.19169  eV     1   --> A              
     e( 35 - 35) =     37.40486  eV     1   --> A              
     e( 36 - 36) =     37.71425  eV     1   --> A              

 **************************************************************************

 **************************************************************************

                    xk=(  -0.01298,   0.02000,   0.03666  )

     Band symmetry, C_1 (1)     point group:

     e(  1 -  1) =    -10.80884  eV     1   --> A              
     e(  2 -  2) =    -10.74520  eV     1   --> A              
     e(  3 -  3) =    -10.69054  eV     1   --> A              
     e(  4 -  4) =    -10.68130  eV     1   --> A              
     e(  5 -  5) =    -10.53590  eV     1   --> A              
     e(  6 -  6) =    -10.53569  eV     1   --> A              
     e(  7 -  8) =    -10.52402  eV     2   -->   2 A              
     e(  9 -  9) =    -10.41767  eV     1   --> A              
     e( 10 - 10) =    -10.30688  eV     1   --> A              
     e( 11 - 11) =     -0.34089  eV     1   --> A              
     e( 12 - 12) =      7.12753  eV     1   --> A              
     e( 13 - 13) =      8.84983  eV     1   --> A              
     e( 14 - 14) =      8.87478  eV     1   --> A              
     e( 15 - 15) =     13.87861  eV     1   --> A              
     e( 16 - 16) =     17.02818  eV     1   --> A              
     e( 17 - 17) =     17.06106  eV     1   --> A              
     e( 18 - 18) =     17.56372  eV     1   --> A              
     e( 19 - 19) =     17.62738  eV     1   --> A              
     e( 20 - 20) =     20.73657  eV     1   --> A              
     e( 21 - 21) =     21.41921  eV     1   --> A              
     e( 22 - 22) =     21.81299  eV     1   --> A              
     e( 23 - 23) =     21.83406  eV     1   --> A              
     e( 24 - 24) =     22.17868  eV     1   --> A              
     e( 25 - 25) =     22.68397  eV     1   --> A              
     e( 26 - 26) =     22.86417  eV     1   --> A              
     e( 27 - 27) =     22.88133  eV     1   --> A              
     e( 28 - 28) =     34.92639  eV     1   --> A              
     e( 29 - 29) =     34.98971  eV     1   --> A              
     e( 30 - 30) =     36.50431  eV     1   --> A              
     e( 31 - 31) =     36.69047  eV     1   --> A              
     e( 32 - 32) =     36.93062  eV     1   --> A              
     e( 33 - 33) =     37.00268  eV     1   --> A              
     e( 34 - 34) =     37.50414  eV     1   --> A              
     e( 35 - 35) =     37.58424  eV     1   --> A              
     e( 36 - 36) =     37.87823  eV     1   --> A              

 **************************************************************************

 **************************************************************************

                    xk=(   0.00000,   0.00000,   0.00000  )

     point group D_4h(4/mmm)
     there are 10 classes
     the character table:

       E     2C4   C2    2C2'  2C2'' i     2S4   s_h   2s_v  2s_d 
A_1g   1.00  1.00  1.00  1.00  1.00  1.00  1.00  1.00  1.00  1.00
A_2g   1.00  1.00  1.00 -1.00 -1.00  1.00  1.00  1.00 -1.00 -1.00
B_1g   1.00 -1.00  1.00  1.00 -1.00  1.00 -1.00  1.00  1.00 -1.00
B_2g   1.00 -1.00  1.00 -1.00  1.00  1.00 -1.00  1.00 -1.00  1.00
E_g    2.00  0.00 -2.00  0.00  0.00  2.00  0.00 -2.00  0.00  0.00
A_1u   1.00  1.00  1.00  1.00  1.00 -1.00 -1.00 -1.00 -1.00 -1.00
A_2u   1.00  1.00  1.00 -1.00 -1.00 -1.00 -1.00 -1.00  1.00  1.00
B_1u   1.00 -1.00  1.00  1.00 -1.00 -1.00  1.00 -1.00 -1.00  1.00
B_2u   1.00 -1.00  1.00 -1.00  1.00 -1.00  1.00 -1.00  1.00 -1.00
E_u    2.00  0.00 -2.00  0.00  0.00 -2.00  0.00  2.00  0.00  0.00

     the symmetry operations in each class and the name of the first element:

     E        1
                                                                 
     2C4      7    8
                                                                 
     C2       2
                                                                 
     2C2'     3    4
                                                                 
     2C2''    5    6
                                                                 
     i        9
                                                                 
     2S4     15   16
                                                                 
     s_h     10
                                                                 
     2s_v    11   12
                                                                 
     2s_d    13   14
                                                                 

     Band symmetry, D_4h(4/mmm) point group:

     e(  1 -  1) =    -10.80913  eV     1   --> B_1g X_2  M_2  
     e(  2 -  2) =    -10.74601  eV     1   --> A_1g X_1  M_1  
     e(  3 -  3) =    -10.69151  eV     1   --> B_2u X_3' M_3' 
     e(  4 -  4) =    -10.68166  eV     1   --> A_1u X_1' M_1' 
     e(  5 -  6) =    -10.53512  eV     2   --> E_g  X_5  M_5  
     e(  7 -  8) =    -10.52408  eV     2   --> E_u  X_5' M_5' 
     e(  9 -  9) =    -10.41748  eV     1   --> B_2g X_3  M_3  
     e( 10 - 10) =    -10.30652  eV     1   --> A_2u X_4' M_4' 
     e( 11 - 11) =     -0.34958  eV     1   --> A_1g X_1  M_1  
     e( 12 - 12) =      7.15048  eV     1   --> B_2u X_3' M_3' 
     e( 13 - 14) =      8.84328  eV     2   --> E_g  X_5  M_5  
     e( 15 - 15) =     13.86140  eV     1   --> A_1u X_1' M_1' 
     e( 16 - 17) =     17.07414  eV     2   --> E_u  X_5' M_5' 
     e( 18 - 18) =     17.62534  eV     1   --> B_1g X_2  M_2  
     e( 19 - 19) =     17.71476  eV     1   --> A_2u X_4' M_4' 
     e( 20 - 20) =     20.72727  eV     1   --> B_1g X_2  M_2  
     e( 21 - 21) =     21.38717  eV     1   --> A_1g X_1  M_1  
     e( 22 - 22) =     22.07925  eV     1   --> B_2u X_3' M_3' 
     e( 23 - 24) =     22.26591  eV     2   --> E_g  X_5  M_5  
     e( 25 - 26) =     22.37758  eV     2   --> E_u  X_5' M_5' 
     e( 27 - 27) =     22.63288  eV     1   --> A_1g X_1  M_1  
     e( 28 - 29) =     35.00076  eV     2   --> E_u  X_5' M_5' 
     e( 30 - 30) =     36.61765  eV     1   --> B_1u X_2' M_2' 
     e( 31 - 31) =     36.78039  eV     1   --> A_2g X_4  M_4  
     e( 32 - 32) =     37.32191  eV     1   --> B_1g X_2  M_2  
     e( 33 - 33) =     37.33724  eV     1   --> A_2u X_4' M_4' 
     e( 34 - 35) =     37.79700  eV     2   --> E_g  X_5  M_5  
     e( 36 - 36) =     37.91879  eV     1   -->   ?

 **************************************************************************

     BANDS        :  21m47.53s CPU  23m14.67s WALL


   This run was terminated on:  16:20: 8  24Feb2026            

=------------------------------------------------------------------------------=
   JOB DONE.
=------------------------------------------------------------------------------=
