
     Program PWSCF v.7.3.1 starts on  6Feb2026 at 15:31: 3 

     This program is part of the open-source Quantum ESPRESSO suite
     for quantum simulation of materials; please cite
         "P. Giannozzi et al., J. Phys.:Condens. Matter 21 395502 (2009);
         "P. Giannozzi et al., J. Phys.:Condens. Matter 29 465901 (2017);
         "P. Giannozzi et al., J. Chem. Phys. 152 154105 (2020);
          URL http://www.quantum-espresso.org", 
     in publications or presentations arising from this work. More details at
     http://www.quantum-espresso.org/quote

     Parallel version (MPI), running on   128 processors

     MPI processes distributed on     1 nodes
     241417 MiB available memory on the printing compute node when the environment starts

     Waiting for input...
     Reading input from standard input

     Current dimensions of program PWSCF are:
     Max number of different atomic species (ntypx) = 10
     Max number of k-points (npk) =  40000
     Max angular momentum in pseudopotentials (lmaxx) =  4

     K-points division:     npool     =       8
     R & G space division:  proc/nbgrp/npool/nimage =      16
     Subspace diagonalization in iterative solution of the eigenvalue problem:
     a serial algorithm will be used


     Parallelization info
     --------------------
     sticks:   dense  smooth     PW     G-vecs:    dense   smooth      PW
     Min          53      53     15                 1052     1052     168
     Max          54      54     16                 1055     1055     173
     Sum         859     859    253                16865    16865    2741

     Using Slab Decomposition



     bravais-lattice index     =            2
     lattice parameter (alat)  =      10.2600  a.u.
     unit-cell volume          =     270.0114 (a.u.)^3
     number of atoms/cell      =            2
     number of atomic types    =            1
     number of electrons       =         8.00
     number of Kohn-Sham states=            4
     kinetic-energy cutoff     =      60.0000  Ry
     charge density cutoff     =     240.0000  Ry
     scf convergence threshold =      1.0E-07
     mixing beta               =       0.7000
     number of iterations used =            8  plain     mixing
     Exchange-correlation=  SLA  PW   PBE  PBE
                           (   1   4   3   4   0   0   0)

     celldm(1)=  10.260000  celldm(2)=   0.000000  celldm(3)=   0.000000
     celldm(4)=   0.000000  celldm(5)=   0.000000  celldm(6)=   0.000000

     crystal axes: (cart. coord. in units of alat)
               a(1) = (  -0.500000   0.000000   0.500000 )  
               a(2) = (   0.000000   0.500000   0.500000 )  
               a(3) = (  -0.500000   0.500000   0.000000 )  

     reciprocal axes: (cart. coord. in units 2 pi/alat)
               b(1) = ( -1.000000 -1.000000  1.000000 )  
               b(2) = (  1.000000  1.000000  1.000000 )  
               b(3) = ( -1.000000  1.000000 -1.000000 )  


     PseudoPot. # 1 for Si read from file:
     ./Si.pbe-n-van.UPF
     MD5 check sum: 8a97496598b7338af554a5de8957bfee
     Pseudo is Ultrasoft + core correction, Zval =  4.0
     Generated by new atomic code, or converted to UPF format
     Using radial grid of  899 points,  6 beta functions with: 
                l(1) =   0
                l(2) =   0
                l(3) =   1
                l(4) =   1
                l(5) =   2
                l(6) =   2
     Q(r) pseudized with  8 coefficients,  rinner =    0.900   0.900   0.900
                                                       0.900   0.900

     atomic species   valence    mass     pseudopotential
     Si                4.00    28.08600     Si( 1.00)

     48 Sym. Ops., with inversion, found (24 have fractional translation)



   Cartesian axes

     site n.     atom                  positions (alat units)
         1        Si     tau(   1) = (  -0.7500000   0.7500000   0.7500000  )
         2        Si     tau(   2) = (   0.0000000   0.0000000   0.0000000  )

     number of k points=    29
                       cart. coord. in units 2pi/alat
        k(    1) = (   0.0000000   0.0000000   0.0000000), wk =   0.0039062
        k(    2) = (  -0.1250000   0.1250000  -0.1250000), wk =   0.0312500
        k(    3) = (  -0.2500000   0.2500000  -0.2500000), wk =   0.0312500
        k(    4) = (  -0.3750000   0.3750000  -0.3750000), wk =   0.0312500
        k(    5) = (   0.5000000  -0.5000000   0.5000000), wk =   0.0156250
        k(    6) = (   0.0000000   0.2500000   0.0000000), wk =   0.0234375
        k(    7) = (  -0.1250000   0.3750000  -0.1250000), wk =   0.0937500
        k(    8) = (  -0.2500000   0.5000000  -0.2500000), wk =   0.0937500
        k(    9) = (   0.6250000  -0.3750000   0.6250000), wk =   0.0937500
        k(   10) = (   0.5000000  -0.2500000   0.5000000), wk =   0.0937500
        k(   11) = (   0.3750000  -0.1250000   0.3750000), wk =   0.0937500
        k(   12) = (   0.2500000   0.0000000   0.2500000), wk =   0.0468750
        k(   13) = (   0.0000000   0.5000000   0.0000000), wk =   0.0234375
        k(   14) = (  -0.1250000   0.6250000  -0.1250000), wk =   0.0937500
        k(   15) = (   0.7500000  -0.2500000   0.7500000), wk =   0.0937500
        k(   16) = (   0.6250000  -0.1250000   0.6250000), wk =   0.0937500
        k(   17) = (   0.5000000   0.0000000   0.5000000), wk =   0.0468750
        k(   18) = (   0.0000000   0.7500000   0.0000000), wk =   0.0234375
        k(   19) = (   0.8750000  -0.1250000   0.8750000), wk =   0.0937500
        k(   20) = (   0.7500000   0.0000000   0.7500000), wk =   0.0468750
        k(   21) = (   0.0000000  -1.0000000   0.0000000), wk =   0.0117188
        k(   22) = (  -0.2500000   0.5000000   0.0000000), wk =   0.0937500
        k(   23) = (   0.6250000  -0.3750000   0.8750000), wk =   0.1875000
        k(   24) = (   0.5000000  -0.2500000   0.7500000), wk =   0.0937500
        k(   25) = (   0.7500000  -0.2500000   1.0000000), wk =   0.0937500
        k(   26) = (   0.6250000  -0.1250000   0.8750000), wk =   0.1875000
        k(   27) = (   0.5000000   0.0000000   0.7500000), wk =   0.0937500
        k(   28) = (  -0.2500000  -1.0000000   0.0000000), wk =   0.0468750
        k(   29) = (  -0.5000000  -1.0000000   0.0000000), wk =   0.0234375

     Dense  grid:    16865 G-vectors     FFT dimensions: (  36,  36,  36)

     Estimated max dynamical RAM per process >       2.45 MB

     Estimated total dynamical RAM >     285.01 MB

     Initial potential from superposition of free atoms

     starting charge       7.9987, renormalised to       8.0000
     Starting wfcs are    8 randomized atomic wfcs

     total cpu time spent up to now is        0.7 secs

     per-process dynamical memory:     9.9 Mb

     Self-consistent Calculation

     iteration #  1     ecut=    60.00 Ry     beta= 0.70
     Davidson diagonalization with overlap
     ethr =  1.00E-02,  avg # of iterations =  2.0

     Threshold (ethr) on eigenvalues was too large:
     Diagonalizing with lowered threshold

     Davidson diagonalization with overlap
     ethr =  6.51E-04,  avg # of iterations =  1.0

     total cpu time spent up to now is        0.7 secs

     total energy              =     -19.19012487 Ry
     estimated scf accuracy    <       0.05580949 Ry

     iteration #  2     ecut=    60.00 Ry     beta= 0.70
     Davidson diagonalization with overlap
     ethr =  6.98E-04,  avg # of iterations =  1.0

     total cpu time spent up to now is        0.7 secs

     total energy              =     -19.19224978 Ry
     estimated scf accuracy    <       0.00244953 Ry

     iteration #  3     ecut=    60.00 Ry     beta= 0.70
     Davidson diagonalization with overlap
     ethr =  3.06E-05,  avg # of iterations =  2.0

     total cpu time spent up to now is        0.8 secs

     total energy              =     -19.19263014 Ry
     estimated scf accuracy    <       0.00004292 Ry

     iteration #  4     ecut=    60.00 Ry     beta= 0.70
     Davidson diagonalization with overlap
     ethr =  5.36E-07,  avg # of iterations =  5.9

     total cpu time spent up to now is        0.8 secs

     total energy              =     -19.19270234 Ry
     estimated scf accuracy    <       0.00000014 Ry

     iteration #  5     ecut=    60.00 Ry     beta= 0.70
     Davidson diagonalization with overlap
     ethr =  1.77E-09,  avg # of iterations =  7.7

     total cpu time spent up to now is        0.8 secs

     End of self-consistent calculation

          k = 0.0000 0.0000 0.0000 (  2085 PWs)   bands (ev):

    -5.7610   6.2024   6.2024   6.2024

          k =-0.1250 0.1250-0.1250 (  2112 PWs)   bands (ev):

    -5.5567   4.6042   5.9133   5.9133

          k =-0.2500 0.2500-0.2500 (  2106 PWs)   bands (ev):

    -4.9609   2.2755   5.4422   5.4422

          k =-0.3750 0.3750-0.3750 (  2114 PWs)   bands (ev):

    -4.0668   0.2549   5.1149   5.1149

          k = 0.5000-0.5000 0.5000 (  2120 PWs)   bands (ev):

    -3.4286  -0.7680   5.0029   5.0029

          k = 0.0000 0.2500 0.0000 (  2105 PWs)   bands (ev):

    -5.4879   4.8698   5.3954   5.3954

          k =-0.1250 0.3750-0.1250 (  2106 PWs)   bands (ev):

    -5.0190   2.9788   4.8834   4.9600

          k =-0.2500 0.5000-0.2500 (  2116 PWs)   bands (ev):

    -4.2038   0.9176   4.3684   4.6151

          k = 0.6250-0.3750 0.6250 (  2115 PWs)   bands (ev):

    -3.3419  -0.5464   3.9225   4.6395

          k = 0.5000-0.2500 0.5000 (  2110 PWs)   bands (ev):

    -3.5866  -0.1756   3.7407   4.9361

          k = 0.3750-0.1250 0.3750 (  2111 PWs)   bands (ev):

    -4.5102   1.5770   3.8915   5.4279

          k = 0.2500 0.0000 0.2500 (  2111 PWs)   bands (ev):

    -5.2204   3.5192   4.5737   5.9093

          k = 0.0000 0.5000 0.0000 (  2085 PWs)   bands (ev):

    -4.6785   2.6864   4.3119   4.3119

          k =-0.1250 0.6250-0.1250 (  2114 PWs)   bands (ev):

    -3.9682   1.2621   3.5314   3.9936

          k = 0.7500-0.2500 0.7500 (  2123 PWs)   bands (ev):

    -3.0418  -0.1804   2.6679   3.9967

          k = 0.6250-0.1250 0.6250 (  2122 PWs)   bands (ev):

    -2.8374  -0.4390   2.2092   4.3152

          k = 0.5000 0.0000 0.5000 (  2119 PWs)   bands (ev):

    -3.7163   0.7223   2.4493   4.8740

          k = 0.0000 0.7500 0.0000 (  2104 PWs)   bands (ev):

    -3.3655   0.4575   3.5950   3.5950

          k = 0.8750-0.1250 0.8750 (  2125 PWs)   bands (ev):

    -2.4678  -0.6279   2.7660   3.5188

          k = 0.7500 0.0000 0.7500 (  2129 PWs)   bands (ev):

    -2.0288  -1.0247   1.8999   3.7764

          k = 0.0000-1.0000 0.0000 (  2100 PWs)   bands (ev):

    -1.6149  -1.6149   3.3492   3.3492

          k =-0.2500 0.5000 0.0000 (  2111 PWs)   bands (ev):

    -4.4310   1.9135   3.4890   4.7744

          k = 0.6250-0.3750 0.8750 (  2115 PWs)   bands (ev):

    -3.5423   0.3609   2.8811   4.2727

          k = 0.5000-0.2500 0.7500 (  2132 PWs)   bands (ev):

    -2.8896  -0.5846   2.7524   4.0428

          k = 0.7500-0.2500 1.0000 (  2120 PWs)   bands (ev):

    -3.1668   0.2384   2.8397   3.4426

          k = 0.6250-0.1250 0.8750 (  2132 PWs)   bands (ev):

    -2.2916  -0.7299   2.1414   3.2419

          k = 0.5000 0.0000 0.7500 (  2128 PWs)   bands (ev):

    -2.6424  -0.3666   1.9745   3.6180

          k =-0.2500-1.0000 0.0000 (  2128 PWs)   bands (ev):

    -1.5369  -1.5369   2.7851   2.7851

          k =-0.5000-1.0000 0.0000 (  2148 PWs)   bands (ev):

    -1.4509  -1.4509   2.3492   2.3492

     highest occupied level (ev):     6.2024

!    total energy              =     -19.19270380 Ry
     estimated scf accuracy    <       0.00000003 Ry

     The total energy is the sum of the following terms:
     one-electron contribution =       5.11658491 Ry
     hartree contribution      =       1.11675961 Ry
     xc contribution           =      -8.62511874 Ry
     ewald contribution        =     -16.80092958 Ry

     convergence has been achieved in   5 iterations

     Writing all to output data dir ./si-dia/si-dia.save/ :
     XML data file, charge density, pseudopotentials, collected wavefunctions

     init_run     :      0.32s CPU      0.38s WALL (       1 calls)
     electrons    :      0.14s CPU      0.20s WALL (       1 calls)

     Called by init_run:
     wfcinit      :      0.01s CPU      0.02s WALL (       1 calls)
     potinit      :      0.01s CPU      0.02s WALL (       1 calls)
     hinit0       :      0.28s CPU      0.30s WALL (       1 calls)

     Called by electrons:
     c_bands      :      0.09s CPU      0.11s WALL (       6 calls)
     sum_band     :      0.02s CPU      0.03s WALL (       6 calls)
     v_of_rho     :      0.02s CPU      0.03s WALL (       6 calls)
     newd         :      0.00s CPU      0.01s WALL (       6 calls)
     mix_rho      :      0.00s CPU      0.00s WALL (       6 calls)

     Called by c_bands:
     init_us_2    :      0.00s CPU      0.00s WALL (      52 calls)
     cegterg      :      0.08s CPU      0.09s WALL (      24 calls)

     Called by *egterg:
     cdiaghg      :      0.00s CPU      0.01s WALL (     108 calls)
     h_psi        :      0.07s CPU      0.08s WALL (     116 calls)
     s_psi        :      0.00s CPU      0.00s WALL (     116 calls)
     g_psi        :      0.00s CPU      0.00s WALL (      88 calls)

     Called by h_psi:
     h_psi:calbec :      0.01s CPU      0.01s WALL (     116 calls)
     vloc_psi     :      0.06s CPU      0.07s WALL (     116 calls)
     add_vuspsi   :      0.00s CPU      0.00s WALL (     116 calls)

     General routines
     calbec       :      0.01s CPU      0.01s WALL (     140 calls)
     fft          :      0.26s CPU      0.27s WALL (      67 calls)
     ffts         :      0.00s CPU      0.00s WALL (       6 calls)
     fftw         :      0.06s CPU      0.07s WALL (     892 calls)

     Parallel routines

     PWSCF        :      0.66s CPU      0.94s WALL


   This run was terminated on:  15:31: 4   6Feb2026            

=------------------------------------------------------------------------------=
   JOB DONE.
=------------------------------------------------------------------------------=
