
     Program PWSCF v.7.3.1 starts on  9Feb2026 at 14:45:52 

     This program is part of the open-source Quantum ESPRESSO suite
     for quantum simulation of materials; please cite
         "P. Giannozzi et al., J. Phys.:Condens. Matter 21 395502 (2009);
         "P. Giannozzi et al., J. Phys.:Condens. Matter 29 465901 (2017);
         "P. Giannozzi et al., J. Chem. Phys. 152 154105 (2020);
          URL http://www.quantum-espresso.org", 
     in publications or presentations arising from this work. More details at
     http://www.quantum-espresso.org/quote

     Parallel version (MPI), running on   128 processors

     MPI processes distributed on     1 nodes
     241568 MiB available memory on the printing compute node when the environment starts

     Waiting for input...
     Reading input from standard input

     Current dimensions of program PWSCF are:
     Max number of different atomic species (ntypx) = 10
     Max number of k-points (npk) =  40000
     Max angular momentum in pseudopotentials (lmaxx) =  4

     K-points division:     npool     =       8
     R & G space division:  proc/nbgrp/npool/nimage =      16
     Subspace diagonalization in iterative solution of the eigenvalue problem:
     a serial algorithm will be used


     Parallelization info
     --------------------
     sticks:   dense  smooth     PW     G-vecs:    dense   smooth      PW
     Min          53      53     15                 1054     1054     168
     Max          54      54     16                 1057     1057     173
     Sum         859     859    253                16889    16889    2741

     Using Slab Decomposition



     bravais-lattice index     =            2
     lattice parameter (alat)  =      10.2703  a.u.
     unit-cell volume          =     270.8222 (a.u.)^3
     number of atoms/cell      =            2
     number of atomic types    =            1
     number of electrons       =         8.00
     number of Kohn-Sham states=            4
     kinetic-energy cutoff     =      60.0000  Ry
     charge density cutoff     =     240.0000  Ry
     scf convergence threshold =      1.0E-07
     mixing beta               =       0.7000
     number of iterations used =            8  plain     mixing
     Exchange-correlation=  SLA  PW   PBE  PBE
                           (   1   4   3   4   0   0   0)

     celldm(1)=  10.270260  celldm(2)=   0.000000  celldm(3)=   0.000000
     celldm(4)=   0.000000  celldm(5)=   0.000000  celldm(6)=   0.000000

     crystal axes: (cart. coord. in units of alat)
               a(1) = (  -0.500000   0.000000   0.500000 )  
               a(2) = (   0.000000   0.500000   0.500000 )  
               a(3) = (  -0.500000   0.500000   0.000000 )  

     reciprocal axes: (cart. coord. in units 2 pi/alat)
               b(1) = ( -1.000000 -1.000000  1.000000 )  
               b(2) = (  1.000000  1.000000  1.000000 )  
               b(3) = ( -1.000000  1.000000 -1.000000 )  


     PseudoPot. # 1 for Si read from file:
     ./Si.pbe-n-van.UPF
     MD5 check sum: 8a97496598b7338af554a5de8957bfee
     Pseudo is Ultrasoft + core correction, Zval =  4.0
     Generated by new atomic code, or converted to UPF format
     Using radial grid of  899 points,  6 beta functions with: 
                l(1) =   0
                l(2) =   0
                l(3) =   1
                l(4) =   1
                l(5) =   2
                l(6) =   2
     Q(r) pseudized with  8 coefficients,  rinner =    0.900   0.900   0.900
                                                       0.900   0.900

     atomic species   valence    mass     pseudopotential
     Si                4.00    28.08600     Si( 1.00)

     48 Sym. Ops., with inversion, found (24 have fractional translation)



   Cartesian axes

     site n.     atom                  positions (alat units)
         1        Si     tau(   1) = (  -0.7500000   0.7500000   0.7500000  )
         2        Si     tau(   2) = (   0.0000000   0.0000000   0.0000000  )

     number of k points=    29
                       cart. coord. in units 2pi/alat
        k(    1) = (   0.0000000   0.0000000   0.0000000), wk =   0.0039062
        k(    2) = (  -0.1250000   0.1250000  -0.1250000), wk =   0.0312500
        k(    3) = (  -0.2500000   0.2500000  -0.2500000), wk =   0.0312500
        k(    4) = (  -0.3750000   0.3750000  -0.3750000), wk =   0.0312500
        k(    5) = (   0.5000000  -0.5000000   0.5000000), wk =   0.0156250
        k(    6) = (   0.0000000   0.2500000   0.0000000), wk =   0.0234375
        k(    7) = (  -0.1250000   0.3750000  -0.1250000), wk =   0.0937500
        k(    8) = (  -0.2500000   0.5000000  -0.2500000), wk =   0.0937500
        k(    9) = (   0.6250000  -0.3750000   0.6250000), wk =   0.0937500
        k(   10) = (   0.5000000  -0.2500000   0.5000000), wk =   0.0937500
        k(   11) = (   0.3750000  -0.1250000   0.3750000), wk =   0.0937500
        k(   12) = (   0.2500000   0.0000000   0.2500000), wk =   0.0468750
        k(   13) = (   0.0000000   0.5000000   0.0000000), wk =   0.0234375
        k(   14) = (  -0.1250000   0.6250000  -0.1250000), wk =   0.0937500
        k(   15) = (   0.7500000  -0.2500000   0.7500000), wk =   0.0937500
        k(   16) = (   0.6250000  -0.1250000   0.6250000), wk =   0.0937500
        k(   17) = (   0.5000000   0.0000000   0.5000000), wk =   0.0468750
        k(   18) = (   0.0000000   0.7500000   0.0000000), wk =   0.0234375
        k(   19) = (   0.8750000  -0.1250000   0.8750000), wk =   0.0937500
        k(   20) = (   0.7500000   0.0000000   0.7500000), wk =   0.0468750
        k(   21) = (   0.0000000  -1.0000000   0.0000000), wk =   0.0117188
        k(   22) = (  -0.2500000   0.5000000   0.0000000), wk =   0.0937500
        k(   23) = (   0.6250000  -0.3750000   0.8750000), wk =   0.1875000
        k(   24) = (   0.5000000  -0.2500000   0.7500000), wk =   0.0937500
        k(   25) = (   0.7500000  -0.2500000   1.0000000), wk =   0.0937500
        k(   26) = (   0.6250000  -0.1250000   0.8750000), wk =   0.1875000
        k(   27) = (   0.5000000   0.0000000   0.7500000), wk =   0.0937500
        k(   28) = (  -0.2500000  -1.0000000   0.0000000), wk =   0.0468750
        k(   29) = (  -0.5000000  -1.0000000   0.0000000), wk =   0.0234375

     Dense  grid:    16889 G-vectors     FFT dimensions: (  36,  36,  36)

     Estimated max dynamical RAM per process >       2.46 MB

     Estimated total dynamical RAM >     285.48 MB

     Initial potential from superposition of free atoms

     starting charge       7.9987, renormalised to       8.0000
     Starting wfcs are    8 randomized atomic wfcs

     total cpu time spent up to now is        0.7 secs

     per-process dynamical memory:    10.0 Mb

     Self-consistent Calculation

     iteration #  1     ecut=    60.00 Ry     beta= 0.70
     Davidson diagonalization with overlap
     ethr =  1.00E-02,  avg # of iterations =  2.0

     Threshold (ethr) on eigenvalues was too large:
     Diagonalizing with lowered threshold

     Davidson diagonalization with overlap
     ethr =  6.48E-04,  avg # of iterations =  1.1

     total cpu time spent up to now is        0.7 secs

     total energy              =     -19.19023934 Ry
     estimated scf accuracy    <       0.05553107 Ry

     iteration #  2     ecut=    60.00 Ry     beta= 0.70
     Davidson diagonalization with overlap
     ethr =  6.94E-04,  avg # of iterations =  1.0

     total cpu time spent up to now is        0.8 secs

     total energy              =     -19.19234822 Ry
     estimated scf accuracy    <       0.00245218 Ry

     iteration #  3     ecut=    60.00 Ry     beta= 0.70
     Davidson diagonalization with overlap
     ethr =  3.07E-05,  avg # of iterations =  2.0

     total cpu time spent up to now is        0.8 secs

     total energy              =     -19.19273528 Ry
     estimated scf accuracy    <       0.00004191 Ry

     iteration #  4     ecut=    60.00 Ry     beta= 0.70
     Davidson diagonalization with overlap
     ethr =  5.24E-07,  avg # of iterations =  5.8

     total cpu time spent up to now is        0.8 secs

     total energy              =     -19.19280563 Ry
     estimated scf accuracy    <       0.00000015 Ry

     iteration #  5     ecut=    60.00 Ry     beta= 0.70
     Davidson diagonalization with overlap
     ethr =  1.93E-09,  avg # of iterations =  7.6

     total cpu time spent up to now is        0.8 secs

     End of self-consistent calculation

          k = 0.0000 0.0000 0.0000 (  2109 PWs)   bands (ev):

    -5.7716   6.1711   6.1711   6.1711

          k =-0.1250 0.1250-0.1250 (  2118 PWs)   bands (ev):

    -5.5679   4.5739   5.8829   5.8829

          k =-0.2500 0.2500-0.2500 (  2115 PWs)   bands (ev):

    -4.9737   2.2498   5.4129   5.4129

          k =-0.3750 0.3750-0.3750 (  2126 PWs)   bands (ev):

    -4.0824   0.2342   5.0861   5.0861

          k = 0.5000-0.5000 0.5000 (  2120 PWs)   bands (ev):

    -3.4468  -0.7852   4.9743   4.9743

          k = 0.0000 0.2500 0.0000 (  2125 PWs)   bands (ev):

    -5.4993   4.8357   5.3669   5.3669

          k =-0.1250 0.3750-0.1250 (  2117 PWs)   bands (ev):

    -5.0316   2.9499   4.8561   4.9310

          k =-0.2500 0.5000-0.2500 (  2116 PWs)   bands (ev):

    -4.2187   0.8941   4.3404   4.5882

          k = 0.6250-0.3750 0.6250 (  2122 PWs)   bands (ev):

    -3.3601  -0.5651   3.8958   4.6123

          k = 0.5000-0.2500 0.5000 (  2126 PWs)   bands (ev):

    -3.6037  -0.1957   3.7149   4.9078

          k = 0.3750-0.1250 0.3750 (  2125 PWs)   bands (ev):

    -4.5243   1.5518   3.8662   5.3983

          k = 0.2500 0.0000 0.2500 (  2123 PWs)   bands (ev):

    -5.2325   3.4890   4.5478   5.8784

          k = 0.0000 0.5000 0.0000 (  2141 PWs)   bands (ev):

    -4.6920   2.6545   4.2862   4.2862

          k =-0.1250 0.6250-0.1250 (  2120 PWs)   bands (ev):

    -3.9836   1.2341   3.5078   3.9686

          k = 0.7500-0.2500 0.7500 (  2126 PWs)   bands (ev):

    -3.0602  -0.2036   2.6465   3.9715

          k = 0.6250-0.1250 0.6250 (  2132 PWs)   bands (ev):

    -2.8569  -0.4610   2.1894   4.2890

          k = 0.5000 0.0000 0.5000 (  2119 PWs)   bands (ev):

    -3.7327   0.6965   2.4296   4.8461

          k = 0.0000 0.7500 0.0000 (  2120 PWs)   bands (ev):

    -3.3824   0.4305   3.5711   3.5711

          k = 0.8750-0.1250 0.8750 (  2135 PWs)   bands (ev):

    -2.4873  -0.6522   2.7454   3.4950

          k = 0.7500 0.0000 0.7500 (  2141 PWs)   bands (ev):

    -2.0505  -1.0474   1.8827   3.7519

          k = 0.0000-1.0000 0.0000 (  2100 PWs)   bands (ev):

    -1.6365  -1.6365   3.3259   3.3259

          k =-0.2500 0.5000 0.0000 (  2111 PWs)   bands (ev):

    -4.4452   1.8849   3.4661   4.7468

          k = 0.6250-0.3750 0.8750 (  2126 PWs)   bands (ev):

    -3.5592   0.3370   2.8587   4.2470

          k = 0.5000-0.2500 0.7500 (  2132 PWs)   bands (ev):

    -2.9091  -0.6048   2.7296   4.0182

          k = 0.7500-0.2500 1.0000 (  2120 PWs)   bands (ev):

    -3.1845   0.2120   2.8187   3.4201

          k = 0.6250-0.1250 0.8750 (  2142 PWs)   bands (ev):

    -2.3123  -0.7536   2.1230   3.2200

          k = 0.5000 0.0000 0.7500 (  2128 PWs)   bands (ev):

    -2.6621  -0.3910   1.9567   3.5948

          k =-0.2500-1.0000 0.0000 (  2142 PWs)   bands (ev):

    -1.5591  -1.5591   2.7645   2.7645

          k =-0.5000-1.0000 0.0000 (  2148 PWs)   bands (ev):

    -1.4738  -1.4738   2.3306   2.3306

     highest occupied level (ev):     6.1711

!    total energy              =     -19.19280717 Ry
     estimated scf accuracy    <       0.00000003 Ry

     The total energy is the sum of the following terms:
     one-electron contribution =       5.09348486 Ry
     hartree contribution      =       1.11938634 Ry
     xc contribution           =      -8.62153295 Ry
     ewald contribution        =     -16.78414543 Ry

     convergence has been achieved in   5 iterations

     Writing all to output data dir ./si-dia/si-dia.save/ :
     XML data file, charge density, pseudopotentials, collected wavefunctions

     init_run     :      0.33s CPU      0.38s WALL (       1 calls)
     electrons    :      0.16s CPU      0.20s WALL (       1 calls)

     Called by init_run:
     wfcinit      :      0.01s CPU      0.02s WALL (       1 calls)
     potinit      :      0.02s CPU      0.02s WALL (       1 calls)
     hinit0       :      0.29s CPU      0.30s WALL (       1 calls)

     Called by electrons:
     c_bands      :      0.09s CPU      0.11s WALL (       6 calls)
     sum_band     :      0.03s CPU      0.03s WALL (       6 calls)
     v_of_rho     :      0.02s CPU      0.03s WALL (       6 calls)
     newd         :      0.00s CPU      0.01s WALL (       6 calls)
     mix_rho      :      0.00s CPU      0.00s WALL (       6 calls)

     Called by c_bands:
     init_us_2    :      0.00s CPU      0.00s WALL (      52 calls)
     cegterg      :      0.07s CPU      0.09s WALL (      24 calls)

     Called by *egterg:
     cdiaghg      :      0.00s CPU      0.01s WALL (     109 calls)
     h_psi        :      0.07s CPU      0.08s WALL (     117 calls)
     s_psi        :      0.00s CPU      0.00s WALL (     117 calls)
     g_psi        :      0.00s CPU      0.00s WALL (      89 calls)

     Called by h_psi:
     h_psi:calbec :      0.01s CPU      0.01s WALL (     117 calls)
     vloc_psi     :      0.06s CPU      0.07s WALL (     117 calls)
     add_vuspsi   :      0.00s CPU      0.00s WALL (     117 calls)

     General routines
     calbec       :      0.01s CPU      0.01s WALL (     141 calls)
     fft          :      0.26s CPU      0.27s WALL (      67 calls)
     ffts         :      0.00s CPU      0.00s WALL (       6 calls)
     fftw         :      0.06s CPU      0.07s WALL (     894 calls)

     Parallel routines

     PWSCF        :      0.72s CPU      0.97s WALL


   This run was terminated on:  14:45:53   9Feb2026            

=------------------------------------------------------------------------------=
   JOB DONE.
=------------------------------------------------------------------------------=
