
     Program PWSCF v.7.3.1 starts on  6Feb2026 at 15:31:11 

     This program is part of the open-source Quantum ESPRESSO suite
     for quantum simulation of materials; please cite
         "P. Giannozzi et al., J. Phys.:Condens. Matter 21 395502 (2009);
         "P. Giannozzi et al., J. Phys.:Condens. Matter 29 465901 (2017);
         "P. Giannozzi et al., J. Chem. Phys. 152 154105 (2020);
          URL http://www.quantum-espresso.org", 
     in publications or presentations arising from this work. More details at
     http://www.quantum-espresso.org/quote

     Parallel version (MPI), running on   128 processors

     MPI processes distributed on     1 nodes
     241395 MiB available memory on the printing compute node when the environment starts

     Waiting for input...
     Reading input from standard input

     Current dimensions of program PWSCF are:
     Max number of different atomic species (ntypx) = 10
     Max number of k-points (npk) =  40000
     Max angular momentum in pseudopotentials (lmaxx) =  4

     K-points division:     npool     =       8
     R & G space division:  proc/nbgrp/npool/nimage =      16
     Subspace diagonalization in iterative solution of the eigenvalue problem:
     a serial algorithm will be used


     Parallelization info
     --------------------
     sticks:   dense  smooth     PW     G-vecs:    dense   smooth      PW
     Min          54      54     16                 1071     1071     177
     Max          56      56     19                 1073     1073     178
     Sum         871     871    265                17153    17153    2837

     Using Slab Decomposition



     bravais-lattice index     =            2
     lattice parameter (alat)  =      10.3010  a.u.
     unit-cell volume          =     273.2645 (a.u.)^3
     number of atoms/cell      =            2
     number of atomic types    =            1
     number of electrons       =         8.00
     number of Kohn-Sham states=            4
     kinetic-energy cutoff     =      60.0000  Ry
     charge density cutoff     =     240.0000  Ry
     scf convergence threshold =      1.0E-07
     mixing beta               =       0.7000
     number of iterations used =            8  plain     mixing
     Exchange-correlation=  SLA  PW   PBE  PBE
                           (   1   4   3   4   0   0   0)

     celldm(1)=  10.301040  celldm(2)=   0.000000  celldm(3)=   0.000000
     celldm(4)=   0.000000  celldm(5)=   0.000000  celldm(6)=   0.000000

     crystal axes: (cart. coord. in units of alat)
               a(1) = (  -0.500000   0.000000   0.500000 )  
               a(2) = (   0.000000   0.500000   0.500000 )  
               a(3) = (  -0.500000   0.500000   0.000000 )  

     reciprocal axes: (cart. coord. in units 2 pi/alat)
               b(1) = ( -1.000000 -1.000000  1.000000 )  
               b(2) = (  1.000000  1.000000  1.000000 )  
               b(3) = ( -1.000000  1.000000 -1.000000 )  


     PseudoPot. # 1 for Si read from file:
     ./Si.pbe-n-van.UPF
     MD5 check sum: 8a97496598b7338af554a5de8957bfee
     Pseudo is Ultrasoft + core correction, Zval =  4.0
     Generated by new atomic code, or converted to UPF format
     Using radial grid of  899 points,  6 beta functions with: 
                l(1) =   0
                l(2) =   0
                l(3) =   1
                l(4) =   1
                l(5) =   2
                l(6) =   2
     Q(r) pseudized with  8 coefficients,  rinner =    0.900   0.900   0.900
                                                       0.900   0.900

     atomic species   valence    mass     pseudopotential
     Si                4.00    28.08600     Si( 1.00)

     48 Sym. Ops., with inversion, found (24 have fractional translation)



   Cartesian axes

     site n.     atom                  positions (alat units)
         1        Si     tau(   1) = (  -0.7500000   0.7500000   0.7500000  )
         2        Si     tau(   2) = (   0.0000000   0.0000000   0.0000000  )

     number of k points=    29
                       cart. coord. in units 2pi/alat
        k(    1) = (   0.0000000   0.0000000   0.0000000), wk =   0.0039062
        k(    2) = (  -0.1250000   0.1250000  -0.1250000), wk =   0.0312500
        k(    3) = (  -0.2500000   0.2500000  -0.2500000), wk =   0.0312500
        k(    4) = (  -0.3750000   0.3750000  -0.3750000), wk =   0.0312500
        k(    5) = (   0.5000000  -0.5000000   0.5000000), wk =   0.0156250
        k(    6) = (   0.0000000   0.2500000   0.0000000), wk =   0.0234375
        k(    7) = (  -0.1250000   0.3750000  -0.1250000), wk =   0.0937500
        k(    8) = (  -0.2500000   0.5000000  -0.2500000), wk =   0.0937500
        k(    9) = (   0.6250000  -0.3750000   0.6250000), wk =   0.0937500
        k(   10) = (   0.5000000  -0.2500000   0.5000000), wk =   0.0937500
        k(   11) = (   0.3750000  -0.1250000   0.3750000), wk =   0.0937500
        k(   12) = (   0.2500000   0.0000000   0.2500000), wk =   0.0468750
        k(   13) = (   0.0000000   0.5000000   0.0000000), wk =   0.0234375
        k(   14) = (  -0.1250000   0.6250000  -0.1250000), wk =   0.0937500
        k(   15) = (   0.7500000  -0.2500000   0.7500000), wk =   0.0937500
        k(   16) = (   0.6250000  -0.1250000   0.6250000), wk =   0.0937500
        k(   17) = (   0.5000000   0.0000000   0.5000000), wk =   0.0468750
        k(   18) = (   0.0000000   0.7500000   0.0000000), wk =   0.0234375
        k(   19) = (   0.8750000  -0.1250000   0.8750000), wk =   0.0937500
        k(   20) = (   0.7500000   0.0000000   0.7500000), wk =   0.0468750
        k(   21) = (   0.0000000  -1.0000000   0.0000000), wk =   0.0117188
        k(   22) = (  -0.2500000   0.5000000   0.0000000), wk =   0.0937500
        k(   23) = (   0.6250000  -0.3750000   0.8750000), wk =   0.1875000
        k(   24) = (   0.5000000  -0.2500000   0.7500000), wk =   0.0937500
        k(   25) = (   0.7500000  -0.2500000   1.0000000), wk =   0.0937500
        k(   26) = (   0.6250000  -0.1250000   0.8750000), wk =   0.1875000
        k(   27) = (   0.5000000   0.0000000   0.7500000), wk =   0.0937500
        k(   28) = (  -0.2500000  -1.0000000   0.0000000), wk =   0.0468750
        k(   29) = (  -0.5000000  -1.0000000   0.0000000), wk =   0.0234375

     Dense  grid:    17153 G-vectors     FFT dimensions: (  36,  36,  36)

     Estimated max dynamical RAM per process >       2.47 MB

     Estimated total dynamical RAM >     286.85 MB

     Initial potential from superposition of free atoms

     starting charge       7.9987, renormalised to       8.0000
     Starting wfcs are    8 randomized atomic wfcs

     total cpu time spent up to now is        0.7 secs

     per-process dynamical memory:    10.0 Mb

     Self-consistent Calculation

     iteration #  1     ecut=    60.00 Ry     beta= 0.70
     Davidson diagonalization with overlap
     ethr =  1.00E-02,  avg # of iterations =  2.0

     Threshold (ethr) on eigenvalues was too large:
     Diagonalizing with lowered threshold

     Davidson diagonalization with overlap
     ethr =  6.39E-04,  avg # of iterations =  1.1

     total cpu time spent up to now is        0.7 secs

     total energy              =     -19.19055334 Ry
     estimated scf accuracy    <       0.05476441 Ry

     iteration #  2     ecut=    60.00 Ry     beta= 0.70
     Davidson diagonalization with overlap
     ethr =  6.85E-04,  avg # of iterations =  1.0

     total cpu time spent up to now is        0.7 secs

     total energy              =     -19.19258450 Ry
     estimated scf accuracy    <       0.00244848 Ry

     iteration #  3     ecut=    60.00 Ry     beta= 0.70
     Davidson diagonalization with overlap
     ethr =  3.06E-05,  avg # of iterations =  2.0

     total cpu time spent up to now is        0.8 secs

     total energy              =     -19.19295261 Ry
     estimated scf accuracy    <       0.00004201 Ry

     iteration #  4     ecut=    60.00 Ry     beta= 0.70
     Davidson diagonalization with overlap
     ethr =  5.25E-07,  avg # of iterations =  5.7

     total cpu time spent up to now is        0.8 secs

     total energy              =     -19.19302239 Ry
     estimated scf accuracy    <       0.00000013 Ry

     iteration #  5     ecut=    60.00 Ry     beta= 0.70
     Davidson diagonalization with overlap
     ethr =  1.65E-09,  avg # of iterations =  7.6

     total cpu time spent up to now is        0.8 secs

     End of self-consistent calculation

          k = 0.0000 0.0000 0.0000 (  2109 PWs)   bands (ev):

    -5.8033   6.0780   6.0780   6.0780

          k =-0.1250 0.1250-0.1250 (  2124 PWs)   bands (ev):

    -5.6012   4.4835   5.7923   5.7923

          k =-0.2500 0.2500-0.2500 (  2142 PWs)   bands (ev):

    -5.0118   2.1730   5.3255   5.3255

          k =-0.3750 0.3750-0.3750 (  2132 PWs)   bands (ev):

    -4.1286   0.1725   5.0005   5.0005

          k = 0.5000-0.5000 0.5000 (  2138 PWs)   bands (ev):

    -3.5011  -0.8364   4.8891   4.8891

          k = 0.0000 0.2500 0.0000 (  2137 PWs)   bands (ev):

    -5.5331   4.7340   5.2819   5.2819

          k =-0.1250 0.3750-0.1250 (  2129 PWs)   bands (ev):

    -5.0691   2.8637   4.7750   4.8445

          k =-0.2500 0.5000-0.2500 (  2125 PWs)   bands (ev):

    -4.2632   0.8242   4.2573   4.5084

          k = 0.6250-0.3750 0.6250 (  2142 PWs)   bands (ev):

    -3.4142  -0.6210   3.8163   4.5313

          k = 0.5000-0.2500 0.5000 (  2139 PWs)   bands (ev):

    -3.6547  -0.2556   3.6382   4.8239

          k = 0.3750-0.1250 0.3750 (  2141 PWs)   bands (ev):

    -4.5660   1.4764   3.7911   5.3100

          k = 0.2500 0.0000 0.2500 (  2131 PWs)   bands (ev):

    -5.2684   3.3990   4.4708   5.7863

          k = 0.0000 0.5000 0.0000 (  2141 PWs)   bands (ev):

    -4.7320   2.5597   4.2099   4.2099

          k =-0.1250 0.6250-0.1250 (  2133 PWs)   bands (ev):

    -4.0295   1.1507   3.4376   3.8943

          k = 0.7500-0.2500 0.7500 (  2152 PWs)   bands (ev):

    -3.1151  -0.2727   2.5828   3.8967

          k = 0.6250-0.1250 0.6250 (  2145 PWs)   bands (ev):

    -2.9148  -0.5264   2.1304   4.2112

          k = 0.5000 0.0000 0.5000 (  2135 PWs)   bands (ev):

    -3.7814   0.6197   2.3709   4.7631

          k = 0.0000 0.7500 0.0000 (  2136 PWs)   bands (ev):

    -3.4327   0.3503   3.4999   3.4999

          k = 0.8750-0.1250 0.8750 (  2146 PWs)   bands (ev):

    -2.5454  -0.7246   2.6842   3.4241

          k = 0.7500 0.0000 0.7500 (  2149 PWs)   bands (ev):

    -2.1152  -1.1149   1.8316   3.6788

          k = 0.0000-1.0000 0.0000 (  2164 PWs)   bands (ev):

    -1.7007  -1.7007   3.2564   3.2564

          k =-0.2500 0.5000 0.0000 (  2139 PWs)   bands (ev):

    -4.4874   1.7997   3.3980   4.6647

          k = 0.6250-0.3750 0.8750 (  2143 PWs)   bands (ev):

    -3.6095   0.2656   2.7922   4.1708

          k = 0.5000-0.2500 0.7500 (  2162 PWs)   bands (ev):

    -2.9672  -0.6654   2.6619   3.9448

          k = 0.7500-0.2500 1.0000 (  2142 PWs)   bands (ev):

    -3.2371   0.1333   2.7561   3.3529

          k = 0.6250-0.1250 0.8750 (  2155 PWs)   bands (ev):

    -2.3740  -0.8239   2.0680   3.1548

          k = 0.5000 0.0000 0.7500 (  2154 PWs)   bands (ev):

    -2.7208  -0.4636   1.9037   3.5256

          k =-0.2500-1.0000 0.0000 (  2154 PWs)   bands (ev):

    -1.6251  -1.6251   2.7033   2.7033

          k =-0.5000-1.0000 0.0000 (  2180 PWs)   bands (ev):

    -1.5420  -1.5420   2.2754   2.2754

     highest occupied level (ev):     6.0780

!    total energy              =     -19.19302375 Ry
     estimated scf accuracy    <       0.00000003 Ry

     The total energy is the sum of the following terms:
     one-electron contribution =       5.02455949 Ry
     hartree contribution      =       1.12723831 Ry
     xc contribution           =      -8.61082794 Ry
     ewald contribution        =     -16.73399360 Ry

     convergence has been achieved in   5 iterations

     Writing all to output data dir ./si-dia/si-dia.save/ :
     XML data file, charge density, pseudopotentials, collected wavefunctions

     init_run     :      0.31s CPU      0.38s WALL (       1 calls)
     electrons    :      0.14s CPU      0.20s WALL (       1 calls)

     Called by init_run:
     wfcinit      :      0.01s CPU      0.02s WALL (       1 calls)
     potinit      :      0.01s CPU      0.02s WALL (       1 calls)
     hinit0       :      0.28s CPU      0.30s WALL (       1 calls)

     Called by electrons:
     c_bands      :      0.09s CPU      0.11s WALL (       6 calls)
     sum_band     :      0.02s CPU      0.03s WALL (       6 calls)
     v_of_rho     :      0.02s CPU      0.03s WALL (       6 calls)
     newd         :      0.01s CPU      0.01s WALL (       6 calls)
     mix_rho      :      0.00s CPU      0.00s WALL (       6 calls)

     Called by c_bands:
     init_us_2    :      0.00s CPU      0.00s WALL (      52 calls)
     cegterg      :      0.07s CPU      0.09s WALL (      24 calls)

     Called by *egterg:
     cdiaghg      :      0.00s CPU      0.01s WALL (     107 calls)
     h_psi        :      0.06s CPU      0.08s WALL (     115 calls)
     s_psi        :      0.00s CPU      0.00s WALL (     115 calls)
     g_psi        :      0.00s CPU      0.00s WALL (      87 calls)

     Called by h_psi:
     h_psi:calbec :      0.01s CPU      0.01s WALL (     115 calls)
     vloc_psi     :      0.05s CPU      0.07s WALL (     115 calls)
     add_vuspsi   :      0.00s CPU      0.00s WALL (     115 calls)

     General routines
     calbec       :      0.01s CPU      0.01s WALL (     139 calls)
     fft          :      0.26s CPU      0.27s WALL (      67 calls)
     ffts         :      0.00s CPU      0.00s WALL (       6 calls)
     fftw         :      0.06s CPU      0.07s WALL (     910 calls)

     Parallel routines

     PWSCF        :      0.67s CPU      0.95s WALL


   This run was terminated on:  15:31:12   6Feb2026            

=------------------------------------------------------------------------------=
   JOB DONE.
=------------------------------------------------------------------------------=
