
     Program PWSCF v.7.3.1 starts on  6Feb2026 at 15:31:15 

     This program is part of the open-source Quantum ESPRESSO suite
     for quantum simulation of materials; please cite
         "P. Giannozzi et al., J. Phys.:Condens. Matter 21 395502 (2009);
         "P. Giannozzi et al., J. Phys.:Condens. Matter 29 465901 (2017);
         "P. Giannozzi et al., J. Chem. Phys. 152 154105 (2020);
          URL http://www.quantum-espresso.org", 
     in publications or presentations arising from this work. More details at
     http://www.quantum-espresso.org/quote

     Parallel version (MPI), running on   128 processors

     MPI processes distributed on     1 nodes
     241405 MiB available memory on the printing compute node when the environment starts

     Waiting for input...
     Reading input from standard input

     Current dimensions of program PWSCF are:
     Max number of different atomic species (ntypx) = 10
     Max number of k-points (npk) =  40000
     Max angular momentum in pseudopotentials (lmaxx) =  4

     K-points division:     npool     =       8
     R & G space division:  proc/nbgrp/npool/nimage =      16
     Subspace diagonalization in iterative solution of the eigenvalue problem:
     a serial algorithm will be used


     Parallelization info
     --------------------
     sticks:   dense  smooth     PW     G-vecs:    dense   smooth      PW
     Min          54      54     16                 1071     1071     177
     Max          56      56     19                 1073     1073     178
     Sum         871     871    265                17153    17153    2837

     Using Slab Decomposition



     bravais-lattice index     =            2
     lattice parameter (alat)  =      10.3216  a.u.
     unit-cell volume          =     274.9008 (a.u.)^3
     number of atoms/cell      =            2
     number of atomic types    =            1
     number of electrons       =         8.00
     number of Kohn-Sham states=            4
     kinetic-energy cutoff     =      60.0000  Ry
     charge density cutoff     =     240.0000  Ry
     scf convergence threshold =      1.0E-07
     mixing beta               =       0.7000
     number of iterations used =            8  plain     mixing
     Exchange-correlation=  SLA  PW   PBE  PBE
                           (   1   4   3   4   0   0   0)

     celldm(1)=  10.321560  celldm(2)=   0.000000  celldm(3)=   0.000000
     celldm(4)=   0.000000  celldm(5)=   0.000000  celldm(6)=   0.000000

     crystal axes: (cart. coord. in units of alat)
               a(1) = (  -0.500000   0.000000   0.500000 )  
               a(2) = (   0.000000   0.500000   0.500000 )  
               a(3) = (  -0.500000   0.500000   0.000000 )  

     reciprocal axes: (cart. coord. in units 2 pi/alat)
               b(1) = ( -1.000000 -1.000000  1.000000 )  
               b(2) = (  1.000000  1.000000  1.000000 )  
               b(3) = ( -1.000000  1.000000 -1.000000 )  


     PseudoPot. # 1 for Si read from file:
     ./Si.pbe-n-van.UPF
     MD5 check sum: 8a97496598b7338af554a5de8957bfee
     Pseudo is Ultrasoft + core correction, Zval =  4.0
     Generated by new atomic code, or converted to UPF format
     Using radial grid of  899 points,  6 beta functions with: 
                l(1) =   0
                l(2) =   0
                l(3) =   1
                l(4) =   1
                l(5) =   2
                l(6) =   2
     Q(r) pseudized with  8 coefficients,  rinner =    0.900   0.900   0.900
                                                       0.900   0.900

     atomic species   valence    mass     pseudopotential
     Si                4.00    28.08600     Si( 1.00)

     48 Sym. Ops., with inversion, found (24 have fractional translation)



   Cartesian axes

     site n.     atom                  positions (alat units)
         1        Si     tau(   1) = (  -0.7500000   0.7500000   0.7500000  )
         2        Si     tau(   2) = (   0.0000000   0.0000000   0.0000000  )

     number of k points=    29
                       cart. coord. in units 2pi/alat
        k(    1) = (   0.0000000   0.0000000   0.0000000), wk =   0.0039062
        k(    2) = (  -0.1250000   0.1250000  -0.1250000), wk =   0.0312500
        k(    3) = (  -0.2500000   0.2500000  -0.2500000), wk =   0.0312500
        k(    4) = (  -0.3750000   0.3750000  -0.3750000), wk =   0.0312500
        k(    5) = (   0.5000000  -0.5000000   0.5000000), wk =   0.0156250
        k(    6) = (   0.0000000   0.2500000   0.0000000), wk =   0.0234375
        k(    7) = (  -0.1250000   0.3750000  -0.1250000), wk =   0.0937500
        k(    8) = (  -0.2500000   0.5000000  -0.2500000), wk =   0.0937500
        k(    9) = (   0.6250000  -0.3750000   0.6250000), wk =   0.0937500
        k(   10) = (   0.5000000  -0.2500000   0.5000000), wk =   0.0937500
        k(   11) = (   0.3750000  -0.1250000   0.3750000), wk =   0.0937500
        k(   12) = (   0.2500000   0.0000000   0.2500000), wk =   0.0468750
        k(   13) = (   0.0000000   0.5000000   0.0000000), wk =   0.0234375
        k(   14) = (  -0.1250000   0.6250000  -0.1250000), wk =   0.0937500
        k(   15) = (   0.7500000  -0.2500000   0.7500000), wk =   0.0937500
        k(   16) = (   0.6250000  -0.1250000   0.6250000), wk =   0.0937500
        k(   17) = (   0.5000000   0.0000000   0.5000000), wk =   0.0468750
        k(   18) = (   0.0000000   0.7500000   0.0000000), wk =   0.0234375
        k(   19) = (   0.8750000  -0.1250000   0.8750000), wk =   0.0937500
        k(   20) = (   0.7500000   0.0000000   0.7500000), wk =   0.0468750
        k(   21) = (   0.0000000  -1.0000000   0.0000000), wk =   0.0117188
        k(   22) = (  -0.2500000   0.5000000   0.0000000), wk =   0.0937500
        k(   23) = (   0.6250000  -0.3750000   0.8750000), wk =   0.1875000
        k(   24) = (   0.5000000  -0.2500000   0.7500000), wk =   0.0937500
        k(   25) = (   0.7500000  -0.2500000   1.0000000), wk =   0.0937500
        k(   26) = (   0.6250000  -0.1250000   0.8750000), wk =   0.1875000
        k(   27) = (   0.5000000   0.0000000   0.7500000), wk =   0.0937500
        k(   28) = (  -0.2500000  -1.0000000   0.0000000), wk =   0.0468750
        k(   29) = (  -0.5000000  -1.0000000   0.0000000), wk =   0.0234375

     Dense  grid:    17153 G-vectors     FFT dimensions: (  36,  36,  36)

     Estimated max dynamical RAM per process >       2.47 MB

     Estimated total dynamical RAM >     286.85 MB

     Initial potential from superposition of free atoms

     starting charge       7.9987, renormalised to       8.0000
     Starting wfcs are    8 randomized atomic wfcs

     total cpu time spent up to now is        0.7 secs

     per-process dynamical memory:     9.9 Mb

     Self-consistent Calculation

     iteration #  1     ecut=    60.00 Ry     beta= 0.70
     Davidson diagonalization with overlap
     ethr =  1.00E-02,  avg # of iterations =  2.0

     Threshold (ethr) on eigenvalues was too large:
     Diagonalizing with lowered threshold

     Davidson diagonalization with overlap
     ethr =  6.32E-04,  avg # of iterations =  1.0

     total cpu time spent up to now is        0.7 secs

     total energy              =     -19.19069462 Ry
     estimated scf accuracy    <       0.05418760 Ry

     iteration #  2     ecut=    60.00 Ry     beta= 0.70
     Davidson diagonalization with overlap
     ethr =  6.77E-04,  avg # of iterations =  1.0

     total cpu time spent up to now is        0.8 secs

     total energy              =     -19.19266493 Ry
     estimated scf accuracy    <       0.00245314 Ry

     iteration #  3     ecut=    60.00 Ry     beta= 0.70
     Davidson diagonalization with overlap
     ethr =  3.07E-05,  avg # of iterations =  2.0

     total cpu time spent up to now is        0.8 secs

     total energy              =     -19.19301986 Ry
     estimated scf accuracy    <       0.00004156 Ry

     iteration #  4     ecut=    60.00 Ry     beta= 0.70
     Davidson diagonalization with overlap
     ethr =  5.20E-07,  avg # of iterations =  5.8

     total cpu time spent up to now is        0.8 secs

     total energy              =     -19.19309014 Ry
     estimated scf accuracy    <       0.00000012 Ry

     iteration #  5     ecut=    60.00 Ry     beta= 0.70
     Davidson diagonalization with overlap
     ethr =  1.52E-09,  avg # of iterations =  7.7

     total cpu time spent up to now is        0.8 secs

     End of self-consistent calculation

          k = 0.0000 0.0000 0.0000 (  2109 PWs)   bands (ev):

    -5.8242   6.0164   6.0164   6.0164

          k =-0.1250 0.1250-0.1250 (  2133 PWs)   bands (ev):

    -5.6232   4.4237   5.7325   5.7325

          k =-0.2500 0.2500-0.2500 (  2154 PWs)   bands (ev):

    -5.0369   2.1222   5.2679   5.2679

          k =-0.3750 0.3750-0.3750 (  2153 PWs)   bands (ev):

    -4.1592   0.1317   4.9439   4.9439

          k = 0.5000-0.5000 0.5000 (  2138 PWs)   bands (ev):

    -3.5369  -0.8704   4.8329   4.8329

          k = 0.0000 0.2500 0.0000 (  2137 PWs)   bands (ev):

    -5.5554   4.6667   5.2258   5.2258

          k =-0.1250 0.3750-0.1250 (  2148 PWs)   bands (ev):

    -5.0939   2.8065   4.7214   4.7874

          k =-0.2500 0.5000-0.2500 (  2150 PWs)   bands (ev):

    -4.2926   0.7779   4.2025   4.4556

          k = 0.6250-0.3750 0.6250 (  2153 PWs)   bands (ev):

    -3.4500  -0.6580   3.7639   4.4778

          k = 0.5000-0.2500 0.5000 (  2149 PWs)   bands (ev):

    -3.6884  -0.2952   3.5876   4.7684

          k = 0.3750-0.1250 0.3750 (  2149 PWs)   bands (ev):

    -4.5937   1.4265   3.7414   5.2517

          k = 0.2500 0.0000 0.2500 (  2131 PWs)   bands (ev):

    -5.2921   3.3394   4.4199   5.7254

          k = 0.0000 0.5000 0.0000 (  2141 PWs)   bands (ev):

    -4.7585   2.4970   4.1595   4.1595

          k =-0.1250 0.6250-0.1250 (  2145 PWs)   bands (ev):

    -4.0597   1.0955   3.3912   3.8453

          k = 0.7500-0.2500 0.7500 (  2156 PWs)   bands (ev):

    -3.1514  -0.3184   2.5407   3.8473

          k = 0.6250-0.1250 0.6250 (  2167 PWs)   bands (ev):

    -2.9530  -0.5698   2.0915   4.1598

          k = 0.5000 0.0000 0.5000 (  2151 PWs)   bands (ev):

    -3.8136   0.5688   2.3322   4.7083

          k = 0.0000 0.7500 0.0000 (  2152 PWs)   bands (ev):

    -3.4660   0.2972   3.4528   3.4528

          k = 0.8750-0.1250 0.8750 (  2162 PWs)   bands (ev):

    -2.5837  -0.7724   2.6438   3.3774

          k = 0.7500 0.0000 0.7500 (  2149 PWs)   bands (ev):

    -2.1579  -1.1596   1.7979   3.6306

          k = 0.0000-1.0000 0.0000 (  2164 PWs)   bands (ev):

    -1.7432  -1.7432   3.2105   3.2105

          k =-0.2500 0.5000 0.0000 (  2155 PWs)   bands (ev):

    -4.5153   1.7434   3.3530   4.6104

          k = 0.6250-0.3750 0.8750 (  2159 PWs)   bands (ev):

    -3.6427   0.2183   2.7482   4.1205

          k = 0.5000-0.2500 0.7500 (  2174 PWs)   bands (ev):

    -3.0056  -0.7055   2.6173   3.8963

          k = 0.7500-0.2500 1.0000 (  2170 PWs)   bands (ev):

    -3.2718   0.0813   2.7148   3.3085

          k = 0.6250-0.1250 0.8750 (  2167 PWs)   bands (ev):

    -2.4148  -0.8705   2.0318   3.1118

          k = 0.5000 0.0000 0.7500 (  2172 PWs)   bands (ev):

    -2.7596  -0.5117   1.8687   3.4800

          k =-0.2500-1.0000 0.0000 (  2166 PWs)   bands (ev):

    -1.6688  -1.6688   2.6628   2.6628

          k =-0.5000-1.0000 0.0000 (  2180 PWs)   bands (ev):

    -1.5871  -1.5871   2.2389   2.2389

     highest occupied level (ev):     6.0164

!    total energy              =     -19.19309151 Ry
     estimated scf accuracy    <       0.00000003 Ry

     The total energy is the sum of the following terms:
     one-electron contribution =       4.97890292 Ry
     hartree contribution      =       1.13248258 Ry
     xc contribution           =      -8.60375179 Ry
     ewald contribution        =     -16.70072523 Ry

     convergence has been achieved in   5 iterations

     Writing all to output data dir ./si-dia/si-dia.save/ :
     XML data file, charge density, pseudopotentials, collected wavefunctions

     init_run     :      0.32s CPU      0.38s WALL (       1 calls)
     electrons    :      0.15s CPU      0.20s WALL (       1 calls)

     Called by init_run:
     wfcinit      :      0.02s CPU      0.03s WALL (       1 calls)
     potinit      :      0.01s CPU      0.02s WALL (       1 calls)
     hinit0       :      0.28s CPU      0.30s WALL (       1 calls)

     Called by electrons:
     c_bands      :      0.08s CPU      0.11s WALL (       6 calls)
     sum_band     :      0.03s CPU      0.04s WALL (       6 calls)
     v_of_rho     :      0.02s CPU      0.03s WALL (       6 calls)
     newd         :      0.01s CPU      0.01s WALL (       6 calls)
     mix_rho      :      0.00s CPU      0.00s WALL (       6 calls)

     Called by c_bands:
     init_us_2    :      0.00s CPU      0.00s WALL (      52 calls)
     cegterg      :      0.07s CPU      0.09s WALL (      24 calls)

     Called by *egterg:
     cdiaghg      :      0.00s CPU      0.01s WALL (     108 calls)
     h_psi        :      0.07s CPU      0.08s WALL (     116 calls)
     s_psi        :      0.00s CPU      0.00s WALL (     116 calls)
     g_psi        :      0.00s CPU      0.00s WALL (      88 calls)

     Called by h_psi:
     h_psi:calbec :      0.01s CPU      0.01s WALL (     116 calls)
     vloc_psi     :      0.06s CPU      0.07s WALL (     116 calls)
     add_vuspsi   :      0.00s CPU      0.00s WALL (     116 calls)

     General routines
     calbec       :      0.01s CPU      0.01s WALL (     140 calls)
     fft          :      0.26s CPU      0.27s WALL (      67 calls)
     ffts         :      0.00s CPU      0.00s WALL (       6 calls)
     fftw         :      0.06s CPU      0.07s WALL (     900 calls)

     Parallel routines

     PWSCF        :      0.68s CPU      0.97s WALL


   This run was terminated on:  15:31:16   6Feb2026            

=------------------------------------------------------------------------------=
   JOB DONE.
=------------------------------------------------------------------------------=
