
     Program PWSCF v.7.3.1 starts on  9Feb2026 at 14:46:17 

     This program is part of the open-source Quantum ESPRESSO suite
     for quantum simulation of materials; please cite
         "P. Giannozzi et al., J. Phys.:Condens. Matter 21 395502 (2009);
         "P. Giannozzi et al., J. Phys.:Condens. Matter 29 465901 (2017);
         "P. Giannozzi et al., J. Chem. Phys. 152 154105 (2020);
          URL http://www.quantum-espresso.org", 
     in publications or presentations arising from this work. More details at
     http://www.quantum-espresso.org/quote

     Parallel version (MPI), running on   128 processors

     MPI processes distributed on     1 nodes
     241427 MiB available memory on the printing compute node when the environment starts

     Waiting for input...
     Reading input from standard input

     Current dimensions of program PWSCF are:
     Max number of different atomic species (ntypx) = 10
     Max number of k-points (npk) =  40000
     Max angular momentum in pseudopotentials (lmaxx) =  4

     K-points division:     npool     =       8
     R & G space division:  proc/nbgrp/npool/nimage =      16
     Subspace diagonalization in iterative solution of the eigenvalue problem:
     a serial algorithm will be used


     Parallelization info
     --------------------
     sticks:   dense  smooth     PW     G-vecs:    dense   smooth      PW
     Min          55      55     16                 1097     1097     180
     Max          56      56     18                 1100     1100     182
     Sum         889     889    265                17573    17573    2891

     Using Slab Decomposition



     bravais-lattice index     =            2
     lattice parameter (alat)  =      10.3934  a.u.
     unit-cell volume          =     280.6793 (a.u.)^3
     number of atoms/cell      =            2
     number of atomic types    =            1
     number of electrons       =         8.00
     number of Kohn-Sham states=            4
     kinetic-energy cutoff     =      60.0000  Ry
     charge density cutoff     =     240.0000  Ry
     scf convergence threshold =      1.0E-07
     mixing beta               =       0.7000
     number of iterations used =            8  plain     mixing
     Exchange-correlation=  SLA  PW   PBE  PBE
                           (   1   4   3   4   0   0   0)

     celldm(1)=  10.393380  celldm(2)=   0.000000  celldm(3)=   0.000000
     celldm(4)=   0.000000  celldm(5)=   0.000000  celldm(6)=   0.000000

     crystal axes: (cart. coord. in units of alat)
               a(1) = (  -0.500000   0.000000   0.500000 )  
               a(2) = (   0.000000   0.500000   0.500000 )  
               a(3) = (  -0.500000   0.500000   0.000000 )  

     reciprocal axes: (cart. coord. in units 2 pi/alat)
               b(1) = ( -1.000000 -1.000000  1.000000 )  
               b(2) = (  1.000000  1.000000  1.000000 )  
               b(3) = ( -1.000000  1.000000 -1.000000 )  


     PseudoPot. # 1 for Si read from file:
     ./Si.pbe-n-van.UPF
     MD5 check sum: 8a97496598b7338af554a5de8957bfee
     Pseudo is Ultrasoft + core correction, Zval =  4.0
     Generated by new atomic code, or converted to UPF format
     Using radial grid of  899 points,  6 beta functions with: 
                l(1) =   0
                l(2) =   0
                l(3) =   1
                l(4) =   1
                l(5) =   2
                l(6) =   2
     Q(r) pseudized with  8 coefficients,  rinner =    0.900   0.900   0.900
                                                       0.900   0.900

     atomic species   valence    mass     pseudopotential
     Si                4.00    28.08600     Si( 1.00)

     48 Sym. Ops., with inversion, found (24 have fractional translation)



   Cartesian axes

     site n.     atom                  positions (alat units)
         1        Si     tau(   1) = (  -0.7500000   0.7500000   0.7500000  )
         2        Si     tau(   2) = (   0.0000000   0.0000000   0.0000000  )

     number of k points=    29
                       cart. coord. in units 2pi/alat
        k(    1) = (   0.0000000   0.0000000   0.0000000), wk =   0.0039062
        k(    2) = (  -0.1250000   0.1250000  -0.1250000), wk =   0.0312500
        k(    3) = (  -0.2500000   0.2500000  -0.2500000), wk =   0.0312500
        k(    4) = (  -0.3750000   0.3750000  -0.3750000), wk =   0.0312500
        k(    5) = (   0.5000000  -0.5000000   0.5000000), wk =   0.0156250
        k(    6) = (   0.0000000   0.2500000   0.0000000), wk =   0.0234375
        k(    7) = (  -0.1250000   0.3750000  -0.1250000), wk =   0.0937500
        k(    8) = (  -0.2500000   0.5000000  -0.2500000), wk =   0.0937500
        k(    9) = (   0.6250000  -0.3750000   0.6250000), wk =   0.0937500
        k(   10) = (   0.5000000  -0.2500000   0.5000000), wk =   0.0937500
        k(   11) = (   0.3750000  -0.1250000   0.3750000), wk =   0.0937500
        k(   12) = (   0.2500000   0.0000000   0.2500000), wk =   0.0468750
        k(   13) = (   0.0000000   0.5000000   0.0000000), wk =   0.0234375
        k(   14) = (  -0.1250000   0.6250000  -0.1250000), wk =   0.0937500
        k(   15) = (   0.7500000  -0.2500000   0.7500000), wk =   0.0937500
        k(   16) = (   0.6250000  -0.1250000   0.6250000), wk =   0.0937500
        k(   17) = (   0.5000000   0.0000000   0.5000000), wk =   0.0468750
        k(   18) = (   0.0000000   0.7500000   0.0000000), wk =   0.0234375
        k(   19) = (   0.8750000  -0.1250000   0.8750000), wk =   0.0937500
        k(   20) = (   0.7500000   0.0000000   0.7500000), wk =   0.0468750
        k(   21) = (   0.0000000  -1.0000000   0.0000000), wk =   0.0117188
        k(   22) = (  -0.2500000   0.5000000   0.0000000), wk =   0.0937500
        k(   23) = (   0.6250000  -0.3750000   0.8750000), wk =   0.1875000
        k(   24) = (   0.5000000  -0.2500000   0.7500000), wk =   0.0937500
        k(   25) = (   0.7500000  -0.2500000   1.0000000), wk =   0.0937500
        k(   26) = (   0.6250000  -0.1250000   0.8750000), wk =   0.1875000
        k(   27) = (   0.5000000   0.0000000   0.7500000), wk =   0.0937500
        k(   28) = (  -0.2500000  -1.0000000   0.0000000), wk =   0.0468750
        k(   29) = (  -0.5000000  -1.0000000   0.0000000), wk =   0.0234375

     Dense  grid:    17573 G-vectors     FFT dimensions: (  40,  40,  40)

     Estimated max dynamical RAM per process >       2.56 MB

     Estimated total dynamical RAM >     297.07 MB

     Initial potential from superposition of free atoms

     starting charge       7.9987, renormalised to       8.0000
     Starting wfcs are    8 randomized atomic wfcs

     total cpu time spent up to now is        0.7 secs

     per-process dynamical memory:    10.2 Mb

     Self-consistent Calculation

     iteration #  1     ecut=    60.00 Ry     beta= 0.70
     Davidson diagonalization with overlap
     ethr =  1.00E-02,  avg # of iterations =  2.0

     Threshold (ethr) on eigenvalues was too large:
     Diagonalizing with lowered threshold

     Davidson diagonalization with overlap
     ethr =  6.10E-04,  avg # of iterations =  1.1

     total cpu time spent up to now is        0.8 secs

     total energy              =     -19.19062397 Ry
     estimated scf accuracy    <       0.05230046 Ry

     iteration #  2     ecut=    60.00 Ry     beta= 0.70
     Davidson diagonalization with overlap
     ethr =  6.54E-04,  avg # of iterations =  1.0

     total cpu time spent up to now is        0.8 secs

     total energy              =     -19.19244686 Ry
     estimated scf accuracy    <       0.00246782 Ry

     iteration #  3     ecut=    60.00 Ry     beta= 0.70
     Davidson diagonalization with overlap
     ethr =  3.08E-05,  avg # of iterations =  2.0

     total cpu time spent up to now is        0.8 secs

     total energy              =     -19.19279482 Ry
     estimated scf accuracy    <       0.00003826 Ry

     iteration #  4     ecut=    60.00 Ry     beta= 0.70
     Davidson diagonalization with overlap
     ethr =  4.78E-07,  avg # of iterations =  5.9

     total cpu time spent up to now is        0.8 secs

     total energy              =     -19.19286371 Ry
     estimated scf accuracy    <       0.00000014 Ry

     iteration #  5     ecut=    60.00 Ry     beta= 0.70
     Davidson diagonalization with overlap
     ethr =  1.72E-09,  avg # of iterations =  7.6

     total cpu time spent up to now is        0.9 secs

     End of self-consistent calculation

          k = 0.0000 0.0000 0.0000 (  2229 PWs)   bands (ev):

    -5.8963   5.8045   5.8045   5.8045

          k =-0.1250 0.1250-0.1250 (  2187 PWs)   bands (ev):

    -5.6989   4.2163   5.5266   5.5266

          k =-0.2500 0.2500-0.2500 (  2190 PWs)   bands (ev):

    -5.1236   1.9463   5.0693   5.0693

          k =-0.3750 0.3750-0.3750 (  2208 PWs)   bands (ev):

    -4.2647  -0.0095   4.7493   4.7493

          k = 0.5000-0.5000 0.5000 (  2186 PWs)   bands (ev):

    -3.6603  -0.9880   4.6394   4.6394

          k = 0.0000 0.2500 0.0000 (  2189 PWs)   bands (ev):

    -5.6323   4.4335   5.0326   5.0326

          k =-0.1250 0.3750-0.1250 (  2201 PWs)   bands (ev):

    -5.1792   2.6086   4.5370   4.5911

          k =-0.2500 0.5000-0.2500 (  2185 PWs)   bands (ev):

    -4.3940   0.6177   4.0138   4.2741

          k = 0.6250-0.3750 0.6250 (  2206 PWs)   bands (ev):

    -3.5731  -0.7862   3.5834   4.2939

          k = 0.5000-0.2500 0.5000 (  2213 PWs)   bands (ev):

    -3.8046  -0.4326   3.4134   4.5775

          k = 0.3750-0.1250 0.3750 (  2195 PWs)   bands (ev):

    -4.6889   1.2536   3.5707   5.0511

          k = 0.2500 0.0000 0.2500 (  2201 PWs)   bands (ev):

    -5.3738   3.1330   4.2447   5.5161

          k = 0.0000 0.5000 0.0000 (  2181 PWs)   bands (ev):

    -4.8497   2.2803   3.9859   3.9859

          k =-0.1250 0.6250-0.1250 (  2204 PWs)   bands (ev):

    -4.1642   0.9048   3.2318   3.6765

          k = 0.7500-0.2500 0.7500 (  2200 PWs)   bands (ev):

    -3.2764  -0.4766   2.3963   3.6774

          k = 0.6250-0.1250 0.6250 (  2212 PWs)   bands (ev):

    -3.0848  -0.7199   1.9579   3.9830

          k = 0.5000 0.0000 0.5000 (  2209 PWs)   bands (ev):

    -3.9246   0.3930   2.1990   4.5198

          k = 0.0000 0.7500 0.0000 (  2209 PWs)   bands (ev):

    -3.5808   0.1141   3.2911   3.2911

          k = 0.8750-0.1250 0.8750 (  2199 PWs)   bands (ev):

    -2.7161  -0.9375   2.5046   3.2165

          k = 0.7500 0.0000 0.7500 (  2219 PWs)   bands (ev):

    -2.3052  -1.3137   1.6815   3.4646

          k = 0.0000-1.0000 0.0000 (  2200 PWs)   bands (ev):

    -1.8898  -1.8898   3.0526   3.0526

          k =-0.2500 0.5000 0.0000 (  2194 PWs)   bands (ev):

    -4.6116   1.5484   3.1981   4.4237

          k = 0.6250-0.3750 0.8750 (  2206 PWs)   bands (ev):

    -3.7573   0.0546   2.5974   3.9472

          k = 0.5000-0.2500 0.7500 (  2216 PWs)   bands (ev):

    -3.1377  -0.8446   2.4641   3.7293

          k = 0.7500-0.2500 1.0000 (  2203 PWs)   bands (ev):

    -3.3918  -0.0982   2.5726   3.1556

          k = 0.6250-0.1250 0.8750 (  2214 PWs)   bands (ev):

    -2.5552  -1.0311   1.9069   2.9635

          k = 0.5000 0.0000 0.7500 (  2211 PWs)   bands (ev):

    -2.8933  -0.6776   1.7482   3.3228

          k =-0.2500-1.0000 0.0000 (  2214 PWs)   bands (ev):

    -1.8194  -1.8194   2.5235   2.5235

          k =-0.5000-1.0000 0.0000 (  2208 PWs)   bands (ev):

    -1.7425  -1.7425   2.1131   2.1131

     highest occupied level (ev):     5.8045

!    total energy              =     -19.19286500 Ry
     estimated scf accuracy    <       0.00000002 Ry

     The total energy is the sum of the following terms:
     one-electron contribution =       4.82092978 Ry
     hartree contribution      =       1.15087869 Ry
     xc contribution           =      -8.57935305 Ry
     ewald contribution        =     -16.58532041 Ry

     convergence has been achieved in   5 iterations

     Writing all to output data dir ./si-dia/si-dia.save/ :
     XML data file, charge density, pseudopotentials, collected wavefunctions

     init_run     :      0.35s CPU      0.41s WALL (       1 calls)
     electrons    :      0.15s CPU      0.21s WALL (       1 calls)

     Called by init_run:
     wfcinit      :      0.01s CPU      0.02s WALL (       1 calls)
     potinit      :      0.01s CPU      0.02s WALL (       1 calls)
     hinit0       :      0.32s CPU      0.34s WALL (       1 calls)

     Called by electrons:
     c_bands      :      0.08s CPU      0.11s WALL (       6 calls)
     sum_band     :      0.03s CPU      0.04s WALL (       6 calls)
     v_of_rho     :      0.02s CPU      0.03s WALL (       6 calls)
     newd         :      0.01s CPU      0.01s WALL (       6 calls)
     mix_rho      :      0.00s CPU      0.00s WALL (       6 calls)

     Called by c_bands:
     init_us_2    :      0.00s CPU      0.00s WALL (      52 calls)
     cegterg      :      0.07s CPU      0.09s WALL (      24 calls)

     Called by *egterg:
     cdiaghg      :      0.00s CPU      0.01s WALL (     106 calls)
     h_psi        :      0.06s CPU      0.08s WALL (     114 calls)
     s_psi        :      0.00s CPU      0.00s WALL (     114 calls)
     g_psi        :      0.00s CPU      0.00s WALL (      86 calls)

     Called by h_psi:
     h_psi:calbec :      0.01s CPU      0.01s WALL (     114 calls)
     vloc_psi     :      0.05s CPU      0.07s WALL (     114 calls)
     add_vuspsi   :      0.00s CPU      0.00s WALL (     114 calls)

     General routines
     calbec       :      0.01s CPU      0.01s WALL (     138 calls)
     fft          :      0.30s CPU      0.31s WALL (      67 calls)
     ffts         :      0.00s CPU      0.00s WALL (       6 calls)
     fftw         :      0.05s CPU      0.07s WALL (     868 calls)

     Parallel routines

     PWSCF        :      0.71s CPU      1.02s WALL


   This run was terminated on:  14:46:18   9Feb2026            

=------------------------------------------------------------------------------=
   JOB DONE.
=------------------------------------------------------------------------------=
