
     Program PWSCF v.7.3.1 starts on  9Feb2026 at 14:46:30 

     This program is part of the open-source Quantum ESPRESSO suite
     for quantum simulation of materials; please cite
         "P. Giannozzi et al., J. Phys.:Condens. Matter 21 395502 (2009);
         "P. Giannozzi et al., J. Phys.:Condens. Matter 29 465901 (2017);
         "P. Giannozzi et al., J. Chem. Phys. 152 154105 (2020);
          URL http://www.quantum-espresso.org", 
     in publications or presentations arising from this work. More details at
     http://www.quantum-espresso.org/quote

     Parallel version (MPI), running on   128 processors

     MPI processes distributed on     1 nodes
     241414 MiB available memory on the printing compute node when the environment starts

     Waiting for input...
     Reading input from standard input

     Current dimensions of program PWSCF are:
     Max number of different atomic species (ntypx) = 10
     Max number of k-points (npk) =  40000
     Max angular momentum in pseudopotentials (lmaxx) =  4

     K-points division:     npool     =       8
     R & G space division:  proc/nbgrp/npool/nimage =      16
     Subspace diagonalization in iterative solution of the eigenvalue problem:
     a serial algorithm will be used


     Parallelization info
     --------------------
     sticks:   dense  smooth     PW     G-vecs:    dense   smooth      PW
     Min          57      57     16                 1128     1128     185
     Max          58      58     17                 1131     1131     187
     Sum         913     913    271                18053    18053    2975

     Using Slab Decomposition



     bravais-lattice index     =            2
     lattice parameter (alat)  =      10.4549  a.u.
     unit-cell volume          =     285.6963 (a.u.)^3
     number of atoms/cell      =            2
     number of atomic types    =            1
     number of electrons       =         8.00
     number of Kohn-Sham states=            4
     kinetic-energy cutoff     =      60.0000  Ry
     charge density cutoff     =     240.0000  Ry
     scf convergence threshold =      1.0E-07
     mixing beta               =       0.7000
     number of iterations used =            8  plain     mixing
     Exchange-correlation=  SLA  PW   PBE  PBE
                           (   1   4   3   4   0   0   0)

     celldm(1)=  10.454940  celldm(2)=   0.000000  celldm(3)=   0.000000
     celldm(4)=   0.000000  celldm(5)=   0.000000  celldm(6)=   0.000000

     crystal axes: (cart. coord. in units of alat)
               a(1) = (  -0.500000   0.000000   0.500000 )  
               a(2) = (   0.000000   0.500000   0.500000 )  
               a(3) = (  -0.500000   0.500000   0.000000 )  

     reciprocal axes: (cart. coord. in units 2 pi/alat)
               b(1) = ( -1.000000 -1.000000  1.000000 )  
               b(2) = (  1.000000  1.000000  1.000000 )  
               b(3) = ( -1.000000  1.000000 -1.000000 )  


     PseudoPot. # 1 for Si read from file:
     ./Si.pbe-n-van.UPF
     MD5 check sum: 8a97496598b7338af554a5de8957bfee
     Pseudo is Ultrasoft + core correction, Zval =  4.0
     Generated by new atomic code, or converted to UPF format
     Using radial grid of  899 points,  6 beta functions with: 
                l(1) =   0
                l(2) =   0
                l(3) =   1
                l(4) =   1
                l(5) =   2
                l(6) =   2
     Q(r) pseudized with  8 coefficients,  rinner =    0.900   0.900   0.900
                                                       0.900   0.900

     atomic species   valence    mass     pseudopotential
     Si                4.00    28.08600     Si( 1.00)

     48 Sym. Ops., with inversion, found (24 have fractional translation)



   Cartesian axes

     site n.     atom                  positions (alat units)
         1        Si     tau(   1) = (  -0.7500000   0.7500000   0.7500000  )
         2        Si     tau(   2) = (   0.0000000   0.0000000   0.0000000  )

     number of k points=    29
                       cart. coord. in units 2pi/alat
        k(    1) = (   0.0000000   0.0000000   0.0000000), wk =   0.0039062
        k(    2) = (  -0.1250000   0.1250000  -0.1250000), wk =   0.0312500
        k(    3) = (  -0.2500000   0.2500000  -0.2500000), wk =   0.0312500
        k(    4) = (  -0.3750000   0.3750000  -0.3750000), wk =   0.0312500
        k(    5) = (   0.5000000  -0.5000000   0.5000000), wk =   0.0156250
        k(    6) = (   0.0000000   0.2500000   0.0000000), wk =   0.0234375
        k(    7) = (  -0.1250000   0.3750000  -0.1250000), wk =   0.0937500
        k(    8) = (  -0.2500000   0.5000000  -0.2500000), wk =   0.0937500
        k(    9) = (   0.6250000  -0.3750000   0.6250000), wk =   0.0937500
        k(   10) = (   0.5000000  -0.2500000   0.5000000), wk =   0.0937500
        k(   11) = (   0.3750000  -0.1250000   0.3750000), wk =   0.0937500
        k(   12) = (   0.2500000   0.0000000   0.2500000), wk =   0.0468750
        k(   13) = (   0.0000000   0.5000000   0.0000000), wk =   0.0234375
        k(   14) = (  -0.1250000   0.6250000  -0.1250000), wk =   0.0937500
        k(   15) = (   0.7500000  -0.2500000   0.7500000), wk =   0.0937500
        k(   16) = (   0.6250000  -0.1250000   0.6250000), wk =   0.0937500
        k(   17) = (   0.5000000   0.0000000   0.5000000), wk =   0.0468750
        k(   18) = (   0.0000000   0.7500000   0.0000000), wk =   0.0234375
        k(   19) = (   0.8750000  -0.1250000   0.8750000), wk =   0.0937500
        k(   20) = (   0.7500000   0.0000000   0.7500000), wk =   0.0468750
        k(   21) = (   0.0000000  -1.0000000   0.0000000), wk =   0.0117188
        k(   22) = (  -0.2500000   0.5000000   0.0000000), wk =   0.0937500
        k(   23) = (   0.6250000  -0.3750000   0.8750000), wk =   0.1875000
        k(   24) = (   0.5000000  -0.2500000   0.7500000), wk =   0.0937500
        k(   25) = (   0.7500000  -0.2500000   1.0000000), wk =   0.0937500
        k(   26) = (   0.6250000  -0.1250000   0.8750000), wk =   0.1875000
        k(   27) = (   0.5000000   0.0000000   0.7500000), wk =   0.0937500
        k(   28) = (  -0.2500000  -1.0000000   0.0000000), wk =   0.0468750
        k(   29) = (  -0.5000000  -1.0000000   0.0000000), wk =   0.0234375

     Dense  grid:    18053 G-vectors     FFT dimensions: (  40,  40,  40)

     Estimated max dynamical RAM per process >       2.58 MB

     Estimated total dynamical RAM >     299.66 MB

     Initial potential from superposition of free atoms

     starting charge       7.9987, renormalised to       8.0000
     Starting wfcs are    8 randomized atomic wfcs

     total cpu time spent up to now is        0.7 secs

     per-process dynamical memory:    10.2 Mb

     Self-consistent Calculation

     iteration #  1     ecut=    60.00 Ry     beta= 0.70
     Davidson diagonalization with overlap
     ethr =  1.00E-02,  avg # of iterations =  2.0

     Threshold (ethr) on eigenvalues was too large:
     Diagonalizing with lowered threshold

     Davidson diagonalization with overlap
     ethr =  5.92E-04,  avg # of iterations =  1.1

     total cpu time spent up to now is        0.8 secs

     total energy              =     -19.19004719 Ry
     estimated scf accuracy    <       0.05082750 Ry

     iteration #  2     ecut=    60.00 Ry     beta= 0.70
     Davidson diagonalization with overlap
     ethr =  6.35E-04,  avg # of iterations =  1.0

     total cpu time spent up to now is        0.8 secs

     total energy              =     -19.19173637 Ry
     estimated scf accuracy    <       0.00246359 Ry

     iteration #  3     ecut=    60.00 Ry     beta= 0.70
     Davidson diagonalization with overlap
     ethr =  3.08E-05,  avg # of iterations =  2.0

     total cpu time spent up to now is        0.8 secs

     total energy              =     -19.19205350 Ry
     estimated scf accuracy    <       0.00003738 Ry

     iteration #  4     ecut=    60.00 Ry     beta= 0.70
     Davidson diagonalization with overlap
     ethr =  4.67E-07,  avg # of iterations =  6.0

     total cpu time spent up to now is        0.9 secs

     total energy              =     -19.19212327 Ry
     estimated scf accuracy    <       0.00000011 Ry

     iteration #  5     ecut=    60.00 Ry     beta= 0.70
     Davidson diagonalization with overlap
     ethr =  1.42E-09,  avg # of iterations =  7.7

     total cpu time spent up to now is        0.9 secs

     End of self-consistent calculation

          k = 0.0000 0.0000 0.0000 (  2229 PWs)   bands (ev):

    -5.9565   5.6273   5.6273   5.6273

          k =-0.1250 0.1250-0.1250 (  2211 PWs)   bands (ev):

    -5.7620   4.0416   5.3544   5.3544

          k =-0.2500 0.2500-0.2500 (  2229 PWs)   bands (ev):

    -5.1960   1.7981   4.9034   4.9034

          k =-0.3750 0.3750-0.3750 (  2235 PWs)   bands (ev):

    -4.3529  -0.1283   4.5867   4.5867

          k = 0.5000-0.5000 0.5000 (  2252 PWs)   bands (ev):

    -3.7634  -1.0872   4.4778   4.4778

          k = 0.0000 0.2500 0.0000 (  2225 PWs)   bands (ev):

    -5.6964   4.2371   4.8710   4.8710

          k =-0.1250 0.3750-0.1250 (  2233 PWs)   bands (ev):

    -5.2505   2.4416   4.3828   4.4274

          k =-0.2500 0.5000-0.2500 (  2243 PWs)   bands (ev):

    -4.4788   0.4827   3.8564   4.1225

          k = 0.6250-0.3750 0.6250 (  2246 PWs)   bands (ev):

    -3.6761  -0.8943   3.4328   4.1402

          k = 0.5000-0.2500 0.5000 (  2245 PWs)   bands (ev):

    -3.9018  -0.5483   3.2681   4.4181

          k = 0.3750-0.1250 0.3750 (  2232 PWs)   bands (ev):

    -4.7685   1.1079   3.4283   4.8835

          k = 0.2500 0.0000 0.2500 (  2227 PWs)   bands (ev):

    -5.4421   2.9591   4.0982   5.3412

          k = 0.0000 0.5000 0.0000 (  2221 PWs)   bands (ev):

    -4.9260   2.0982   3.8409   3.8409

          k =-0.1250 0.6250-0.1250 (  2241 PWs)   bands (ev):

    -4.2516   0.7445   3.0987   3.5356

          k = 0.7500-0.2500 0.7500 (  2247 PWs)   bands (ev):

    -3.3810  -0.6097   2.2761   3.5355

          k = 0.6250-0.1250 0.6250 (  2249 PWs)   bands (ev):

    -3.1951  -0.8463   1.8466   3.8353

          k = 0.5000 0.0000 0.5000 (  2239 PWs)   bands (ev):

    -4.0175   0.2453   2.0878   4.3623

          k = 0.0000 0.7500 0.0000 (  2249 PWs)   bands (ev):

    -3.6769  -0.0396   3.1560   3.1560

          k = 0.8750-0.1250 0.8750 (  2248 PWs)   bands (ev):

    -2.8270  -1.0759   2.3883   3.0822

          k = 0.7500 0.0000 0.7500 (  2245 PWs)   bands (ev):

    -2.4283  -1.4429   1.5843   3.3260

          k = 0.0000-1.0000 0.0000 (  2272 PWs)   bands (ev):

    -2.0126  -2.0126   2.9209   2.9209

          k =-0.2500 0.5000 0.0000 (  2233 PWs)   bands (ev):

    -4.6920   1.3845   3.0688   4.2678

          k = 0.6250-0.3750 0.8750 (  2244 PWs)   bands (ev):

    -3.8532  -0.0832   2.4718   3.8024

          k = 0.5000-0.2500 0.7500 (  2250 PWs)   bands (ev):

    -3.2481  -0.9619   2.3366   3.5897

          k = 0.7500-0.2500 1.0000 (  2236 PWs)   bands (ev):

    -3.4921  -0.2487   2.4539   3.0277

          k = 0.6250-0.1250 0.8750 (  2241 PWs)   bands (ev):

    -2.6727  -1.1659   1.8027   2.8395

          k = 0.5000 0.0000 0.7500 (  2246 PWs)   bands (ev):

    -3.0051  -0.8167   1.6475   3.1914

          k =-0.2500-1.0000 0.0000 (  2240 PWs)   bands (ev):

    -1.9455  -1.9455   2.4071   2.4071

          k =-0.5000-1.0000 0.0000 (  2244 PWs)   bands (ev):

    -1.8725  -1.8725   2.0080   2.0080

     highest occupied level (ev):     5.6273

!    total energy              =     -19.19212452 Ry
     estimated scf accuracy    <       0.00000002 Ry

     The total energy is the sum of the following terms:
     one-electron contribution =       4.68775091 Ry
     hartree contribution      =       1.16665237 Ry
     xc contribution           =      -8.55886384 Ry
     ewald contribution        =     -16.48766396 Ry

     convergence has been achieved in   5 iterations

     Writing all to output data dir ./si-dia/si-dia.save/ :
     XML data file, charge density, pseudopotentials, collected wavefunctions

     init_run     :      0.39s CPU      0.42s WALL (       1 calls)
     electrons    :      0.17s CPU      0.21s WALL (       1 calls)

     Called by init_run:
     wfcinit      :      0.02s CPU      0.02s WALL (       1 calls)
     potinit      :      0.02s CPU      0.02s WALL (       1 calls)
     hinit0       :      0.32s CPU      0.33s WALL (       1 calls)

     Called by electrons:
     c_bands      :      0.09s CPU      0.11s WALL (       6 calls)
     sum_band     :      0.03s CPU      0.03s WALL (       6 calls)
     v_of_rho     :      0.03s CPU      0.03s WALL (       6 calls)
     newd         :      0.01s CPU      0.01s WALL (       6 calls)
     mix_rho      :      0.00s CPU      0.00s WALL (       6 calls)

     Called by c_bands:
     init_us_2    :      0.00s CPU      0.00s WALL (      52 calls)
     cegterg      :      0.08s CPU      0.09s WALL (      24 calls)

     Called by *egterg:
     cdiaghg      :      0.01s CPU      0.01s WALL (     106 calls)
     h_psi        :      0.07s CPU      0.09s WALL (     114 calls)
     s_psi        :      0.00s CPU      0.00s WALL (     114 calls)
     g_psi        :      0.00s CPU      0.00s WALL (      86 calls)

     Called by h_psi:
     h_psi:calbec :      0.01s CPU      0.01s WALL (     114 calls)
     vloc_psi     :      0.06s CPU      0.07s WALL (     114 calls)
     add_vuspsi   :      0.00s CPU      0.00s WALL (     114 calls)

     General routines
     calbec       :      0.01s CPU      0.01s WALL (     138 calls)
     fft          :      0.31s CPU      0.31s WALL (      67 calls)
     ffts         :      0.00s CPU      0.00s WALL (       6 calls)
     fftw         :      0.07s CPU      0.08s WALL (     872 calls)

     Parallel routines

     PWSCF        :      0.82s CPU      1.05s WALL


   This run was terminated on:  14:46:31   9Feb2026            

=------------------------------------------------------------------------------=
   JOB DONE.
=------------------------------------------------------------------------------=
