
     Program PWSCF v.7.3.1 starts on  6Feb2026 at 15:31:43 

     This program is part of the open-source Quantum ESPRESSO suite
     for quantum simulation of materials; please cite
         "P. Giannozzi et al., J. Phys.:Condens. Matter 21 395502 (2009);
         "P. Giannozzi et al., J. Phys.:Condens. Matter 29 465901 (2017);
         "P. Giannozzi et al., J. Chem. Phys. 152 154105 (2020);
          URL http://www.quantum-espresso.org", 
     in publications or presentations arising from this work. More details at
     http://www.quantum-espresso.org/quote

     Parallel version (MPI), running on   128 processors

     MPI processes distributed on     1 nodes
     241388 MiB available memory on the printing compute node when the environment starts

     Waiting for input...
     Reading input from standard input

     Current dimensions of program PWSCF are:
     Max number of different atomic species (ntypx) = 10
     Max number of k-points (npk) =  40000
     Max angular momentum in pseudopotentials (lmaxx) =  4

     K-points division:     npool     =       8
     R & G space division:  proc/nbgrp/npool/nimage =      16
     Subspace diagonalization in iterative solution of the eigenvalue problem:
     a serial algorithm will be used


     Parallelization info
     --------------------
     sticks:   dense  smooth     PW     G-vecs:    dense   smooth      PW
     Min          57      57     16                 1128     1128     185
     Max          58      58     17                 1131     1131     187
     Sum         913     913    271                18053    18053    2975

     Using Slab Decomposition



     bravais-lattice index     =            2
     lattice parameter (alat)  =      10.4652  a.u.
     unit-cell volume          =     286.5383 (a.u.)^3
     number of atoms/cell      =            2
     number of atomic types    =            1
     number of electrons       =         8.00
     number of Kohn-Sham states=            4
     kinetic-energy cutoff     =      60.0000  Ry
     charge density cutoff     =     240.0000  Ry
     scf convergence threshold =      1.0E-07
     mixing beta               =       0.7000
     number of iterations used =            8  plain     mixing
     Exchange-correlation=  SLA  PW   PBE  PBE
                           (   1   4   3   4   0   0   0)

     celldm(1)=  10.465200  celldm(2)=   0.000000  celldm(3)=   0.000000
     celldm(4)=   0.000000  celldm(5)=   0.000000  celldm(6)=   0.000000

     crystal axes: (cart. coord. in units of alat)
               a(1) = (  -0.500000   0.000000   0.500000 )  
               a(2) = (   0.000000   0.500000   0.500000 )  
               a(3) = (  -0.500000   0.500000   0.000000 )  

     reciprocal axes: (cart. coord. in units 2 pi/alat)
               b(1) = ( -1.000000 -1.000000  1.000000 )  
               b(2) = (  1.000000  1.000000  1.000000 )  
               b(3) = ( -1.000000  1.000000 -1.000000 )  


     PseudoPot. # 1 for Si read from file:
     ./Si.pbe-n-van.UPF
     MD5 check sum: 8a97496598b7338af554a5de8957bfee
     Pseudo is Ultrasoft + core correction, Zval =  4.0
     Generated by new atomic code, or converted to UPF format
     Using radial grid of  899 points,  6 beta functions with: 
                l(1) =   0
                l(2) =   0
                l(3) =   1
                l(4) =   1
                l(5) =   2
                l(6) =   2
     Q(r) pseudized with  8 coefficients,  rinner =    0.900   0.900   0.900
                                                       0.900   0.900

     atomic species   valence    mass     pseudopotential
     Si                4.00    28.08600     Si( 1.00)

     48 Sym. Ops., with inversion, found (24 have fractional translation)



   Cartesian axes

     site n.     atom                  positions (alat units)
         1        Si     tau(   1) = (  -0.7500000   0.7500000   0.7500000  )
         2        Si     tau(   2) = (   0.0000000   0.0000000   0.0000000  )

     number of k points=    29
                       cart. coord. in units 2pi/alat
        k(    1) = (   0.0000000   0.0000000   0.0000000), wk =   0.0039062
        k(    2) = (  -0.1250000   0.1250000  -0.1250000), wk =   0.0312500
        k(    3) = (  -0.2500000   0.2500000  -0.2500000), wk =   0.0312500
        k(    4) = (  -0.3750000   0.3750000  -0.3750000), wk =   0.0312500
        k(    5) = (   0.5000000  -0.5000000   0.5000000), wk =   0.0156250
        k(    6) = (   0.0000000   0.2500000   0.0000000), wk =   0.0234375
        k(    7) = (  -0.1250000   0.3750000  -0.1250000), wk =   0.0937500
        k(    8) = (  -0.2500000   0.5000000  -0.2500000), wk =   0.0937500
        k(    9) = (   0.6250000  -0.3750000   0.6250000), wk =   0.0937500
        k(   10) = (   0.5000000  -0.2500000   0.5000000), wk =   0.0937500
        k(   11) = (   0.3750000  -0.1250000   0.3750000), wk =   0.0937500
        k(   12) = (   0.2500000   0.0000000   0.2500000), wk =   0.0468750
        k(   13) = (   0.0000000   0.5000000   0.0000000), wk =   0.0234375
        k(   14) = (  -0.1250000   0.6250000  -0.1250000), wk =   0.0937500
        k(   15) = (   0.7500000  -0.2500000   0.7500000), wk =   0.0937500
        k(   16) = (   0.6250000  -0.1250000   0.6250000), wk =   0.0937500
        k(   17) = (   0.5000000   0.0000000   0.5000000), wk =   0.0468750
        k(   18) = (   0.0000000   0.7500000   0.0000000), wk =   0.0234375
        k(   19) = (   0.8750000  -0.1250000   0.8750000), wk =   0.0937500
        k(   20) = (   0.7500000   0.0000000   0.7500000), wk =   0.0468750
        k(   21) = (   0.0000000  -1.0000000   0.0000000), wk =   0.0117188
        k(   22) = (  -0.2500000   0.5000000   0.0000000), wk =   0.0937500
        k(   23) = (   0.6250000  -0.3750000   0.8750000), wk =   0.1875000
        k(   24) = (   0.5000000  -0.2500000   0.7500000), wk =   0.0937500
        k(   25) = (   0.7500000  -0.2500000   1.0000000), wk =   0.0937500
        k(   26) = (   0.6250000  -0.1250000   0.8750000), wk =   0.1875000
        k(   27) = (   0.5000000   0.0000000   0.7500000), wk =   0.0937500
        k(   28) = (  -0.2500000  -1.0000000   0.0000000), wk =   0.0468750
        k(   29) = (  -0.5000000  -1.0000000   0.0000000), wk =   0.0234375

     Dense  grid:    18053 G-vectors     FFT dimensions: (  40,  40,  40)

     Estimated max dynamical RAM per process >       2.58 MB

     Estimated total dynamical RAM >     299.66 MB

     Initial potential from superposition of free atoms

     starting charge       7.9987, renormalised to       8.0000
     Starting wfcs are    8 randomized atomic wfcs

     total cpu time spent up to now is        0.7 secs

     per-process dynamical memory:    10.2 Mb

     Self-consistent Calculation

     iteration #  1     ecut=    60.00 Ry     beta= 0.70
     Davidson diagonalization with overlap
     ethr =  1.00E-02,  avg # of iterations =  2.0

     Threshold (ethr) on eigenvalues was too large:
     Diagonalizing with lowered threshold

     Davidson diagonalization with overlap
     ethr =  5.89E-04,  avg # of iterations =  1.1

     total cpu time spent up to now is        0.8 secs

     total energy              =     -19.18988561 Ry
     estimated scf accuracy    <       0.05049077 Ry

     iteration #  2     ecut=    60.00 Ry     beta= 0.70
     Davidson diagonalization with overlap
     ethr =  6.31E-04,  avg # of iterations =  1.0

     total cpu time spent up to now is        0.8 secs

     total energy              =     -19.19155526 Ry
     estimated scf accuracy    <       0.00247627 Ry

     iteration #  3     ecut=    60.00 Ry     beta= 0.70
     Davidson diagonalization with overlap
     ethr =  3.10E-05,  avg # of iterations =  2.0

     total cpu time spent up to now is        0.8 secs

     total energy              =     -19.19188438 Ry
     estimated scf accuracy    <       0.00003587 Ry

     iteration #  4     ecut=    60.00 Ry     beta= 0.70
     Davidson diagonalization with overlap
     ethr =  4.48E-07,  avg # of iterations =  6.0

     total cpu time spent up to now is        0.9 secs

     total energy              =     -19.19195309 Ry
     estimated scf accuracy    <       0.00000018 Ry

     iteration #  5     ecut=    60.00 Ry     beta= 0.70
     Davidson diagonalization with overlap
     ethr =  2.28E-09,  avg # of iterations =  7.1

     total cpu time spent up to now is        0.9 secs

     End of self-consistent calculation

          k = 0.0000 0.0000 0.0000 (  2229 PWs)   bands (ev):

    -5.9664   5.5981   5.5981   5.5981

          k =-0.1250 0.1250-0.1250 (  2217 PWs)   bands (ev):

    -5.7725   4.0126   5.3260   5.3260

          k =-0.2500 0.2500-0.2500 (  2238 PWs)   bands (ev):

    -5.2080   1.7735   4.8760   4.8760

          k =-0.3750 0.3750-0.3750 (  2241 PWs)   bands (ev):

    -4.3675  -0.1480   4.5599   4.5599

          k = 0.5000-0.5000 0.5000 (  2252 PWs)   bands (ev):

    -3.7804  -1.1037   4.4512   4.4512

          k = 0.0000 0.2500 0.0000 (  2225 PWs)   bands (ev):

    -5.7071   4.2045   4.8444   4.8444

          k =-0.1250 0.3750-0.1250 (  2237 PWs)   bands (ev):

    -5.2623   2.4139   4.3574   4.4004

          k =-0.2500 0.5000-0.2500 (  2255 PWs)   bands (ev):

    -4.4929   0.4603   3.8305   4.0974

          k = 0.6250-0.3750 0.6250 (  2254 PWs)   bands (ev):

    -3.6931  -0.9123   3.4080   4.1149

          k = 0.5000-0.2500 0.5000 (  2245 PWs)   bands (ev):

    -3.9178  -0.5675   3.2442   4.3918

          k = 0.3750-0.1250 0.3750 (  2240 PWs)   bands (ev):

    -4.7817   1.0837   3.4048   4.8559

          k = 0.2500 0.0000 0.2500 (  2239 PWs)   bands (ev):

    -5.4534   2.9303   4.0741   5.3123

          k = 0.0000 0.5000 0.0000 (  2269 PWs)   bands (ev):

    -4.9386   2.0681   3.8170   3.8170

          k =-0.1250 0.6250-0.1250 (  2248 PWs)   bands (ev):

    -4.2661   0.7180   3.0768   3.5123

          k = 0.7500-0.2500 0.7500 (  2257 PWs)   bands (ev):

    -3.3983  -0.6318   2.2562   3.5120

          k = 0.6250-0.1250 0.6250 (  2255 PWs)   bands (ev):

    -3.2133  -0.8673   1.8283   3.8110

          k = 0.5000 0.0000 0.5000 (  2239 PWs)   bands (ev):

    -4.0329   0.2209   2.0695   4.3363

          k = 0.0000 0.7500 0.0000 (  2249 PWs)   bands (ev):

    -3.6928  -0.0650   3.1337   3.1337

          k = 0.8750-0.1250 0.8750 (  2254 PWs)   bands (ev):

    -2.8453  -1.0988   2.3691   3.0600

          k = 0.7500 0.0000 0.7500 (  2257 PWs)   bands (ev):

    -2.4486  -1.4643   1.5682   3.3031

          k = 0.0000-1.0000 0.0000 (  2272 PWs)   bands (ev):

    -2.0329  -2.0329   2.8991   2.8991

          k =-0.2500 0.5000 0.0000 (  2247 PWs)   bands (ev):

    -4.7054   1.3573   3.0474   4.2421

          k = 0.6250-0.3750 0.8750 (  2254 PWs)   bands (ev):

    -3.8691  -0.1060   2.4511   3.7785

          k = 0.5000-0.2500 0.7500 (  2250 PWs)   bands (ev):

    -3.2664  -0.9814   2.3156   3.5667

          k = 0.7500-0.2500 1.0000 (  2236 PWs)   bands (ev):

    -3.5088  -0.2736   2.4343   3.0066

          k = 0.6250-0.1250 0.8750 (  2246 PWs)   bands (ev):

    -2.6922  -1.1882   1.7855   2.8190

          k = 0.5000 0.0000 0.7500 (  2256 PWs)   bands (ev):

    -3.0236  -0.8398   1.6309   3.1697

          k =-0.2500-1.0000 0.0000 (  2240 PWs)   bands (ev):

    -1.9663  -1.9663   2.3879   2.3879

          k =-0.5000-1.0000 0.0000 (  2244 PWs)   bands (ev):

    -1.8940  -1.8940   1.9906   1.9906

     highest occupied level (ev):     5.5981

!    total energy              =     -19.19195433 Ry
     estimated scf accuracy    <       0.00000001 Ry

     The total energy is the sum of the following terms:
     one-electron contribution =       4.66573890 Ry
     hartree contribution      =       1.16930498 Ry
     xc contribution           =      -8.55549862 Ry
     ewald contribution        =     -16.47149958 Ry

     convergence has been achieved in   5 iterations

     Writing all to output data dir ./si-dia/si-dia.save/ :
     XML data file, charge density, pseudopotentials, collected wavefunctions

     init_run     :      0.34s CPU      0.42s WALL (       1 calls)
     electrons    :      0.17s CPU      0.21s WALL (       1 calls)

     Called by init_run:
     wfcinit      :      0.01s CPU      0.02s WALL (       1 calls)
     potinit      :      0.01s CPU      0.03s WALL (       1 calls)
     hinit0       :      0.32s CPU      0.33s WALL (       1 calls)

     Called by electrons:
     c_bands      :      0.10s CPU      0.11s WALL (       6 calls)
     sum_band     :      0.03s CPU      0.03s WALL (       6 calls)
     v_of_rho     :      0.02s CPU      0.03s WALL (       6 calls)
     newd         :      0.00s CPU      0.01s WALL (       6 calls)
     mix_rho      :      0.00s CPU      0.00s WALL (       6 calls)

     Called by c_bands:
     init_us_2    :      0.00s CPU      0.00s WALL (      52 calls)
     cegterg      :      0.08s CPU      0.09s WALL (      24 calls)

     Called by *egterg:
     cdiaghg      :      0.00s CPU      0.01s WALL (     101 calls)
     h_psi        :      0.06s CPU      0.08s WALL (     109 calls)
     s_psi        :      0.00s CPU      0.00s WALL (     109 calls)
     g_psi        :      0.00s CPU      0.00s WALL (      81 calls)

     Called by h_psi:
     h_psi:calbec :      0.01s CPU      0.01s WALL (     109 calls)
     vloc_psi     :      0.05s CPU      0.07s WALL (     109 calls)
     add_vuspsi   :      0.00s CPU      0.00s WALL (     109 calls)

     General routines
     calbec       :      0.01s CPU      0.01s WALL (     133 calls)
     fft          :      0.30s CPU      0.31s WALL (      67 calls)
     ffts         :      0.00s CPU      0.00s WALL (       6 calls)
     fftw         :      0.06s CPU      0.07s WALL (     850 calls)

     Parallel routines

     PWSCF        :      0.75s CPU      1.03s WALL


   This run was terminated on:  15:31:44   6Feb2026            

=------------------------------------------------------------------------------=
   JOB DONE.
=------------------------------------------------------------------------------=
