
     Program PWSCF v.7.3.1 starts on  9Feb2026 at 14:46:59 

     This program is part of the open-source Quantum ESPRESSO suite
     for quantum simulation of materials; please cite
         "P. Giannozzi et al., J. Phys.:Condens. Matter 21 395502 (2009);
         "P. Giannozzi et al., J. Phys.:Condens. Matter 29 465901 (2017);
         "P. Giannozzi et al., J. Chem. Phys. 152 154105 (2020);
          URL http://www.quantum-espresso.org", 
     in publications or presentations arising from this work. More details at
     http://www.quantum-espresso.org/quote

     Parallel version (MPI), running on   128 processors

     MPI processes distributed on     1 nodes
     241424 MiB available memory on the printing compute node when the environment starts

     Waiting for input...
     Reading input from standard input

     Current dimensions of program PWSCF are:
     Max number of different atomic species (ntypx) = 10
     Max number of k-points (npk) =  40000
     Max angular momentum in pseudopotentials (lmaxx) =  4

     K-points division:     npool     =       8
     R & G space division:  proc/nbgrp/npool/nimage =      16
     Subspace diagonalization in iterative solution of the eigenvalue problem:
     a serial algorithm will be used


     Parallelization info
     --------------------
     sticks:   dense  smooth     PW     G-vecs:    dense   smooth      PW
     Min          57      57     16                 1137     1137     185
     Max          58      58     17                 1140     1140     187
     Sum         925     925    271                18197    18197    2975

     Using Slab Decomposition



     bravais-lattice index     =            2
     lattice parameter (alat)  =      10.5165  a.u.
     unit-cell volume          =     290.7727 (a.u.)^3
     number of atoms/cell      =            2
     number of atomic types    =            1
     number of electrons       =         8.00
     number of Kohn-Sham states=            4
     kinetic-energy cutoff     =      60.0000  Ry
     charge density cutoff     =     240.0000  Ry
     scf convergence threshold =      1.0E-07
     mixing beta               =       0.7000
     number of iterations used =            8  plain     mixing
     Exchange-correlation=  SLA  PW   PBE  PBE
                           (   1   4   3   4   0   0   0)

     celldm(1)=  10.516500  celldm(2)=   0.000000  celldm(3)=   0.000000
     celldm(4)=   0.000000  celldm(5)=   0.000000  celldm(6)=   0.000000

     crystal axes: (cart. coord. in units of alat)
               a(1) = (  -0.500000   0.000000   0.500000 )  
               a(2) = (   0.000000   0.500000   0.500000 )  
               a(3) = (  -0.500000   0.500000   0.000000 )  

     reciprocal axes: (cart. coord. in units 2 pi/alat)
               b(1) = ( -1.000000 -1.000000  1.000000 )  
               b(2) = (  1.000000  1.000000  1.000000 )  
               b(3) = ( -1.000000  1.000000 -1.000000 )  


     PseudoPot. # 1 for Si read from file:
     ./Si.pbe-n-van.UPF
     MD5 check sum: 8a97496598b7338af554a5de8957bfee
     Pseudo is Ultrasoft + core correction, Zval =  4.0
     Generated by new atomic code, or converted to UPF format
     Using radial grid of  899 points,  6 beta functions with: 
                l(1) =   0
                l(2) =   0
                l(3) =   1
                l(4) =   1
                l(5) =   2
                l(6) =   2
     Q(r) pseudized with  8 coefficients,  rinner =    0.900   0.900   0.900
                                                       0.900   0.900

     atomic species   valence    mass     pseudopotential
     Si                4.00    28.08600     Si( 1.00)

     48 Sym. Ops., with inversion, found (24 have fractional translation)



   Cartesian axes

     site n.     atom                  positions (alat units)
         1        Si     tau(   1) = (  -0.7500000   0.7500000   0.7500000  )
         2        Si     tau(   2) = (   0.0000000   0.0000000   0.0000000  )

     number of k points=    29
                       cart. coord. in units 2pi/alat
        k(    1) = (   0.0000000   0.0000000   0.0000000), wk =   0.0039062
        k(    2) = (  -0.1250000   0.1250000  -0.1250000), wk =   0.0312500
        k(    3) = (  -0.2500000   0.2500000  -0.2500000), wk =   0.0312500
        k(    4) = (  -0.3750000   0.3750000  -0.3750000), wk =   0.0312500
        k(    5) = (   0.5000000  -0.5000000   0.5000000), wk =   0.0156250
        k(    6) = (   0.0000000   0.2500000   0.0000000), wk =   0.0234375
        k(    7) = (  -0.1250000   0.3750000  -0.1250000), wk =   0.0937500
        k(    8) = (  -0.2500000   0.5000000  -0.2500000), wk =   0.0937500
        k(    9) = (   0.6250000  -0.3750000   0.6250000), wk =   0.0937500
        k(   10) = (   0.5000000  -0.2500000   0.5000000), wk =   0.0937500
        k(   11) = (   0.3750000  -0.1250000   0.3750000), wk =   0.0937500
        k(   12) = (   0.2500000   0.0000000   0.2500000), wk =   0.0468750
        k(   13) = (   0.0000000   0.5000000   0.0000000), wk =   0.0234375
        k(   14) = (  -0.1250000   0.6250000  -0.1250000), wk =   0.0937500
        k(   15) = (   0.7500000  -0.2500000   0.7500000), wk =   0.0937500
        k(   16) = (   0.6250000  -0.1250000   0.6250000), wk =   0.0937500
        k(   17) = (   0.5000000   0.0000000   0.5000000), wk =   0.0468750
        k(   18) = (   0.0000000   0.7500000   0.0000000), wk =   0.0234375
        k(   19) = (   0.8750000  -0.1250000   0.8750000), wk =   0.0937500
        k(   20) = (   0.7500000   0.0000000   0.7500000), wk =   0.0468750
        k(   21) = (   0.0000000  -1.0000000   0.0000000), wk =   0.0117188
        k(   22) = (  -0.2500000   0.5000000   0.0000000), wk =   0.0937500
        k(   23) = (   0.6250000  -0.3750000   0.8750000), wk =   0.1875000
        k(   24) = (   0.5000000  -0.2500000   0.7500000), wk =   0.0937500
        k(   25) = (   0.7500000  -0.2500000   1.0000000), wk =   0.0937500
        k(   26) = (   0.6250000  -0.1250000   0.8750000), wk =   0.1875000
        k(   27) = (   0.5000000   0.0000000   0.7500000), wk =   0.0937500
        k(   28) = (  -0.2500000  -1.0000000   0.0000000), wk =   0.0468750
        k(   29) = (  -0.5000000  -1.0000000   0.0000000), wk =   0.0234375

     Dense  grid:    18197 G-vectors     FFT dimensions: (  40,  40,  40)

     Estimated max dynamical RAM per process >       2.59 MB

     Estimated total dynamical RAM >     300.50 MB

     Initial potential from superposition of free atoms

     starting charge       7.9987, renormalised to       8.0000
     Starting wfcs are    8 randomized atomic wfcs

     total cpu time spent up to now is        0.7 secs

     per-process dynamical memory:    10.2 Mb

     Self-consistent Calculation

     iteration #  1     ecut=    60.00 Ry     beta= 0.70
     Davidson diagonalization with overlap
     ethr =  1.00E-02,  avg # of iterations =  2.0

     Threshold (ethr) on eigenvalues was too large:
     Diagonalizing with lowered threshold

     Davidson diagonalization with overlap
     ethr =  5.74E-04,  avg # of iterations =  1.1

     total cpu time spent up to now is        0.8 secs

     total energy              =     -19.18897768 Ry
     estimated scf accuracy    <       0.04928085 Ry

     iteration #  2     ecut=    60.00 Ry     beta= 0.70
     Davidson diagonalization with overlap
     ethr =  6.16E-04,  avg # of iterations =  1.0

     total cpu time spent up to now is        0.8 secs

     total energy              =     -19.19053587 Ry
     estimated scf accuracy    <       0.00247293 Ry

     iteration #  3     ecut=    60.00 Ry     beta= 0.70
     Davidson diagonalization with overlap
     ethr =  3.09E-05,  avg # of iterations =  1.9

     total cpu time spent up to now is        0.8 secs

     total energy              =     -19.19084124 Ry
     estimated scf accuracy    <       0.00003534 Ry

     iteration #  4     ecut=    60.00 Ry     beta= 0.70
     Davidson diagonalization with overlap
     ethr =  4.42E-07,  avg # of iterations =  6.0

     total cpu time spent up to now is        0.8 secs

     total energy              =     -19.19090982 Ry
     estimated scf accuracy    <       0.00000012 Ry

     iteration #  5     ecut=    60.00 Ry     beta= 0.70
     Davidson diagonalization with overlap
     ethr =  1.49E-09,  avg # of iterations =  7.7

     total cpu time spent up to now is        0.9 secs

     End of self-consistent calculation

          k = 0.0000 0.0000 0.0000 (  2277 PWs)   bands (ev):

    -6.0153   5.4540   5.4540   5.4540

          k =-0.1250 0.1250-0.1250 (  2277 PWs)   bands (ev):

    -5.8239   3.8691   5.1859   5.1859

          k =-0.2500 0.2500-0.2500 (  2259 PWs)   bands (ev):

    -5.2670   1.6521   4.7412   4.7412

          k =-0.3750 0.3750-0.3750 (  2271 PWs)   bands (ev):

    -4.4393  -0.2454   4.4279   4.4279

          k = 0.5000-0.5000 0.5000 (  2276 PWs)   bands (ev):

    -3.8642  -1.1851   4.3200   4.3200

          k = 0.0000 0.2500 0.0000 (  2277 PWs)   bands (ev):

    -5.7593   4.0433   4.7129   4.7129

          k =-0.1250 0.3750-0.1250 (  2265 PWs)   bands (ev):

    -5.3204   2.2768   4.2320   4.2676

          k =-0.2500 0.5000-0.2500 (  2275 PWs)   bands (ev):

    -4.5619   0.3497   3.7027   3.9742

          k = 0.6250-0.3750 0.6250 (  2292 PWs)   bands (ev):

    -3.7769  -1.0011   3.2858   3.9900

          k = 0.5000-0.2500 0.5000 (  2290 PWs)   bands (ev):

    -3.9969  -0.6624   3.1262   4.2623

          k = 0.3750-0.1250 0.3750 (  2288 PWs)   bands (ev):

    -4.8465   0.9643   3.2891   4.7197

          k = 0.2500 0.0000 0.2500 (  2255 PWs)   bands (ev):

    -5.5090   2.7877   3.9549   5.1701

          k = 0.0000 0.5000 0.0000 (  2269 PWs)   bands (ev):

    -5.0007   1.9193   3.6991   3.6991

          k =-0.1250 0.6250-0.1250 (  2286 PWs)   bands (ev):

    -4.3373   0.5870   2.9687   3.3978

          k = 0.7500-0.2500 0.7500 (  2284 PWs)   bands (ev):

    -3.4835  -0.7408   2.1587   3.3967

          k = 0.6250-0.1250 0.6250 (  2291 PWs)   bands (ev):

    -3.3030  -0.9709   1.7382   3.6909

          k = 0.5000 0.0000 0.5000 (  2281 PWs)   bands (ev):

    -4.1086   0.1001   1.9791   4.2083

          k = 0.0000 0.7500 0.0000 (  2289 PWs)   bands (ev):

    -3.7712  -0.1904   3.0240   3.0240

          k = 0.8750-0.1250 0.8750 (  2287 PWs)   bands (ev):

    -2.9357  -1.2116   2.2745   2.9509

          k = 0.7500 0.0000 0.7500 (  2273 PWs)   bands (ev):

    -2.5488  -1.5698   1.4890   3.1905

          k = 0.0000-1.0000 0.0000 (  2272 PWs)   bands (ev):

    -2.1332  -2.1332   2.7921   2.7921

          k =-0.2500 0.5000 0.0000 (  2282 PWs)   bands (ev):

    -4.7709   1.2232   2.9423   4.1154

          k = 0.6250-0.3750 0.8750 (  2287 PWs)   bands (ev):

    -3.9472  -0.2189   2.3493   3.6607

          k = 0.5000-0.2500 0.7500 (  2286 PWs)   bands (ev):

    -3.3562  -1.0778   2.2124   3.4531

          k = 0.7500-0.2500 1.0000 (  2285 PWs)   bands (ev):

    -3.5906  -0.3964   2.3379   2.9026

          k = 0.6250-0.1250 0.8750 (  2277 PWs)   bands (ev):

    -2.7879  -1.2981   1.7008   2.7182

          k = 0.5000 0.0000 0.7500 (  2276 PWs)   bands (ev):

    -3.1147  -0.9533   1.5491   3.0628

          k =-0.2500-1.0000 0.0000 (  2284 PWs)   bands (ev):

    -2.0692  -2.0692   2.2933   2.2933

          k =-0.5000-1.0000 0.0000 (  2268 PWs)   bands (ev):

    -1.9998  -1.9998   1.9049   1.9049

     highest occupied level (ev):     5.4540

!    total energy              =     -19.19091109 Ry
     estimated scf accuracy    <       0.00000002 Ry

     The total energy is the sum of the following terms:
     one-electron contribution =       4.55655033 Ry
     hartree contribution      =       1.18246644 Ry
     xc contribution           =      -8.53877705 Ry
     ewald contribution        =     -16.39115081 Ry

     convergence has been achieved in   5 iterations

     Writing all to output data dir ./si-dia/si-dia.save/ :
     XML data file, charge density, pseudopotentials, collected wavefunctions

     init_run     :      0.37s CPU      0.42s WALL (       1 calls)
     electrons    :      0.14s CPU      0.21s WALL (       1 calls)

     Called by init_run:
     wfcinit      :      0.01s CPU      0.02s WALL (       1 calls)
     potinit      :      0.01s CPU      0.02s WALL (       1 calls)
     hinit0       :      0.32s CPU      0.33s WALL (       1 calls)

     Called by electrons:
     c_bands      :      0.09s CPU      0.11s WALL (       6 calls)
     sum_band     :      0.02s CPU      0.04s WALL (       6 calls)
     v_of_rho     :      0.02s CPU      0.03s WALL (       6 calls)
     newd         :      0.01s CPU      0.01s WALL (       6 calls)
     mix_rho      :      0.00s CPU      0.00s WALL (       6 calls)

     Called by c_bands:
     init_us_2    :      0.00s CPU      0.00s WALL (      52 calls)
     cegterg      :      0.07s CPU      0.09s WALL (      24 calls)

     Called by *egterg:
     cdiaghg      :      0.00s CPU      0.01s WALL (     104 calls)
     h_psi        :      0.07s CPU      0.08s WALL (     112 calls)
     s_psi        :      0.00s CPU      0.00s WALL (     112 calls)
     g_psi        :      0.00s CPU      0.00s WALL (      84 calls)

     Called by h_psi:
     h_psi:calbec :      0.01s CPU      0.01s WALL (     112 calls)
     vloc_psi     :      0.06s CPU      0.07s WALL (     112 calls)
     add_vuspsi   :      0.00s CPU      0.00s WALL (     112 calls)

     General routines
     calbec       :      0.01s CPU      0.01s WALL (     136 calls)
     fft          :      0.30s CPU      0.31s WALL (      67 calls)
     ffts         :      0.00s CPU      0.00s WALL (       6 calls)
     fftw         :      0.06s CPU      0.07s WALL (     870 calls)

     Parallel routines

     PWSCF        :      0.72s CPU      1.03s WALL


   This run was terminated on:  14:47: 0   9Feb2026            

=------------------------------------------------------------------------------=
   JOB DONE.
=------------------------------------------------------------------------------=
