
     Program PWSCF v.7.3.1 starts on  9Feb2026 at 14:47: 7 

     This program is part of the open-source Quantum ESPRESSO suite
     for quantum simulation of materials; please cite
         "P. Giannozzi et al., J. Phys.:Condens. Matter 21 395502 (2009);
         "P. Giannozzi et al., J. Phys.:Condens. Matter 29 465901 (2017);
         "P. Giannozzi et al., J. Chem. Phys. 152 154105 (2020);
          URL http://www.quantum-espresso.org", 
     in publications or presentations arising from this work. More details at
     http://www.quantum-espresso.org/quote

     Parallel version (MPI), running on   128 processors

     MPI processes distributed on     1 nodes
     241438 MiB available memory on the printing compute node when the environment starts

     Waiting for input...
     Reading input from standard input

     Current dimensions of program PWSCF are:
     Max number of different atomic species (ntypx) = 10
     Max number of k-points (npk) =  40000
     Max angular momentum in pseudopotentials (lmaxx) =  4

     K-points division:     npool     =       8
     R & G space division:  proc/nbgrp/npool/nimage =      16
     Subspace diagonalization in iterative solution of the eigenvalue problem:
     a serial algorithm will be used


     Parallelization info
     --------------------
     sticks:   dense  smooth     PW     G-vecs:    dense   smooth      PW
     Min          57      57     17                 1154     1154     194
     Max          58      58     18                 1158     1158     196
     Sum         925     925    283                18499    18499    3119

     Using Slab Decomposition



     bravais-lattice index     =            2
     lattice parameter (alat)  =      10.5575  a.u.
     unit-cell volume          =     294.1902 (a.u.)^3
     number of atoms/cell      =            2
     number of atomic types    =            1
     number of electrons       =         8.00
     number of Kohn-Sham states=            4
     kinetic-energy cutoff     =      60.0000  Ry
     charge density cutoff     =     240.0000  Ry
     scf convergence threshold =      1.0E-07
     mixing beta               =       0.7000
     number of iterations used =            8  plain     mixing
     Exchange-correlation=  SLA  PW   PBE  PBE
                           (   1   4   3   4   0   0   0)

     celldm(1)=  10.557540  celldm(2)=   0.000000  celldm(3)=   0.000000
     celldm(4)=   0.000000  celldm(5)=   0.000000  celldm(6)=   0.000000

     crystal axes: (cart. coord. in units of alat)
               a(1) = (  -0.500000   0.000000   0.500000 )  
               a(2) = (   0.000000   0.500000   0.500000 )  
               a(3) = (  -0.500000   0.500000   0.000000 )  

     reciprocal axes: (cart. coord. in units 2 pi/alat)
               b(1) = ( -1.000000 -1.000000  1.000000 )  
               b(2) = (  1.000000  1.000000  1.000000 )  
               b(3) = ( -1.000000  1.000000 -1.000000 )  


     PseudoPot. # 1 for Si read from file:
     ./Si.pbe-n-van.UPF
     MD5 check sum: 8a97496598b7338af554a5de8957bfee
     Pseudo is Ultrasoft + core correction, Zval =  4.0
     Generated by new atomic code, or converted to UPF format
     Using radial grid of  899 points,  6 beta functions with: 
                l(1) =   0
                l(2) =   0
                l(3) =   1
                l(4) =   1
                l(5) =   2
                l(6) =   2
     Q(r) pseudized with  8 coefficients,  rinner =    0.900   0.900   0.900
                                                       0.900   0.900

     atomic species   valence    mass     pseudopotential
     Si                4.00    28.08600     Si( 1.00)

     48 Sym. Ops., with inversion, found (24 have fractional translation)



   Cartesian axes

     site n.     atom                  positions (alat units)
         1        Si     tau(   1) = (  -0.7500000   0.7500000   0.7500000  )
         2        Si     tau(   2) = (   0.0000000   0.0000000   0.0000000  )

     number of k points=    29
                       cart. coord. in units 2pi/alat
        k(    1) = (   0.0000000   0.0000000   0.0000000), wk =   0.0039062
        k(    2) = (  -0.1250000   0.1250000  -0.1250000), wk =   0.0312500
        k(    3) = (  -0.2500000   0.2500000  -0.2500000), wk =   0.0312500
        k(    4) = (  -0.3750000   0.3750000  -0.3750000), wk =   0.0312500
        k(    5) = (   0.5000000  -0.5000000   0.5000000), wk =   0.0156250
        k(    6) = (   0.0000000   0.2500000   0.0000000), wk =   0.0234375
        k(    7) = (  -0.1250000   0.3750000  -0.1250000), wk =   0.0937500
        k(    8) = (  -0.2500000   0.5000000  -0.2500000), wk =   0.0937500
        k(    9) = (   0.6250000  -0.3750000   0.6250000), wk =   0.0937500
        k(   10) = (   0.5000000  -0.2500000   0.5000000), wk =   0.0937500
        k(   11) = (   0.3750000  -0.1250000   0.3750000), wk =   0.0937500
        k(   12) = (   0.2500000   0.0000000   0.2500000), wk =   0.0468750
        k(   13) = (   0.0000000   0.5000000   0.0000000), wk =   0.0234375
        k(   14) = (  -0.1250000   0.6250000  -0.1250000), wk =   0.0937500
        k(   15) = (   0.7500000  -0.2500000   0.7500000), wk =   0.0937500
        k(   16) = (   0.6250000  -0.1250000   0.6250000), wk =   0.0937500
        k(   17) = (   0.5000000   0.0000000   0.5000000), wk =   0.0468750
        k(   18) = (   0.0000000   0.7500000   0.0000000), wk =   0.0234375
        k(   19) = (   0.8750000  -0.1250000   0.8750000), wk =   0.0937500
        k(   20) = (   0.7500000   0.0000000   0.7500000), wk =   0.0468750
        k(   21) = (   0.0000000  -1.0000000   0.0000000), wk =   0.0117188
        k(   22) = (  -0.2500000   0.5000000   0.0000000), wk =   0.0937500
        k(   23) = (   0.6250000  -0.3750000   0.8750000), wk =   0.1875000
        k(   24) = (   0.5000000  -0.2500000   0.7500000), wk =   0.0937500
        k(   25) = (   0.7500000  -0.2500000   1.0000000), wk =   0.0937500
        k(   26) = (   0.6250000  -0.1250000   0.8750000), wk =   0.1875000
        k(   27) = (   0.5000000   0.0000000   0.7500000), wk =   0.0937500
        k(   28) = (  -0.2500000  -1.0000000   0.0000000), wk =   0.0468750
        k(   29) = (  -0.5000000  -1.0000000   0.0000000), wk =   0.0234375

     Dense  grid:    18499 G-vectors     FFT dimensions: (  40,  40,  40)

     Estimated max dynamical RAM per process >       2.61 MB

     Estimated total dynamical RAM >     301.98 MB

     Initial potential from superposition of free atoms

     starting charge       7.9987, renormalised to       8.0000
     Starting wfcs are    8 randomized atomic wfcs

     total cpu time spent up to now is        0.7 secs

     per-process dynamical memory:    10.2 Mb

     Self-consistent Calculation

     iteration #  1     ecut=    60.00 Ry     beta= 0.70
     Davidson diagonalization with overlap
     ethr =  1.00E-02,  avg # of iterations =  2.0

     Threshold (ethr) on eigenvalues was too large:
     Diagonalizing with lowered threshold

     Davidson diagonalization with overlap
     ethr =  5.63E-04,  avg # of iterations =  1.1

     total cpu time spent up to now is        0.8 secs

     total energy              =     -19.18798942 Ry
     estimated scf accuracy    <       0.04818330 Ry

     iteration #  2     ecut=    60.00 Ry     beta= 0.70
     Davidson diagonalization with overlap
     ethr =  6.02E-04,  avg # of iterations =  1.0

     total cpu time spent up to now is        0.8 secs

     total energy              =     -19.18947152 Ry
     estimated scf accuracy    <       0.00249501 Ry

     iteration #  3     ecut=    60.00 Ry     beta= 0.70
     Davidson diagonalization with overlap
     ethr =  3.12E-05,  avg # of iterations =  1.9

     total cpu time spent up to now is        0.9 secs

     total energy              =     -19.18978729 Ry
     estimated scf accuracy    <       0.00003185 Ry

     iteration #  4     ecut=    60.00 Ry     beta= 0.70
     Davidson diagonalization with overlap
     ethr =  3.98E-07,  avg # of iterations =  6.1

     total cpu time spent up to now is        0.9 secs

     total energy              =     -19.18985236 Ry
     estimated scf accuracy    <       0.00000038 Ry

     iteration #  5     ecut=    60.00 Ry     beta= 0.70
     Davidson diagonalization with overlap
     ethr =  4.79E-09,  avg # of iterations =  6.2

     total cpu time spent up to now is        0.9 secs

     End of self-consistent calculation

          k = 0.0000 0.0000 0.0000 (  2277 PWs)   bands (ev):

    -6.0540   5.3403   5.3403   5.3403

          k =-0.1250 0.1250-0.1250 (  2304 PWs)   bands (ev):

    -5.8646   3.7552   5.0755   5.0755

          k =-0.2500 0.2500-0.2500 (  2304 PWs)   bands (ev):

    -5.3136   1.5557   4.6348   4.6348

          k =-0.3750 0.3750-0.3750 (  2319 PWs)   bands (ev):

    -4.4961  -0.3226   4.3238   4.3238

          k = 0.5000-0.5000 0.5000 (  2332 PWs)   bands (ev):

    -3.9303  -1.2498   4.2166   4.2166

          k = 0.0000 0.2500 0.0000 (  2305 PWs)   bands (ev):

    -5.8006   3.9155   4.6093   4.6093

          k =-0.1250 0.3750-0.1250 (  2299 PWs)   bands (ev):

    -5.3663   2.1680   4.1332   4.1630

          k =-0.2500 0.5000-0.2500 (  2317 PWs)   bands (ev):

    -4.6166   0.2618   3.6021   3.8770

          k = 0.6250-0.3750 0.6250 (  2312 PWs)   bands (ev):

    -3.8430  -1.0716   3.1895   3.8916

          k = 0.5000-0.2500 0.5000 (  2314 PWs)   bands (ev):

    -4.0594  -0.7377   3.0333   4.1603

          k = 0.3750-0.1250 0.3750 (  2312 PWs)   bands (ev):

    -4.8978   0.8695   3.1980   4.6124

          k = 0.2500 0.0000 0.2500 (  2301 PWs)   bands (ev):

    -5.5529   2.6746   3.8610   5.0581

          k = 0.0000 0.5000 0.0000 (  2293 PWs)   bands (ev):

    -5.0498   1.8015   3.6061   3.6061

          k =-0.1250 0.6250-0.1250 (  2318 PWs)   bands (ev):

    -4.3936   0.4833   2.8836   3.3075

          k = 0.7500-0.2500 0.7500 (  2315 PWs)   bands (ev):

    -3.5508  -0.8272   2.0820   3.3058

          k = 0.6250-0.1250 0.6250 (  2315 PWs)   bands (ev):

    -3.3738  -1.0531   1.6672   3.5963

          k = 0.5000 0.0000 0.5000 (  2305 PWs)   bands (ev):

    -4.1684   0.0045   1.9080   4.1075

          k = 0.0000 0.7500 0.0000 (  2321 PWs)   bands (ev):

    -3.8332  -0.2896   2.9375   2.9375

          k = 0.8750-0.1250 0.8750 (  2313 PWs)   bands (ev):

    -3.0072  -1.3009   2.1999   2.8649

          k = 0.7500 0.0000 0.7500 (  2319 PWs)   bands (ev):

    -2.6279  -1.6533   1.4265   3.1017

          k = 0.0000-1.0000 0.0000 (  2298 PWs)   bands (ev):

    -2.2124  -2.2124   2.7078   2.7078

          k =-0.2500 0.5000 0.0000 (  2315 PWs)   bands (ev):

    -4.8227   1.1170   2.8594   4.0156

          k = 0.6250-0.3750 0.8750 (  2308 PWs)   bands (ev):

    -4.0090  -0.3085   2.2692   3.5678

          k = 0.5000-0.2500 0.7500 (  2310 PWs)   bands (ev):

    -3.4272  -1.1543   2.1312   3.3635

          k = 0.7500-0.2500 1.0000 (  2297 PWs)   bands (ev):

    -3.6553  -0.4935   2.2618   2.8205

          k = 0.6250-0.1250 0.8750 (  2301 PWs)   bands (ev):

    -2.8634  -1.3851   1.6341   2.6386

          k = 0.5000 0.0000 0.7500 (  2308 PWs)   bands (ev):

    -3.1866  -1.0431   1.4846   2.9785

          k =-0.2500-1.0000 0.0000 (  2302 PWs)   bands (ev):

    -2.1504  -2.1504   2.2186   2.2186

          k =-0.5000-1.0000 0.0000 (  2328 PWs)   bands (ev):

    -2.0835  -2.0835   1.8374   1.8374

     highest occupied level (ev):     5.3403

!    total energy              =     -19.18985353 Ry
     estimated scf accuracy    <          2.9E-09 Ry

     The total energy is the sum of the following terms:
     one-electron contribution =       4.47013257 Ry
     hartree contribution      =       1.19307713 Ry
     xc contribution           =      -8.52562924 Ry
     ewald contribution        =     -16.32743399 Ry

     convergence has been achieved in   5 iterations

     Writing all to output data dir ./si-dia/si-dia.save/ :
     XML data file, charge density, pseudopotentials, collected wavefunctions

     init_run     :      0.35s CPU      0.42s WALL (       1 calls)
     electrons    :      0.14s CPU      0.23s WALL (       1 calls)

     Called by init_run:
     wfcinit      :      0.00s CPU      0.02s WALL (       1 calls)
     potinit      :      0.01s CPU      0.02s WALL (       1 calls)
     hinit0       :      0.33s CPU      0.33s WALL (       1 calls)

     Called by electrons:
     c_bands      :      0.08s CPU      0.13s WALL (       6 calls)
     sum_band     :      0.03s CPU      0.03s WALL (       6 calls)
     v_of_rho     :      0.02s CPU      0.03s WALL (       6 calls)
     newd         :      0.00s CPU      0.01s WALL (       6 calls)
     mix_rho      :      0.00s CPU      0.00s WALL (       6 calls)

     Called by c_bands:
     init_us_2    :      0.00s CPU      0.00s WALL (      52 calls)
     cegterg      :      0.07s CPU      0.09s WALL (      24 calls)

     Called by *egterg:
     cdiaghg      :      0.00s CPU      0.01s WALL (      99 calls)
     h_psi        :      0.06s CPU      0.08s WALL (     107 calls)
     s_psi        :      0.00s CPU      0.00s WALL (     107 calls)
     g_psi        :      0.00s CPU      0.00s WALL (      79 calls)

     Called by h_psi:
     h_psi:calbec :      0.00s CPU      0.01s WALL (     107 calls)
     vloc_psi     :      0.05s CPU      0.07s WALL (     107 calls)
     add_vuspsi   :      0.00s CPU      0.00s WALL (     107 calls)

     General routines
     calbec       :      0.01s CPU      0.01s WALL (     131 calls)
     fft          :      0.30s CPU      0.31s WALL (      67 calls)
     ffts         :      0.00s CPU      0.00s WALL (       6 calls)
     fftw         :      0.05s CPU      0.07s WALL (     840 calls)

     Parallel routines

     PWSCF        :      0.74s CPU      1.10s WALL


   This run was terminated on:  14:47: 8   9Feb2026            

=------------------------------------------------------------------------------=
   JOB DONE.
=------------------------------------------------------------------------------=
