
     Program PWSCF v.7.3.1 starts on  6Feb2026 at 15:32:15 

     This program is part of the open-source Quantum ESPRESSO suite
     for quantum simulation of materials; please cite
         "P. Giannozzi et al., J. Phys.:Condens. Matter 21 395502 (2009);
         "P. Giannozzi et al., J. Phys.:Condens. Matter 29 465901 (2017);
         "P. Giannozzi et al., J. Chem. Phys. 152 154105 (2020);
          URL http://www.quantum-espresso.org", 
     in publications or presentations arising from this work. More details at
     http://www.quantum-espresso.org/quote

     Parallel version (MPI), running on   128 processors

     MPI processes distributed on     1 nodes
     241368 MiB available memory on the printing compute node when the environment starts

     Waiting for input...
     Reading input from standard input

     Current dimensions of program PWSCF are:
     Max number of different atomic species (ntypx) = 10
     Max number of k-points (npk) =  40000
     Max angular momentum in pseudopotentials (lmaxx) =  4

     K-points division:     npool     =       8
     R & G space division:  proc/nbgrp/npool/nimage =      16
     Subspace diagonalization in iterative solution of the eigenvalue problem:
     a serial algorithm will be used


     Parallelization info
     --------------------
     sticks:   dense  smooth     PW     G-vecs:    dense   smooth      PW
     Min          57      57     17                 1154     1154     194
     Max          58      58     18                 1158     1158     196
     Sum         925     925    283                18499    18499    3119

     Using Slab Decomposition



     bravais-lattice index     =            2
     lattice parameter (alat)  =      10.5678  a.u.
     unit-cell volume          =     295.0487 (a.u.)^3
     number of atoms/cell      =            2
     number of atomic types    =            1
     number of electrons       =         8.00
     number of Kohn-Sham states=            4
     kinetic-energy cutoff     =      60.0000  Ry
     charge density cutoff     =     240.0000  Ry
     scf convergence threshold =      1.0E-07
     mixing beta               =       0.7000
     number of iterations used =            8  plain     mixing
     Exchange-correlation=  SLA  PW   PBE  PBE
                           (   1   4   3   4   0   0   0)

     celldm(1)=  10.567800  celldm(2)=   0.000000  celldm(3)=   0.000000
     celldm(4)=   0.000000  celldm(5)=   0.000000  celldm(6)=   0.000000

     crystal axes: (cart. coord. in units of alat)
               a(1) = (  -0.500000   0.000000   0.500000 )  
               a(2) = (   0.000000   0.500000   0.500000 )  
               a(3) = (  -0.500000   0.500000   0.000000 )  

     reciprocal axes: (cart. coord. in units 2 pi/alat)
               b(1) = ( -1.000000 -1.000000  1.000000 )  
               b(2) = (  1.000000  1.000000  1.000000 )  
               b(3) = ( -1.000000  1.000000 -1.000000 )  


     PseudoPot. # 1 for Si read from file:
     ./Si.pbe-n-van.UPF
     MD5 check sum: 8a97496598b7338af554a5de8957bfee
     Pseudo is Ultrasoft + core correction, Zval =  4.0
     Generated by new atomic code, or converted to UPF format
     Using radial grid of  899 points,  6 beta functions with: 
                l(1) =   0
                l(2) =   0
                l(3) =   1
                l(4) =   1
                l(5) =   2
                l(6) =   2
     Q(r) pseudized with  8 coefficients,  rinner =    0.900   0.900   0.900
                                                       0.900   0.900

     atomic species   valence    mass     pseudopotential
     Si                4.00    28.08600     Si( 1.00)

     48 Sym. Ops., with inversion, found (24 have fractional translation)



   Cartesian axes

     site n.     atom                  positions (alat units)
         1        Si     tau(   1) = (  -0.7500000   0.7500000   0.7500000  )
         2        Si     tau(   2) = (   0.0000000   0.0000000   0.0000000  )

     number of k points=    29
                       cart. coord. in units 2pi/alat
        k(    1) = (   0.0000000   0.0000000   0.0000000), wk =   0.0039062
        k(    2) = (  -0.1250000   0.1250000  -0.1250000), wk =   0.0312500
        k(    3) = (  -0.2500000   0.2500000  -0.2500000), wk =   0.0312500
        k(    4) = (  -0.3750000   0.3750000  -0.3750000), wk =   0.0312500
        k(    5) = (   0.5000000  -0.5000000   0.5000000), wk =   0.0156250
        k(    6) = (   0.0000000   0.2500000   0.0000000), wk =   0.0234375
        k(    7) = (  -0.1250000   0.3750000  -0.1250000), wk =   0.0937500
        k(    8) = (  -0.2500000   0.5000000  -0.2500000), wk =   0.0937500
        k(    9) = (   0.6250000  -0.3750000   0.6250000), wk =   0.0937500
        k(   10) = (   0.5000000  -0.2500000   0.5000000), wk =   0.0937500
        k(   11) = (   0.3750000  -0.1250000   0.3750000), wk =   0.0937500
        k(   12) = (   0.2500000   0.0000000   0.2500000), wk =   0.0468750
        k(   13) = (   0.0000000   0.5000000   0.0000000), wk =   0.0234375
        k(   14) = (  -0.1250000   0.6250000  -0.1250000), wk =   0.0937500
        k(   15) = (   0.7500000  -0.2500000   0.7500000), wk =   0.0937500
        k(   16) = (   0.6250000  -0.1250000   0.6250000), wk =   0.0937500
        k(   17) = (   0.5000000   0.0000000   0.5000000), wk =   0.0468750
        k(   18) = (   0.0000000   0.7500000   0.0000000), wk =   0.0234375
        k(   19) = (   0.8750000  -0.1250000   0.8750000), wk =   0.0937500
        k(   20) = (   0.7500000   0.0000000   0.7500000), wk =   0.0468750
        k(   21) = (   0.0000000  -1.0000000   0.0000000), wk =   0.0117188
        k(   22) = (  -0.2500000   0.5000000   0.0000000), wk =   0.0937500
        k(   23) = (   0.6250000  -0.3750000   0.8750000), wk =   0.1875000
        k(   24) = (   0.5000000  -0.2500000   0.7500000), wk =   0.0937500
        k(   25) = (   0.7500000  -0.2500000   1.0000000), wk =   0.0937500
        k(   26) = (   0.6250000  -0.1250000   0.8750000), wk =   0.1875000
        k(   27) = (   0.5000000   0.0000000   0.7500000), wk =   0.0937500
        k(   28) = (  -0.2500000  -1.0000000   0.0000000), wk =   0.0468750
        k(   29) = (  -0.5000000  -1.0000000   0.0000000), wk =   0.0234375

     Dense  grid:    18499 G-vectors     FFT dimensions: (  40,  40,  40)

     Estimated max dynamical RAM per process >       2.61 MB

     Estimated total dynamical RAM >     301.98 MB

     Initial potential from superposition of free atoms

     starting charge       7.9987, renormalised to       8.0000
     Starting wfcs are    8 randomized atomic wfcs

     total cpu time spent up to now is        0.7 secs

     per-process dynamical memory:    10.2 Mb

     Self-consistent Calculation

     iteration #  1     ecut=    60.00 Ry     beta= 0.70
     Davidson diagonalization with overlap
     ethr =  1.00E-02,  avg # of iterations =  2.0

     Threshold (ethr) on eigenvalues was too large:
     Diagonalizing with lowered threshold

     Davidson diagonalization with overlap
     ethr =  5.61E-04,  avg # of iterations =  1.1

     total cpu time spent up to now is        0.8 secs

     total energy              =     -19.18772798 Ry
     estimated scf accuracy    <       0.04789495 Ry

     iteration #  2     ecut=    60.00 Ry     beta= 0.70
     Davidson diagonalization with overlap
     ethr =  5.99E-04,  avg # of iterations =  1.0

     total cpu time spent up to now is        0.8 secs

     total energy              =     -19.18918018 Ry
     estimated scf accuracy    <       0.00250145 Ry

     iteration #  3     ecut=    60.00 Ry     beta= 0.70
     Davidson diagonalization with overlap
     ethr =  3.13E-05,  avg # of iterations =  1.9

     total cpu time spent up to now is        0.8 secs

     total energy              =     -19.18949264 Ry
     estimated scf accuracy    <       0.00003136 Ry

     iteration #  4     ecut=    60.00 Ry     beta= 0.70
     Davidson diagonalization with overlap
     ethr =  3.92E-07,  avg # of iterations =  6.1

     total cpu time spent up to now is        0.8 secs

     total energy              =     -19.18955807 Ry
     estimated scf accuracy    <       0.00000035 Ry

     iteration #  5     ecut=    60.00 Ry     beta= 0.70
     Davidson diagonalization with overlap
     ethr =  4.42E-09,  avg # of iterations =  6.6

     total cpu time spent up to now is        0.9 secs

     End of self-consistent calculation

          k = 0.0000 0.0000 0.0000 (  2277 PWs)   bands (ev):

    -6.0636   5.3122   5.3122   5.3122

          k =-0.1250 0.1250-0.1250 (  2313 PWs)   bands (ev):

    -5.8746   3.7269   5.0481   5.0481

          k =-0.2500 0.2500-0.2500 (  2316 PWs)   bands (ev):

    -5.3251   1.5317   4.6085   4.6085

          k =-0.3750 0.3750-0.3750 (  2331 PWs)   bands (ev):

    -4.5102  -0.3418   4.2981   4.2981

          k = 0.5000-0.5000 0.5000 (  2332 PWs)   bands (ev):

    -3.9467  -1.2659   4.1910   4.1910

          k = 0.0000 0.2500 0.0000 (  2309 PWs)   bands (ev):

    -5.8108   3.8837   4.5836   4.5836

          k =-0.1250 0.3750-0.1250 (  2313 PWs)   bands (ev):

    -5.3776   2.1409   4.1087   4.1371

          k =-0.2500 0.5000-0.2500 (  2317 PWs)   bands (ev):

    -4.6301   0.2400   3.5772   3.8529

          k = 0.6250-0.3750 0.6250 (  2326 PWs)   bands (ev):

    -3.8594  -1.0891   3.1657   3.8672

          k = 0.5000-0.2500 0.5000 (  2320 PWs)   bands (ev):

    -4.0749  -0.7564   3.0103   4.1350

          k = 0.3750-0.1250 0.3750 (  2319 PWs)   bands (ev):

    -4.9105   0.8460   3.1755   4.5858

          k = 0.2500 0.0000 0.2500 (  2301 PWs)   bands (ev):

    -5.5638   2.6465   3.8377   5.0303

          k = 0.0000 0.5000 0.0000 (  2293 PWs)   bands (ev):

    -5.0620   1.7723   3.5831   3.5831

          k =-0.1250 0.6250-0.1250 (  2327 PWs)   bands (ev):

    -4.4076   0.4575   2.8625   3.2852

          k = 0.7500-0.2500 0.7500 (  2319 PWs)   bands (ev):

    -3.5675  -0.8486   2.0630   3.2833

          k = 0.6250-0.1250 0.6250 (  2315 PWs)   bands (ev):

    -3.3914  -1.0735   1.6497   3.5729

          k = 0.5000 0.0000 0.5000 (  2325 PWs)   bands (ev):

    -4.1832  -0.0192   1.8904   4.0825

          k = 0.0000 0.7500 0.0000 (  2321 PWs)   bands (ev):

    -3.8485  -0.3141   2.9161   2.9161

          k = 0.8750-0.1250 0.8750 (  2315 PWs)   bands (ev):

    -3.0249  -1.3230   2.1814   2.8437

          k = 0.7500 0.0000 0.7500 (  2319 PWs)   bands (ev):

    -2.6475  -1.6740   1.4111   3.0798

          k = 0.0000-1.0000 0.0000 (  2298 PWs)   bands (ev):

    -2.2320  -2.2320   2.6869   2.6869

          k =-0.2500 0.5000 0.0000 (  2315 PWs)   bands (ev):

    -4.8356   1.0906   2.8389   3.9909

          k = 0.6250-0.3750 0.8750 (  2313 PWs)   bands (ev):

    -4.0243  -0.3307   2.2494   3.5448

          k = 0.5000-0.2500 0.7500 (  2310 PWs)   bands (ev):

    -3.4447  -1.1733   2.1112   3.3413

          k = 0.7500-0.2500 1.0000 (  2337 PWs)   bands (ev):

    -3.6713  -0.5175   2.2430   2.8002

          k = 0.6250-0.1250 0.8750 (  2311 PWs)   bands (ev):

    -2.8822  -1.4067   1.6176   2.6189

          k = 0.5000 0.0000 0.7500 (  2308 PWs)   bands (ev):

    -3.2045  -1.0654   1.4686   2.9576

          k =-0.2500-1.0000 0.0000 (  2312 PWs)   bands (ev):

    -2.1706  -2.1706   2.2001   2.2001

          k =-0.5000-1.0000 0.0000 (  2328 PWs)   bands (ev):

    -2.1042  -2.1042   1.8206   1.8206

     highest occupied level (ev):     5.3122

!    total energy              =     -19.18955923 Ry
     estimated scf accuracy    <          2.6E-09 Ry

     The total energy is the sum of the following terms:
     one-electron contribution =       4.44866682 Ry
     hartree contribution      =       1.19571821 Ry
     xc contribution           =      -8.52236216 Ry
     ewald contribution        =     -16.31158211 Ry

     convergence has been achieved in   5 iterations

     Writing all to output data dir ./si-dia/si-dia.save/ :
     XML data file, charge density, pseudopotentials, collected wavefunctions

     init_run     :      0.37s CPU      0.42s WALL (       1 calls)
     electrons    :      0.16s CPU      0.21s WALL (       1 calls)

     Called by init_run:
     wfcinit      :      0.02s CPU      0.02s WALL (       1 calls)
     potinit      :      0.01s CPU      0.02s WALL (       1 calls)
     hinit0       :      0.33s CPU      0.34s WALL (       1 calls)

     Called by electrons:
     c_bands      :      0.09s CPU      0.11s WALL (       6 calls)
     sum_band     :      0.03s CPU      0.03s WALL (       6 calls)
     v_of_rho     :      0.03s CPU      0.03s WALL (       6 calls)
     newd         :      0.01s CPU      0.01s WALL (       6 calls)
     mix_rho      :      0.00s CPU      0.00s WALL (       6 calls)

     Called by c_bands:
     init_us_2    :      0.00s CPU      0.00s WALL (      52 calls)
     cegterg      :      0.07s CPU      0.09s WALL (      24 calls)

     Called by *egterg:
     cdiaghg      :      0.00s CPU      0.01s WALL (     101 calls)
     h_psi        :      0.07s CPU      0.09s WALL (     109 calls)
     s_psi        :      0.00s CPU      0.00s WALL (     109 calls)
     g_psi        :      0.00s CPU      0.00s WALL (      81 calls)

     Called by h_psi:
     h_psi:calbec :      0.01s CPU      0.01s WALL (     109 calls)
     vloc_psi     :      0.06s CPU      0.07s WALL (     109 calls)
     add_vuspsi   :      0.00s CPU      0.00s WALL (     109 calls)

     General routines
     calbec       :      0.01s CPU      0.01s WALL (     133 calls)
     fft          :      0.31s CPU      0.31s WALL (      67 calls)
     ffts         :      0.00s CPU      0.00s WALL (       6 calls)
     fftw         :      0.07s CPU      0.08s WALL (     842 calls)

     Parallel routines

     PWSCF        :      0.74s CPU      1.00s WALL


   This run was terminated on:  15:32:16   6Feb2026            

=------------------------------------------------------------------------------=
   JOB DONE.
=------------------------------------------------------------------------------=
