
     Program PWSCF v.7.3.1 starts on  9Feb2026 at 14:47:11 

     This program is part of the open-source Quantum ESPRESSO suite
     for quantum simulation of materials; please cite
         "P. Giannozzi et al., J. Phys.:Condens. Matter 21 395502 (2009);
         "P. Giannozzi et al., J. Phys.:Condens. Matter 29 465901 (2017);
         "P. Giannozzi et al., J. Chem. Phys. 152 154105 (2020);
          URL http://www.quantum-espresso.org", 
     in publications or presentations arising from this work. More details at
     http://www.quantum-espresso.org/quote

     Parallel version (MPI), running on   128 processors

     MPI processes distributed on     1 nodes
     241413 MiB available memory on the printing compute node when the environment starts

     Waiting for input...
     Reading input from standard input

     Current dimensions of program PWSCF are:
     Max number of different atomic species (ntypx) = 10
     Max number of k-points (npk) =  40000
     Max angular momentum in pseudopotentials (lmaxx) =  4

     K-points division:     npool     =       8
     R & G space division:  proc/nbgrp/npool/nimage =      16
     Subspace diagonalization in iterative solution of the eigenvalue problem:
     a serial algorithm will be used


     Parallelization info
     --------------------
     sticks:   dense  smooth     PW     G-vecs:    dense   smooth      PW
     Min          57      57     17                 1163     1163     194
     Max          58      58     18                 1168     1168     196
     Sum         925     925    283                18643    18643    3119

     Using Slab Decomposition



     bravais-lattice index     =            2
     lattice parameter (alat)  =      10.5781  a.u.
     unit-cell volume          =     295.9089 (a.u.)^3
     number of atoms/cell      =            2
     number of atomic types    =            1
     number of electrons       =         8.00
     number of Kohn-Sham states=            4
     kinetic-energy cutoff     =      60.0000  Ry
     charge density cutoff     =     240.0000  Ry
     scf convergence threshold =      1.0E-07
     mixing beta               =       0.7000
     number of iterations used =            8  plain     mixing
     Exchange-correlation=  SLA  PW   PBE  PBE
                           (   1   4   3   4   0   0   0)

     celldm(1)=  10.578060  celldm(2)=   0.000000  celldm(3)=   0.000000
     celldm(4)=   0.000000  celldm(5)=   0.000000  celldm(6)=   0.000000

     crystal axes: (cart. coord. in units of alat)
               a(1) = (  -0.500000   0.000000   0.500000 )  
               a(2) = (   0.000000   0.500000   0.500000 )  
               a(3) = (  -0.500000   0.500000   0.000000 )  

     reciprocal axes: (cart. coord. in units 2 pi/alat)
               b(1) = ( -1.000000 -1.000000  1.000000 )  
               b(2) = (  1.000000  1.000000  1.000000 )  
               b(3) = ( -1.000000  1.000000 -1.000000 )  


     PseudoPot. # 1 for Si read from file:
     ./Si.pbe-n-van.UPF
     MD5 check sum: 8a97496598b7338af554a5de8957bfee
     Pseudo is Ultrasoft + core correction, Zval =  4.0
     Generated by new atomic code, or converted to UPF format
     Using radial grid of  899 points,  6 beta functions with: 
                l(1) =   0
                l(2) =   0
                l(3) =   1
                l(4) =   1
                l(5) =   2
                l(6) =   2
     Q(r) pseudized with  8 coefficients,  rinner =    0.900   0.900   0.900
                                                       0.900   0.900

     atomic species   valence    mass     pseudopotential
     Si                4.00    28.08600     Si( 1.00)

     48 Sym. Ops., with inversion, found (24 have fractional translation)



   Cartesian axes

     site n.     atom                  positions (alat units)
         1        Si     tau(   1) = (  -0.7500000   0.7500000   0.7500000  )
         2        Si     tau(   2) = (   0.0000000   0.0000000   0.0000000  )

     number of k points=    29
                       cart. coord. in units 2pi/alat
        k(    1) = (   0.0000000   0.0000000   0.0000000), wk =   0.0039062
        k(    2) = (  -0.1250000   0.1250000  -0.1250000), wk =   0.0312500
        k(    3) = (  -0.2500000   0.2500000  -0.2500000), wk =   0.0312500
        k(    4) = (  -0.3750000   0.3750000  -0.3750000), wk =   0.0312500
        k(    5) = (   0.5000000  -0.5000000   0.5000000), wk =   0.0156250
        k(    6) = (   0.0000000   0.2500000   0.0000000), wk =   0.0234375
        k(    7) = (  -0.1250000   0.3750000  -0.1250000), wk =   0.0937500
        k(    8) = (  -0.2500000   0.5000000  -0.2500000), wk =   0.0937500
        k(    9) = (   0.6250000  -0.3750000   0.6250000), wk =   0.0937500
        k(   10) = (   0.5000000  -0.2500000   0.5000000), wk =   0.0937500
        k(   11) = (   0.3750000  -0.1250000   0.3750000), wk =   0.0937500
        k(   12) = (   0.2500000   0.0000000   0.2500000), wk =   0.0468750
        k(   13) = (   0.0000000   0.5000000   0.0000000), wk =   0.0234375
        k(   14) = (  -0.1250000   0.6250000  -0.1250000), wk =   0.0937500
        k(   15) = (   0.7500000  -0.2500000   0.7500000), wk =   0.0937500
        k(   16) = (   0.6250000  -0.1250000   0.6250000), wk =   0.0937500
        k(   17) = (   0.5000000   0.0000000   0.5000000), wk =   0.0468750
        k(   18) = (   0.0000000   0.7500000   0.0000000), wk =   0.0234375
        k(   19) = (   0.8750000  -0.1250000   0.8750000), wk =   0.0937500
        k(   20) = (   0.7500000   0.0000000   0.7500000), wk =   0.0468750
        k(   21) = (   0.0000000  -1.0000000   0.0000000), wk =   0.0117188
        k(   22) = (  -0.2500000   0.5000000   0.0000000), wk =   0.0937500
        k(   23) = (   0.6250000  -0.3750000   0.8750000), wk =   0.1875000
        k(   24) = (   0.5000000  -0.2500000   0.7500000), wk =   0.0937500
        k(   25) = (   0.7500000  -0.2500000   1.0000000), wk =   0.0937500
        k(   26) = (   0.6250000  -0.1250000   0.8750000), wk =   0.1875000
        k(   27) = (   0.5000000   0.0000000   0.7500000), wk =   0.0937500
        k(   28) = (  -0.2500000  -1.0000000   0.0000000), wk =   0.0468750
        k(   29) = (  -0.5000000  -1.0000000   0.0000000), wk =   0.0234375

     Dense  grid:    18643 G-vectors     FFT dimensions: (  40,  40,  40)

     Estimated max dynamical RAM per process >       2.61 MB

     Estimated total dynamical RAM >     302.70 MB

     Initial potential from superposition of free atoms

     starting charge       7.9987, renormalised to       8.0000
     Starting wfcs are    8 randomized atomic wfcs

     total cpu time spent up to now is        0.7 secs

     per-process dynamical memory:    10.5 Mb

     Self-consistent Calculation

     iteration #  1     ecut=    60.00 Ry     beta= 0.70
     Davidson diagonalization with overlap
     ethr =  1.00E-02,  avg # of iterations =  2.0

     Threshold (ethr) on eigenvalues was too large:
     Diagonalizing with lowered threshold

     Davidson diagonalization with overlap
     ethr =  5.57E-04,  avg # of iterations =  1.1

     total cpu time spent up to now is        0.8 secs

     total energy              =     -19.18743971 Ry
     estimated scf accuracy    <       0.04775171 Ry

     iteration #  2     ecut=    60.00 Ry     beta= 0.70
     Davidson diagonalization with overlap
     ethr =  5.97E-04,  avg # of iterations =  1.0

     total cpu time spent up to now is        0.8 secs

     total energy              =     -19.18888228 Ry
     estimated scf accuracy    <       0.00248895 Ry

     iteration #  3     ecut=    60.00 Ry     beta= 0.70
     Davidson diagonalization with overlap
     ethr =  3.11E-05,  avg # of iterations =  1.9

     total cpu time spent up to now is        0.8 secs

     total energy              =     -19.18918510 Ry
     estimated scf accuracy    <       0.00003195 Ry

     iteration #  4     ecut=    60.00 Ry     beta= 0.70
     Davidson diagonalization with overlap
     ethr =  3.99E-07,  avg # of iterations =  6.1

     total cpu time spent up to now is        0.9 secs

     total energy              =     -19.18925202 Ry
     estimated scf accuracy    <       0.00000034 Ry

     iteration #  5     ecut=    60.00 Ry     beta= 0.70
     Davidson diagonalization with overlap
     ethr =  4.20E-09,  avg # of iterations =  6.6

     total cpu time spent up to now is        0.9 secs

     End of self-consistent calculation

          k = 0.0000 0.0000 0.0000 (  2277 PWs)   bands (ev):

    -6.0730   5.2842   5.2842   5.2842

          k =-0.1250 0.1250-0.1250 (  2319 PWs)   bands (ev):

    -5.8846   3.6988   5.0210   5.0210

          k =-0.2500 0.2500-0.2500 (  2316 PWs)   bands (ev):

    -5.3365   1.5079   4.5824   4.5824

          k =-0.3750 0.3750-0.3750 (  2337 PWs)   bands (ev):

    -4.5241  -0.3609   4.2725   4.2725

          k = 0.5000-0.5000 0.5000 (  2332 PWs)   bands (ev):

    -3.9629  -1.2819   4.1656   4.1656

          k = 0.0000 0.2500 0.0000 (  2309 PWs)   bands (ev):

    -5.8209   3.8521   4.5581   4.5581

          k =-0.1250 0.3750-0.1250 (  2319 PWs)   bands (ev):

    -5.3889   2.1141   4.0844   4.1114

          k =-0.2500 0.5000-0.2500 (  2317 PWs)   bands (ev):

    -4.6435   0.2184   3.5525   3.8291

          k = 0.6250-0.3750 0.6250 (  2332 PWs)   bands (ev):

    -3.8756  -1.1065   3.1421   3.8431

          k = 0.5000-0.2500 0.5000 (  2320 PWs)   bands (ev):

    -4.0902  -0.7750   2.9875   4.1100

          k = 0.3750-0.1250 0.3750 (  2327 PWs)   bands (ev):

    -4.9230   0.8226   3.1531   4.5595

          k = 0.2500 0.0000 0.2500 (  2301 PWs)   bands (ev):

    -5.5745   2.6186   3.8146   5.0028

          k = 0.0000 0.5000 0.0000 (  2293 PWs)   bands (ev):

    -5.0740   1.7433   3.5603   3.5603

          k =-0.1250 0.6250-0.1250 (  2329 PWs)   bands (ev):

    -4.4214   0.4320   2.8416   3.2630

          k = 0.7500-0.2500 0.7500 (  2319 PWs)   bands (ev):

    -3.5840  -0.8699   2.0442   3.2610

          k = 0.6250-0.1250 0.6250 (  2320 PWs)   bands (ev):

    -3.4088  -1.0938   1.6323   3.5497

          k = 0.5000 0.0000 0.5000 (  2325 PWs)   bands (ev):

    -4.1979  -0.0427   1.8729   4.0577

          k = 0.0000 0.7500 0.0000 (  2321 PWs)   bands (ev):

    -3.8637  -0.3386   2.8949   2.8949

          k = 0.8750-0.1250 0.8750 (  2324 PWs)   bands (ev):

    -3.0424  -1.3449   2.1631   2.8226

          k = 0.7500 0.0000 0.7500 (  2319 PWs)   bands (ev):

    -2.6669  -1.6945   1.3957   3.0580

          k = 0.0000-1.0000 0.0000 (  2346 PWs)   bands (ev):

    -2.2515  -2.2515   2.6662   2.6662

          k =-0.2500 0.5000 0.0000 (  2325 PWs)   bands (ev):

    -4.8483   1.0644   2.8186   3.9663

          k = 0.6250-0.3750 0.8750 (  2324 PWs)   bands (ev):

    -4.0394  -0.3528   2.2297   3.5220

          k = 0.5000-0.2500 0.7500 (  2328 PWs)   bands (ev):

    -3.4621  -1.1922   2.0913   3.3193

          k = 0.7500-0.2500 1.0000 (  2337 PWs)   bands (ev):

    -3.6872  -0.5414   2.2244   2.7800

          k = 0.6250-0.1250 0.8750 (  2315 PWs)   bands (ev):

    -2.9007  -1.4281   1.6012   2.5994

          k = 0.5000 0.0000 0.7500 (  2314 PWs)   bands (ev):

    -3.2221  -1.0875   1.4528   2.9369

          k =-0.2500-1.0000 0.0000 (  2312 PWs)   bands (ev):

    -2.1905  -2.1905   2.1818   2.1818

          k =-0.5000-1.0000 0.0000 (  2328 PWs)   bands (ev):

    -2.1247  -2.1247   1.8040   1.8040

     highest occupied level (ev):     5.2842

!    total energy              =     -19.18925320 Ry
     estimated scf accuracy    <          4.0E-09 Ry

     The total energy is the sum of the following terms:
     one-electron contribution =       4.42725703 Ry
     hartree contribution      =       1.19835151 Ry
     xc contribution           =      -8.51910075 Ry
     ewald contribution        =     -16.29576099 Ry

     convergence has been achieved in   5 iterations

     Writing all to output data dir ./si-dia/si-dia.save/ :
     XML data file, charge density, pseudopotentials, collected wavefunctions

     init_run     :      0.37s CPU      0.42s WALL (       1 calls)
     electrons    :      0.16s CPU      0.23s WALL (       1 calls)

     Called by init_run:
     wfcinit      :      0.01s CPU      0.02s WALL (       1 calls)
     potinit      :      0.01s CPU      0.02s WALL (       1 calls)
     hinit0       :      0.32s CPU      0.34s WALL (       1 calls)

     Called by electrons:
     c_bands      :      0.09s CPU      0.13s WALL (       6 calls)
     sum_band     :      0.03s CPU      0.04s WALL (       6 calls)
     v_of_rho     :      0.02s CPU      0.03s WALL (       6 calls)
     newd         :      0.01s CPU      0.01s WALL (       6 calls)
     mix_rho      :      0.00s CPU      0.00s WALL (       6 calls)

     Called by c_bands:
     init_us_2    :      0.00s CPU      0.00s WALL (      52 calls)
     cegterg      :      0.08s CPU      0.09s WALL (      24 calls)

     Called by *egterg:
     cdiaghg      :      0.00s CPU      0.01s WALL (     100 calls)
     h_psi        :      0.06s CPU      0.08s WALL (     108 calls)
     s_psi        :      0.00s CPU      0.00s WALL (     108 calls)
     g_psi        :      0.00s CPU      0.00s WALL (      80 calls)

     Called by h_psi:
     h_psi:calbec :      0.01s CPU      0.01s WALL (     108 calls)
     vloc_psi     :      0.05s CPU      0.07s WALL (     108 calls)
     add_vuspsi   :      0.00s CPU      0.00s WALL (     108 calls)

     General routines
     calbec       :      0.01s CPU      0.01s WALL (     132 calls)
     fft          :      0.30s CPU      0.31s WALL (      67 calls)
     ffts         :      0.00s CPU      0.00s WALL (       6 calls)
     fftw         :      0.06s CPU      0.07s WALL (     844 calls)

     Parallel routines

     PWSCF        :      0.75s CPU      1.04s WALL


   This run was terminated on:  14:47:12   9Feb2026            

=------------------------------------------------------------------------------=
   JOB DONE.
=------------------------------------------------------------------------------=
