
     Program PWSCF v.7.3.1 starts on  6Feb2026 at 15:32:33 

     This program is part of the open-source Quantum ESPRESSO suite
     for quantum simulation of materials; please cite
         "P. Giannozzi et al., J. Phys.:Condens. Matter 21 395502 (2009);
         "P. Giannozzi et al., J. Phys.:Condens. Matter 29 465901 (2017);
         "P. Giannozzi et al., J. Chem. Phys. 152 154105 (2020);
          URL http://www.quantum-espresso.org", 
     in publications or presentations arising from this work. More details at
     http://www.quantum-espresso.org/quote

     Parallel version (MPI), running on   128 processors

     MPI processes distributed on     1 nodes
     241439 MiB available memory on the printing compute node when the environment starts

     Waiting for input...
     Reading input from standard input

     Current dimensions of program PWSCF are:
     Max number of different atomic species (ntypx) = 10
     Max number of k-points (npk) =  40000
     Max angular momentum in pseudopotentials (lmaxx) =  4

     K-points division:     npool     =       8
     R & G space division:  proc/nbgrp/npool/nimage =      16
     Subspace diagonalization in iterative solution of the eigenvalue problem:
     a serial algorithm will be used


     Parallelization info
     --------------------
     sticks:   dense  smooth     PW     G-vecs:    dense   smooth      PW
     Min          58      58     17                 1180     1180     194
     Max          59      59     18                 1181     1181     196
     Sum         931     931    283                18883    18883    3119

     Using Slab Decomposition



     bravais-lattice index     =            2
     lattice parameter (alat)  =      10.6294  a.u.
     unit-cell volume          =     300.2350 (a.u.)^3
     number of atoms/cell      =            2
     number of atomic types    =            1
     number of electrons       =         8.00
     number of Kohn-Sham states=            4
     kinetic-energy cutoff     =      60.0000  Ry
     charge density cutoff     =     240.0000  Ry
     scf convergence threshold =      1.0E-07
     mixing beta               =       0.7000
     number of iterations used =            8  plain     mixing
     Exchange-correlation=  SLA  PW   PBE  PBE
                           (   1   4   3   4   0   0   0)

     celldm(1)=  10.629360  celldm(2)=   0.000000  celldm(3)=   0.000000
     celldm(4)=   0.000000  celldm(5)=   0.000000  celldm(6)=   0.000000

     crystal axes: (cart. coord. in units of alat)
               a(1) = (  -0.500000   0.000000   0.500000 )  
               a(2) = (   0.000000   0.500000   0.500000 )  
               a(3) = (  -0.500000   0.500000   0.000000 )  

     reciprocal axes: (cart. coord. in units 2 pi/alat)
               b(1) = ( -1.000000 -1.000000  1.000000 )  
               b(2) = (  1.000000  1.000000  1.000000 )  
               b(3) = ( -1.000000  1.000000 -1.000000 )  


     PseudoPot. # 1 for Si read from file:
     ./Si.pbe-n-van.UPF
     MD5 check sum: 8a97496598b7338af554a5de8957bfee
     Pseudo is Ultrasoft + core correction, Zval =  4.0
     Generated by new atomic code, or converted to UPF format
     Using radial grid of  899 points,  6 beta functions with: 
                l(1) =   0
                l(2) =   0
                l(3) =   1
                l(4) =   1
                l(5) =   2
                l(6) =   2
     Q(r) pseudized with  8 coefficients,  rinner =    0.900   0.900   0.900
                                                       0.900   0.900

     atomic species   valence    mass     pseudopotential
     Si                4.00    28.08600     Si( 1.00)

     48 Sym. Ops., with inversion, found (24 have fractional translation)



   Cartesian axes

     site n.     atom                  positions (alat units)
         1        Si     tau(   1) = (  -0.7500000   0.7500000   0.7500000  )
         2        Si     tau(   2) = (   0.0000000   0.0000000   0.0000000  )

     number of k points=    29
                       cart. coord. in units 2pi/alat
        k(    1) = (   0.0000000   0.0000000   0.0000000), wk =   0.0039062
        k(    2) = (  -0.1250000   0.1250000  -0.1250000), wk =   0.0312500
        k(    3) = (  -0.2500000   0.2500000  -0.2500000), wk =   0.0312500
        k(    4) = (  -0.3750000   0.3750000  -0.3750000), wk =   0.0312500
        k(    5) = (   0.5000000  -0.5000000   0.5000000), wk =   0.0156250
        k(    6) = (   0.0000000   0.2500000   0.0000000), wk =   0.0234375
        k(    7) = (  -0.1250000   0.3750000  -0.1250000), wk =   0.0937500
        k(    8) = (  -0.2500000   0.5000000  -0.2500000), wk =   0.0937500
        k(    9) = (   0.6250000  -0.3750000   0.6250000), wk =   0.0937500
        k(   10) = (   0.5000000  -0.2500000   0.5000000), wk =   0.0937500
        k(   11) = (   0.3750000  -0.1250000   0.3750000), wk =   0.0937500
        k(   12) = (   0.2500000   0.0000000   0.2500000), wk =   0.0468750
        k(   13) = (   0.0000000   0.5000000   0.0000000), wk =   0.0234375
        k(   14) = (  -0.1250000   0.6250000  -0.1250000), wk =   0.0937500
        k(   15) = (   0.7500000  -0.2500000   0.7500000), wk =   0.0937500
        k(   16) = (   0.6250000  -0.1250000   0.6250000), wk =   0.0937500
        k(   17) = (   0.5000000   0.0000000   0.5000000), wk =   0.0468750
        k(   18) = (   0.0000000   0.7500000   0.0000000), wk =   0.0234375
        k(   19) = (   0.8750000  -0.1250000   0.8750000), wk =   0.0937500
        k(   20) = (   0.7500000   0.0000000   0.7500000), wk =   0.0468750
        k(   21) = (   0.0000000  -1.0000000   0.0000000), wk =   0.0117188
        k(   22) = (  -0.2500000   0.5000000   0.0000000), wk =   0.0937500
        k(   23) = (   0.6250000  -0.3750000   0.8750000), wk =   0.1875000
        k(   24) = (   0.5000000  -0.2500000   0.7500000), wk =   0.0937500
        k(   25) = (   0.7500000  -0.2500000   1.0000000), wk =   0.0937500
        k(   26) = (   0.6250000  -0.1250000   0.8750000), wk =   0.1875000
        k(   27) = (   0.5000000   0.0000000   0.7500000), wk =   0.0937500
        k(   28) = (  -0.2500000  -1.0000000   0.0000000), wk =   0.0468750
        k(   29) = (  -0.5000000  -1.0000000   0.0000000), wk =   0.0234375

     Dense  grid:    18883 G-vectors     FFT dimensions: (  40,  40,  40)

     Estimated max dynamical RAM per process >       2.63 MB

     Estimated total dynamical RAM >     304.07 MB

     Initial potential from superposition of free atoms

     starting charge       7.9987, renormalised to       8.0000
     Starting wfcs are    8 randomized atomic wfcs

     total cpu time spent up to now is        0.7 secs

     per-process dynamical memory:    10.1 Mb

     Self-consistent Calculation

     iteration #  1     ecut=    60.00 Ry     beta= 0.70
     Davidson diagonalization with overlap
     ethr =  1.00E-02,  avg # of iterations =  2.0

     Threshold (ethr) on eigenvalues was too large:
     Diagonalizing with lowered threshold

     Davidson diagonalization with overlap
     ethr =  5.44E-04,  avg # of iterations =  1.1

     total cpu time spent up to now is        0.8 secs

     total energy              =     -19.18584695 Ry
     estimated scf accuracy    <       0.04653292 Ry

     iteration #  2     ecut=    60.00 Ry     beta= 0.70
     Davidson diagonalization with overlap
     ethr =  5.82E-04,  avg # of iterations =  1.0

     total cpu time spent up to now is        0.8 secs

     total energy              =     -19.18719078 Ry
     estimated scf accuracy    <       0.00249788 Ry

     iteration #  3     ecut=    60.00 Ry     beta= 0.70
     Davidson diagonalization with overlap
     ethr =  3.12E-05,  avg # of iterations =  1.9

     total cpu time spent up to now is        0.8 secs

     total energy              =     -19.18748667 Ry
     estimated scf accuracy    <       0.00002984 Ry

     iteration #  4     ecut=    60.00 Ry     beta= 0.70
     Davidson diagonalization with overlap
     ethr =  3.73E-07,  avg # of iterations =  6.1

     total cpu time spent up to now is        0.9 secs

     total energy              =     -19.18755078 Ry
     estimated scf accuracy    <       0.00000048 Ry

     iteration #  5     ecut=    60.00 Ry     beta= 0.70
     Davidson diagonalization with overlap
     ethr =  5.97E-09,  avg # of iterations =  5.9

     total cpu time spent up to now is        0.9 secs

     End of self-consistent calculation

          k = 0.0000 0.0000 0.0000 (  2397 PWs)   bands (ev):

    -6.1201   5.1457   5.1457   5.1457

          k =-0.1250 0.1250-0.1250 (  2343 PWs)   bands (ev):

    -5.9340   3.5585   4.8864   4.8864

          k =-0.2500 0.2500-0.2500 (  2370 PWs)   bands (ev):

    -5.3934   1.3894   4.4529   4.4529

          k =-0.3750 0.3750-0.3750 (  2364 PWs)   bands (ev):

    -4.5933  -0.4557   4.1458   4.1458

          k = 0.5000-0.5000 0.5000 (  2362 PWs)   bands (ev):

    -4.0435  -1.3615   4.0397   4.0397

          k = 0.0000 0.2500 0.0000 (  2353 PWs)   bands (ev):

    -5.8712   3.6948   4.4317   4.4317

          k =-0.1250 0.3750-0.1250 (  2353 PWs)   bands (ev):

    -5.4448   1.9801   3.9640   3.9842

          k =-0.2500 0.5000-0.2500 (  2367 PWs)   bands (ev):

    -4.7101   0.1104   3.4302   3.7107

          k = 0.6250-0.3750 0.6250 (  2356 PWs)   bands (ev):

    -3.9562  -1.1932   3.0250   3.7232

          k = 0.5000-0.2500 0.5000 (  2369 PWs)   bands (ev):

    -4.1665  -0.8676   2.8745   3.9857

          k = 0.3750-0.1250 0.3750 (  2358 PWs)   bands (ev):

    -4.9856   0.7061   3.0423   4.4288

          k = 0.2500 0.0000 0.2500 (  2349 PWs)   bands (ev):

    -5.6280   2.4795   3.7001   4.8663

          k = 0.0000 0.5000 0.0000 (  2333 PWs)   bands (ev):

    -5.1339   1.5989   3.4471   3.4471

          k =-0.1250 0.6250-0.1250 (  2363 PWs)   bands (ev):

    -4.4901   0.3049   2.7380   3.1530

          k = 0.7500-0.2500 0.7500 (  2358 PWs)   bands (ev):

    -3.6662  -0.9758   1.9509   3.1503

          k = 0.6250-0.1250 0.6250 (  2348 PWs)   bands (ev):

    -3.4951  -1.1947   1.5461   3.4345

          k = 0.5000 0.0000 0.5000 (  2369 PWs)   bands (ev):

    -4.2709  -0.1599   1.7863   3.9349

          k = 0.0000 0.7500 0.0000 (  2369 PWs)   bands (ev):

    -3.9394  -0.4599   2.7896   2.7896

          k = 0.8750-0.1250 0.8750 (  2358 PWs)   bands (ev):

    -3.1297  -1.4540   2.0722   2.7179

          k = 0.7500 0.0000 0.7500 (  2330 PWs)   bands (ev):

    -2.7634  -1.7966   1.3195   2.9499

          k = 0.0000-1.0000 0.0000 (  2346 PWs)   bands (ev):

    -2.3484  -2.3484   2.5636   2.5636

          k =-0.2500 0.5000 0.0000 (  2353 PWs)   bands (ev):

    -4.9115   0.9341   2.7176   3.8448

          k = 0.6250-0.3750 0.8750 (  2357 PWs)   bands (ev):

    -4.1148  -0.4627   2.1324   3.4089

          k = 0.5000-0.2500 0.7500 (  2342 PWs)   bands (ev):

    -3.5485  -1.2864   1.9928   3.2102

          k = 0.7500-0.2500 1.0000 (  2372 PWs)   bands (ev):

    -3.7662  -0.6601   2.1318   2.6799

          k = 0.6250-0.1250 0.8750 (  2355 PWs)   bands (ev):

    -2.9929  -1.5345   1.5199   2.5024

          k = 0.5000 0.0000 0.7500 (  2346 PWs)   bands (ev):

    -3.3099  -1.1974   1.3742   2.8341

          k =-0.2500-1.0000 0.0000 (  2364 PWs)   bands (ev):

    -2.2898  -2.2898   2.0908   2.0908

          k =-0.5000-1.0000 0.0000 (  2352 PWs)   bands (ev):

    -2.2268  -2.2268   1.7216   1.7216

     highest occupied level (ev):     5.1457

!    total energy              =     -19.18755189 Ry
     estimated scf accuracy    <          1.9E-09 Ry

     The total energy is the sum of the following terms:
     one-electron contribution =       4.32095461 Ry
     hartree contribution      =       1.21159376 Ry
     xc contribution           =      -8.50298676 Ry
     ewald contribution        =     -16.21711349 Ry

     convergence has been achieved in   5 iterations

     Writing all to output data dir ./si-dia/si-dia.save/ :
     XML data file, charge density, pseudopotentials, collected wavefunctions

     init_run     :      0.37s CPU      0.42s WALL (       1 calls)
     electrons    :      0.15s CPU      0.21s WALL (       1 calls)

     Called by init_run:
     wfcinit      :      0.01s CPU      0.02s WALL (       1 calls)
     potinit      :      0.02s CPU      0.02s WALL (       1 calls)
     hinit0       :      0.32s CPU      0.34s WALL (       1 calls)

     Called by electrons:
     c_bands      :      0.08s CPU      0.11s WALL (       6 calls)
     sum_band     :      0.03s CPU      0.04s WALL (       6 calls)
     v_of_rho     :      0.03s CPU      0.03s WALL (       6 calls)
     newd         :      0.01s CPU      0.01s WALL (       6 calls)
     mix_rho      :      0.00s CPU      0.00s WALL (       6 calls)

     Called by c_bands:
     init_us_2    :      0.00s CPU      0.00s WALL (      52 calls)
     cegterg      :      0.07s CPU      0.08s WALL (      24 calls)

     Called by *egterg:
     cdiaghg      :      0.00s CPU      0.01s WALL (      95 calls)
     h_psi        :      0.07s CPU      0.08s WALL (     103 calls)
     s_psi        :      0.00s CPU      0.00s WALL (     103 calls)
     g_psi        :      0.00s CPU      0.00s WALL (      75 calls)

     Called by h_psi:
     h_psi:calbec :      0.01s CPU      0.01s WALL (     103 calls)
     vloc_psi     :      0.06s CPU      0.07s WALL (     103 calls)
     add_vuspsi   :      0.00s CPU      0.00s WALL (     103 calls)

     General routines
     calbec       :      0.01s CPU      0.01s WALL (     127 calls)
     fft          :      0.30s CPU      0.31s WALL (      67 calls)
     ffts         :      0.00s CPU      0.00s WALL (       6 calls)
     fftw         :      0.06s CPU      0.07s WALL (     814 calls)

     Parallel routines

     PWSCF        :      0.75s CPU      1.03s WALL


   This run was terminated on:  15:32:34   6Feb2026            

=------------------------------------------------------------------------------=
   JOB DONE.
=------------------------------------------------------------------------------=
