
     Program PWSCF v.7.3.1 starts on  9Feb2026 at 14:47:23 

     This program is part of the open-source Quantum ESPRESSO suite
     for quantum simulation of materials; please cite
         "P. Giannozzi et al., J. Phys.:Condens. Matter 21 395502 (2009);
         "P. Giannozzi et al., J. Phys.:Condens. Matter 29 465901 (2017);
         "P. Giannozzi et al., J. Chem. Phys. 152 154105 (2020);
          URL http://www.quantum-espresso.org", 
     in publications or presentations arising from this work. More details at
     http://www.quantum-espresso.org/quote

     Parallel version (MPI), running on   128 processors

     MPI processes distributed on     1 nodes
     241446 MiB available memory on the printing compute node when the environment starts

     Waiting for input...
     Reading input from standard input

     Current dimensions of program PWSCF are:
     Max number of different atomic species (ntypx) = 10
     Max number of k-points (npk) =  40000
     Max angular momentum in pseudopotentials (lmaxx) =  4

     K-points division:     npool     =       8
     R & G space division:  proc/nbgrp/npool/nimage =      16
     Subspace diagonalization in iterative solution of the eigenvalue problem:
     a serial algorithm will be used


     Parallelization info
     --------------------
     sticks:   dense  smooth     PW     G-vecs:    dense   smooth      PW
     Min          58      58     17                 1181     1181     194
     Max          59      59     18                 1183     1183     196
     Sum         931     931    283                18907    18907    3119

     Using Slab Decomposition



     bravais-lattice index     =            2
     lattice parameter (alat)  =      10.6396  a.u.
     unit-cell volume          =     301.1053 (a.u.)^3
     number of atoms/cell      =            2
     number of atomic types    =            1
     number of electrons       =         8.00
     number of Kohn-Sham states=            4
     kinetic-energy cutoff     =      60.0000  Ry
     charge density cutoff     =     240.0000  Ry
     scf convergence threshold =      1.0E-07
     mixing beta               =       0.7000
     number of iterations used =            8  plain     mixing
     Exchange-correlation=  SLA  PW   PBE  PBE
                           (   1   4   3   4   0   0   0)

     celldm(1)=  10.639620  celldm(2)=   0.000000  celldm(3)=   0.000000
     celldm(4)=   0.000000  celldm(5)=   0.000000  celldm(6)=   0.000000

     crystal axes: (cart. coord. in units of alat)
               a(1) = (  -0.500000   0.000000   0.500000 )  
               a(2) = (   0.000000   0.500000   0.500000 )  
               a(3) = (  -0.500000   0.500000   0.000000 )  

     reciprocal axes: (cart. coord. in units 2 pi/alat)
               b(1) = ( -1.000000 -1.000000  1.000000 )  
               b(2) = (  1.000000  1.000000  1.000000 )  
               b(3) = ( -1.000000  1.000000 -1.000000 )  


     PseudoPot. # 1 for Si read from file:
     ./Si.pbe-n-van.UPF
     MD5 check sum: 8a97496598b7338af554a5de8957bfee
     Pseudo is Ultrasoft + core correction, Zval =  4.0
     Generated by new atomic code, or converted to UPF format
     Using radial grid of  899 points,  6 beta functions with: 
                l(1) =   0
                l(2) =   0
                l(3) =   1
                l(4) =   1
                l(5) =   2
                l(6) =   2
     Q(r) pseudized with  8 coefficients,  rinner =    0.900   0.900   0.900
                                                       0.900   0.900

     atomic species   valence    mass     pseudopotential
     Si                4.00    28.08600     Si( 1.00)

     48 Sym. Ops., with inversion, found (24 have fractional translation)



   Cartesian axes

     site n.     atom                  positions (alat units)
         1        Si     tau(   1) = (  -0.7500000   0.7500000   0.7500000  )
         2        Si     tau(   2) = (   0.0000000   0.0000000   0.0000000  )

     number of k points=    29
                       cart. coord. in units 2pi/alat
        k(    1) = (   0.0000000   0.0000000   0.0000000), wk =   0.0039062
        k(    2) = (  -0.1250000   0.1250000  -0.1250000), wk =   0.0312500
        k(    3) = (  -0.2500000   0.2500000  -0.2500000), wk =   0.0312500
        k(    4) = (  -0.3750000   0.3750000  -0.3750000), wk =   0.0312500
        k(    5) = (   0.5000000  -0.5000000   0.5000000), wk =   0.0156250
        k(    6) = (   0.0000000   0.2500000   0.0000000), wk =   0.0234375
        k(    7) = (  -0.1250000   0.3750000  -0.1250000), wk =   0.0937500
        k(    8) = (  -0.2500000   0.5000000  -0.2500000), wk =   0.0937500
        k(    9) = (   0.6250000  -0.3750000   0.6250000), wk =   0.0937500
        k(   10) = (   0.5000000  -0.2500000   0.5000000), wk =   0.0937500
        k(   11) = (   0.3750000  -0.1250000   0.3750000), wk =   0.0937500
        k(   12) = (   0.2500000   0.0000000   0.2500000), wk =   0.0468750
        k(   13) = (   0.0000000   0.5000000   0.0000000), wk =   0.0234375
        k(   14) = (  -0.1250000   0.6250000  -0.1250000), wk =   0.0937500
        k(   15) = (   0.7500000  -0.2500000   0.7500000), wk =   0.0937500
        k(   16) = (   0.6250000  -0.1250000   0.6250000), wk =   0.0937500
        k(   17) = (   0.5000000   0.0000000   0.5000000), wk =   0.0468750
        k(   18) = (   0.0000000   0.7500000   0.0000000), wk =   0.0234375
        k(   19) = (   0.8750000  -0.1250000   0.8750000), wk =   0.0937500
        k(   20) = (   0.7500000   0.0000000   0.7500000), wk =   0.0468750
        k(   21) = (   0.0000000  -1.0000000   0.0000000), wk =   0.0117188
        k(   22) = (  -0.2500000   0.5000000   0.0000000), wk =   0.0937500
        k(   23) = (   0.6250000  -0.3750000   0.8750000), wk =   0.1875000
        k(   24) = (   0.5000000  -0.2500000   0.7500000), wk =   0.0937500
        k(   25) = (   0.7500000  -0.2500000   1.0000000), wk =   0.0937500
        k(   26) = (   0.6250000  -0.1250000   0.8750000), wk =   0.1875000
        k(   27) = (   0.5000000   0.0000000   0.7500000), wk =   0.0937500
        k(   28) = (  -0.2500000  -1.0000000   0.0000000), wk =   0.0468750
        k(   29) = (  -0.5000000  -1.0000000   0.0000000), wk =   0.0234375

     Dense  grid:    18907 G-vectors     FFT dimensions: (  40,  40,  40)

     Estimated max dynamical RAM per process >       2.63 MB

     Estimated total dynamical RAM >     304.10 MB

     Initial potential from superposition of free atoms

     starting charge       7.9987, renormalised to       8.0000
     Starting wfcs are    8 randomized atomic wfcs

     total cpu time spent up to now is        0.7 secs

     per-process dynamical memory:    10.2 Mb

     Self-consistent Calculation

     iteration #  1     ecut=    60.00 Ry     beta= 0.70
     Davidson diagonalization with overlap
     ethr =  1.00E-02,  avg # of iterations =  2.0

     Threshold (ethr) on eigenvalues was too large:
     Diagonalizing with lowered threshold

     Davidson diagonalization with overlap
     ethr =  5.42E-04,  avg # of iterations =  1.1

     total cpu time spent up to now is        0.8 secs

     total energy              =     -19.18548374 Ry
     estimated scf accuracy    <       0.04635368 Ry

     iteration #  2     ecut=    60.00 Ry     beta= 0.70
     Davidson diagonalization with overlap
     ethr =  5.79E-04,  avg # of iterations =  1.0

     total cpu time spent up to now is        0.8 secs

     total energy              =     -19.18681801 Ry
     estimated scf accuracy    <       0.00249332 Ry

     iteration #  3     ecut=    60.00 Ry     beta= 0.70
     Davidson diagonalization with overlap
     ethr =  3.12E-05,  avg # of iterations =  1.9

     total cpu time spent up to now is        0.8 secs

     total energy              =     -19.18711293 Ry
     estimated scf accuracy    <       0.00002963 Ry

     iteration #  4     ecut=    60.00 Ry     beta= 0.70
     Davidson diagonalization with overlap
     ethr =  3.70E-07,  avg # of iterations =  6.2

     total cpu time spent up to now is        0.9 secs

     total energy              =     -19.18717710 Ry
     estimated scf accuracy    <       0.00000049 Ry

     iteration #  5     ecut=    60.00 Ry     beta= 0.70
     Davidson diagonalization with overlap
     ethr =  6.18E-09,  avg # of iterations =  5.8

     total cpu time spent up to now is        0.9 secs

     End of self-consistent calculation

          k = 0.0000 0.0000 0.0000 (  2421 PWs)   bands (ev):

    -6.1294   5.1183   5.1183   5.1183

          k =-0.1250 0.1250-0.1250 (  2355 PWs)   bands (ev):

    -5.9438   3.5306   4.8598   4.8598

          k =-0.2500 0.2500-0.2500 (  2370 PWs)   bands (ev):

    -5.4046   1.3659   4.4273   4.4273

          k =-0.3750 0.3750-0.3750 (  2373 PWs)   bands (ev):

    -4.6070  -0.4745   4.1208   4.1208

          k = 0.5000-0.5000 0.5000 (  2362 PWs)   bands (ev):

    -4.0594  -1.3773   4.0149   4.0149

          k = 0.0000 0.2500 0.0000 (  2353 PWs)   bands (ev):

    -5.8811   3.6635   4.4068   4.4068

          k =-0.1250 0.3750-0.1250 (  2359 PWs)   bands (ev):

    -5.4559   1.9535   3.9402   3.9591

          k =-0.2500 0.5000-0.2500 (  2367 PWs)   bands (ev):

    -4.7232   0.0890   3.4060   3.6873

          k = 0.6250-0.3750 0.6250 (  2360 PWs)   bands (ev):

    -3.9721  -1.2104   3.0019   3.6996

          k = 0.5000-0.2500 0.5000 (  2369 PWs)   bands (ev):

    -4.1815  -0.8860   2.8522   3.9611

          k = 0.3750-0.1250 0.3750 (  2362 PWs)   bands (ev):

    -4.9979   0.6829   3.0204   4.4030

          k = 0.2500 0.0000 0.2500 (  2349 PWs)   bands (ev):

    -5.6386   2.4519   3.6775   4.8393

          k = 0.0000 0.5000 0.0000 (  2333 PWs)   bands (ev):

    -5.1457   1.5703   3.4247   3.4247

          k =-0.1250 0.6250-0.1250 (  2371 PWs)   bands (ev):

    -4.5037   0.2797   2.7176   3.1313

          k = 0.7500-0.2500 0.7500 (  2358 PWs)   bands (ev):

    -3.6824  -0.9968   1.9325   3.1285

          k = 0.6250-0.1250 0.6250 (  2356 PWs)   bands (ev):

    -3.5122  -1.2147   1.5292   3.4118

          k = 0.5000 0.0000 0.5000 (  2369 PWs)   bands (ev):

    -4.2853  -0.1831   1.7692   3.9106

          k = 0.0000 0.7500 0.0000 (  2369 PWs)   bands (ev):

    -3.9543  -0.4839   2.7688   2.7688

          k = 0.8750-0.1250 0.8750 (  2364 PWs)   bands (ev):

    -3.1470  -1.4755   2.0543   2.6972

          k = 0.7500 0.0000 0.7500 (  2330 PWs)   bands (ev):

    -2.7825  -1.8168   1.3045   2.9286

          k = 0.0000-1.0000 0.0000 (  2346 PWs)   bands (ev):

    -2.3675  -2.3675   2.5433   2.5433

          k =-0.2500 0.5000 0.0000 (  2363 PWs)   bands (ev):

    -4.9240   0.9082   2.6977   3.8208

          k = 0.6250-0.3750 0.8750 (  2364 PWs)   bands (ev):

    -4.1297  -0.4845   2.1132   3.3865

          k = 0.5000-0.2500 0.7500 (  2378 PWs)   bands (ev):

    -3.5656  -1.3051   1.9734   3.1886

          k = 0.7500-0.2500 1.0000 (  2372 PWs)   bands (ev):

    -3.7818  -0.6836   2.1135   2.6601

          k = 0.6250-0.1250 0.8750 (  2358 PWs)   bands (ev):

    -3.0112  -1.5555   1.5038   2.4832

          k = 0.5000 0.0000 0.7500 (  2357 PWs)   bands (ev):

    -3.3273  -1.2191   1.3587   2.8138

          k =-0.2500-1.0000 0.0000 (  2364 PWs)   bands (ev):

    -2.3094  -2.3094   2.0728   2.0728

          k =-0.5000-1.0000 0.0000 (  2352 PWs)   bands (ev):

    -2.2469  -2.2469   1.7053   1.7053

     highest occupied level (ev):     5.1183

!    total energy              =     -19.18717820 Ry
     estimated scf accuracy    <          2.1E-09 Ry

     The total energy is the sum of the following terms:
     one-electron contribution =       4.29984755 Ry
     hartree contribution      =       1.21424443 Ry
     xc contribution           =      -8.49979518 Ry
     ewald contribution        =     -16.20147500 Ry

     convergence has been achieved in   5 iterations

     Writing all to output data dir ./si-dia/si-dia.save/ :
     XML data file, charge density, pseudopotentials, collected wavefunctions

     init_run     :      0.38s CPU      0.42s WALL (       1 calls)
     electrons    :      0.15s CPU      0.22s WALL (       1 calls)

     Called by init_run:
     wfcinit      :      0.02s CPU      0.03s WALL (       1 calls)
     potinit      :      0.01s CPU      0.02s WALL (       1 calls)
     hinit0       :      0.32s CPU      0.33s WALL (       1 calls)

     Called by electrons:
     c_bands      :      0.08s CPU      0.11s WALL (       6 calls)
     sum_band     :      0.03s CPU      0.04s WALL (       6 calls)
     v_of_rho     :      0.02s CPU      0.03s WALL (       6 calls)
     newd         :      0.01s CPU      0.01s WALL (       6 calls)
     mix_rho      :      0.00s CPU      0.00s WALL (       6 calls)

     Called by c_bands:
     init_us_2    :      0.00s CPU      0.00s WALL (      52 calls)
     cegterg      :      0.07s CPU      0.08s WALL (      24 calls)

     Called by *egterg:
     cdiaghg      :      0.00s CPU      0.01s WALL (      94 calls)
     h_psi        :      0.07s CPU      0.09s WALL (     102 calls)
     s_psi        :      0.00s CPU      0.00s WALL (     102 calls)
     g_psi        :      0.00s CPU      0.00s WALL (      74 calls)

     Called by h_psi:
     h_psi:calbec :      0.01s CPU      0.01s WALL (     102 calls)
     vloc_psi     :      0.06s CPU      0.07s WALL (     102 calls)
     add_vuspsi   :      0.00s CPU      0.00s WALL (     102 calls)

     General routines
     calbec       :      0.01s CPU      0.01s WALL (     126 calls)
     fft          :      0.30s CPU      0.31s WALL (      67 calls)
     ffts         :      0.00s CPU      0.00s WALL (       6 calls)
     fftw         :      0.06s CPU      0.08s WALL (     808 calls)

     Parallel routines

     PWSCF        :      0.75s CPU      1.08s WALL


   This run was terminated on:  14:47:24   9Feb2026            

=------------------------------------------------------------------------------=
   JOB DONE.
=------------------------------------------------------------------------------=
