
     Program PWSCF v.7.3.1 starts on  9Feb2026 at 14:47:27 

     This program is part of the open-source Quantum ESPRESSO suite
     for quantum simulation of materials; please cite
         "P. Giannozzi et al., J. Phys.:Condens. Matter 21 395502 (2009);
         "P. Giannozzi et al., J. Phys.:Condens. Matter 29 465901 (2017);
         "P. Giannozzi et al., J. Chem. Phys. 152 154105 (2020);
          URL http://www.quantum-espresso.org", 
     in publications or presentations arising from this work. More details at
     http://www.quantum-espresso.org/quote

     Parallel version (MPI), running on   128 processors

     MPI processes distributed on     1 nodes
     241527 MiB available memory on the printing compute node when the environment starts

     Waiting for input...
     Reading input from standard input

     Current dimensions of program PWSCF are:
     Max number of different atomic species (ntypx) = 10
     Max number of k-points (npk) =  40000
     Max angular momentum in pseudopotentials (lmaxx) =  4

     K-points division:     npool     =       8
     R & G space division:  proc/nbgrp/npool/nimage =      16
     Subspace diagonalization in iterative solution of the eigenvalue problem:
     a serial algorithm will be used


     Parallelization info
     --------------------
     sticks:   dense  smooth     PW     G-vecs:    dense   smooth      PW
     Min          58      58     17                 1181     1181     194
     Max          59      59     18                 1183     1183     196
     Sum         931     931    283                18907    18907    3119

     Using Slab Decomposition



     bravais-lattice index     =            2
     lattice parameter (alat)  =      10.6601  a.u.
     unit-cell volume          =     302.8508 (a.u.)^3
     number of atoms/cell      =            2
     number of atomic types    =            1
     number of electrons       =         8.00
     number of Kohn-Sham states=            4
     kinetic-energy cutoff     =      60.0000  Ry
     charge density cutoff     =     240.0000  Ry
     scf convergence threshold =      1.0E-07
     mixing beta               =       0.7000
     number of iterations used =            8  plain     mixing
     Exchange-correlation=  SLA  PW   PBE  PBE
                           (   1   4   3   4   0   0   0)

     celldm(1)=  10.660140  celldm(2)=   0.000000  celldm(3)=   0.000000
     celldm(4)=   0.000000  celldm(5)=   0.000000  celldm(6)=   0.000000

     crystal axes: (cart. coord. in units of alat)
               a(1) = (  -0.500000   0.000000   0.500000 )  
               a(2) = (   0.000000   0.500000   0.500000 )  
               a(3) = (  -0.500000   0.500000   0.000000 )  

     reciprocal axes: (cart. coord. in units 2 pi/alat)
               b(1) = ( -1.000000 -1.000000  1.000000 )  
               b(2) = (  1.000000  1.000000  1.000000 )  
               b(3) = ( -1.000000  1.000000 -1.000000 )  


     PseudoPot. # 1 for Si read from file:
     ./Si.pbe-n-van.UPF
     MD5 check sum: 8a97496598b7338af554a5de8957bfee
     Pseudo is Ultrasoft + core correction, Zval =  4.0
     Generated by new atomic code, or converted to UPF format
     Using radial grid of  899 points,  6 beta functions with: 
                l(1) =   0
                l(2) =   0
                l(3) =   1
                l(4) =   1
                l(5) =   2
                l(6) =   2
     Q(r) pseudized with  8 coefficients,  rinner =    0.900   0.900   0.900
                                                       0.900   0.900

     atomic species   valence    mass     pseudopotential
     Si                4.00    28.08600     Si( 1.00)

     48 Sym. Ops., with inversion, found (24 have fractional translation)



   Cartesian axes

     site n.     atom                  positions (alat units)
         1        Si     tau(   1) = (  -0.7500000   0.7500000   0.7500000  )
         2        Si     tau(   2) = (   0.0000000   0.0000000   0.0000000  )

     number of k points=    29
                       cart. coord. in units 2pi/alat
        k(    1) = (   0.0000000   0.0000000   0.0000000), wk =   0.0039062
        k(    2) = (  -0.1250000   0.1250000  -0.1250000), wk =   0.0312500
        k(    3) = (  -0.2500000   0.2500000  -0.2500000), wk =   0.0312500
        k(    4) = (  -0.3750000   0.3750000  -0.3750000), wk =   0.0312500
        k(    5) = (   0.5000000  -0.5000000   0.5000000), wk =   0.0156250
        k(    6) = (   0.0000000   0.2500000   0.0000000), wk =   0.0234375
        k(    7) = (  -0.1250000   0.3750000  -0.1250000), wk =   0.0937500
        k(    8) = (  -0.2500000   0.5000000  -0.2500000), wk =   0.0937500
        k(    9) = (   0.6250000  -0.3750000   0.6250000), wk =   0.0937500
        k(   10) = (   0.5000000  -0.2500000   0.5000000), wk =   0.0937500
        k(   11) = (   0.3750000  -0.1250000   0.3750000), wk =   0.0937500
        k(   12) = (   0.2500000   0.0000000   0.2500000), wk =   0.0468750
        k(   13) = (   0.0000000   0.5000000   0.0000000), wk =   0.0234375
        k(   14) = (  -0.1250000   0.6250000  -0.1250000), wk =   0.0937500
        k(   15) = (   0.7500000  -0.2500000   0.7500000), wk =   0.0937500
        k(   16) = (   0.6250000  -0.1250000   0.6250000), wk =   0.0937500
        k(   17) = (   0.5000000   0.0000000   0.5000000), wk =   0.0468750
        k(   18) = (   0.0000000   0.7500000   0.0000000), wk =   0.0234375
        k(   19) = (   0.8750000  -0.1250000   0.8750000), wk =   0.0937500
        k(   20) = (   0.7500000   0.0000000   0.7500000), wk =   0.0468750
        k(   21) = (   0.0000000  -1.0000000   0.0000000), wk =   0.0117188
        k(   22) = (  -0.2500000   0.5000000   0.0000000), wk =   0.0937500
        k(   23) = (   0.6250000  -0.3750000   0.8750000), wk =   0.1875000
        k(   24) = (   0.5000000  -0.2500000   0.7500000), wk =   0.0937500
        k(   25) = (   0.7500000  -0.2500000   1.0000000), wk =   0.0937500
        k(   26) = (   0.6250000  -0.1250000   0.8750000), wk =   0.1875000
        k(   27) = (   0.5000000   0.0000000   0.7500000), wk =   0.0937500
        k(   28) = (  -0.2500000  -1.0000000   0.0000000), wk =   0.0468750
        k(   29) = (  -0.5000000  -1.0000000   0.0000000), wk =   0.0234375

     Dense  grid:    18907 G-vectors     FFT dimensions: (  40,  40,  40)

     Estimated max dynamical RAM per process >       2.63 MB

     Estimated total dynamical RAM >     304.21 MB

     Initial potential from superposition of free atoms

     starting charge       7.9987, renormalised to       8.0000
     Starting wfcs are    8 randomized atomic wfcs

     total cpu time spent up to now is        0.7 secs

     per-process dynamical memory:    10.1 Mb

     Self-consistent Calculation

     iteration #  1     ecut=    60.00 Ry     beta= 0.70
     Davidson diagonalization with overlap
     ethr =  1.00E-02,  avg # of iterations =  2.0

     Threshold (ethr) on eigenvalues was too large:
     Diagonalizing with lowered threshold

     Davidson diagonalization with overlap
     ethr =  5.35E-04,  avg # of iterations =  1.1

     total cpu time spent up to now is        0.8 secs

     total energy              =     -19.18476499 Ry
     estimated scf accuracy    <       0.04596269 Ry

     iteration #  2     ecut=    60.00 Ry     beta= 0.70
     Davidson diagonalization with overlap
     ethr =  5.75E-04,  avg # of iterations =  1.0

     total cpu time spent up to now is        0.8 secs

     total energy              =     -19.18605980 Ry
     estimated scf accuracy    <       0.00248016 Ry

     iteration #  3     ecut=    60.00 Ry     beta= 0.70
     Davidson diagonalization with overlap
     ethr =  3.10E-05,  avg # of iterations =  1.9

     total cpu time spent up to now is        0.8 secs

     total energy              =     -19.18633252 Ry
     estimated scf accuracy    <       0.00003038 Ry

     iteration #  4     ecut=    60.00 Ry     beta= 0.70
     Davidson diagonalization with overlap
     ethr =  3.80E-07,  avg # of iterations =  6.1

     total cpu time spent up to now is        0.9 secs

     total energy              =     -19.18639728 Ry
     estimated scf accuracy    <       0.00000034 Ry

     iteration #  5     ecut=    60.00 Ry     beta= 0.70
     Davidson diagonalization with overlap
     ethr =  4.27E-09,  avg # of iterations =  6.4

     total cpu time spent up to now is        0.9 secs

     End of self-consistent calculation

          k = 0.0000 0.0000 0.0000 (  2421 PWs)   bands (ev):

    -6.1478   5.0640   5.0640   5.0640

          k =-0.1250 0.1250-0.1250 (  2370 PWs)   bands (ev):

    -5.9631   3.4752   4.8070   4.8070

          k =-0.2500 0.2500-0.2500 (  2385 PWs)   bands (ev):

    -5.4268   1.3191   4.3765   4.3765

          k =-0.3750 0.3750-0.3750 (  2400 PWs)   bands (ev):

    -4.6341  -0.5120   4.0711   4.0711

          k = 0.5000-0.5000 0.5000 (  2362 PWs)   bands (ev):

    -4.0910  -1.4087   3.9655   3.9655

          k = 0.0000 0.2500 0.0000 (  2373 PWs)   bands (ev):

    -5.9008   3.6013   4.3572   4.3572

          k =-0.1250 0.3750-0.1250 (  2382 PWs)   bands (ev):

    -5.4778   1.9006   3.8929   3.9092

          k =-0.2500 0.5000-0.2500 (  2379 PWs)   bands (ev):

    -4.7494   0.0464   3.3581   3.6409

          k = 0.6250-0.3750 0.6250 (  2380 PWs)   bands (ev):

    -4.0037  -1.2447   2.9560   3.6526

          k = 0.5000-0.2500 0.5000 (  2383 PWs)   bands (ev):

    -4.2114  -0.9226   2.8079   3.9124

          k = 0.3750-0.1250 0.3750 (  2373 PWs)   bands (ev):

    -5.0224   0.6369   2.9770   4.3517

          k = 0.2500 0.0000 0.2500 (  2383 PWs)   bands (ev):

    -5.6596   2.3970   3.6326   4.7858

          k = 0.0000 0.5000 0.0000 (  2413 PWs)   bands (ev):

    -5.1692   1.5135   3.3803   3.3803

          k =-0.1250 0.6250-0.1250 (  2385 PWs)   bands (ev):

    -4.5306   0.2297   2.6770   3.0882

          k = 0.7500-0.2500 0.7500 (  2376 PWs)   bands (ev):

    -3.7147  -1.0386   1.8960   3.0851

          k = 0.6250-0.1250 0.6250 (  2369 PWs)   bands (ev):

    -3.5461  -1.2545   1.4954   3.3666

          k = 0.5000 0.0000 0.5000 (  2385 PWs)   bands (ev):

    -4.3139  -0.2293   1.7352   3.8624

          k = 0.0000 0.7500 0.0000 (  2377 PWs)   bands (ev):

    -3.9840  -0.5316   2.7275   2.7275

          k = 0.8750-0.1250 0.8750 (  2374 PWs)   bands (ev):

    -3.1812  -1.5184   2.0186   2.6562

          k = 0.7500 0.0000 0.7500 (  2364 PWs)   bands (ev):

    -2.8203  -1.8569   1.2746   2.8862

          k = 0.0000-1.0000 0.0000 (  2346 PWs)   bands (ev):

    -2.4056  -2.4056   2.5031   2.5031

          k =-0.2500 0.5000 0.0000 (  2375 PWs)   bands (ev):

    -4.9487   0.8568   2.6581   3.7731

          k = 0.6250-0.3750 0.8750 (  2379 PWs)   bands (ev):

    -4.1592  -0.5278   2.0752   3.3422

          k = 0.5000-0.2500 0.7500 (  2378 PWs)   bands (ev):

    -3.5995  -1.3422   1.9349   3.1458

          k = 0.7500-0.2500 1.0000 (  2385 PWs)   bands (ev):

    -3.8128  -0.7303   2.0772   2.6209

          k = 0.6250-0.1250 0.8750 (  2379 PWs)   bands (ev):

    -3.0473  -1.5973   1.4720   2.4452

          k = 0.5000 0.0000 0.7500 (  2367 PWs)   bands (ev):

    -3.3617  -1.2623   1.3279   2.7735

          k =-0.2500-1.0000 0.0000 (  2378 PWs)   bands (ev):

    -2.3484  -2.3484   2.0372   2.0372

          k =-0.5000-1.0000 0.0000 (  2352 PWs)   bands (ev):

    -2.2870  -2.2870   1.6729   1.6729

     highest occupied level (ev):     5.0640

!    total energy              =     -19.18639840 Ry
     estimated scf accuracy    <          6.0E-09 Ry

     The total energy is the sum of the following terms:
     one-electron contribution =       4.25779616 Ry
     hartree contribution      =       1.21952497 Ry
     xc contribution           =      -8.49343119 Ry
     ewald contribution        =     -16.17028833 Ry

     convergence has been achieved in   5 iterations

     Writing all to output data dir ./si-dia/si-dia.save/ :
     XML data file, charge density, pseudopotentials, collected wavefunctions

     init_run     :      0.37s CPU      0.42s WALL (       1 calls)
     electrons    :      0.16s CPU      0.21s WALL (       1 calls)

     Called by init_run:
     wfcinit      :      0.01s CPU      0.02s WALL (       1 calls)
     potinit      :      0.02s CPU      0.02s WALL (       1 calls)
     hinit0       :      0.32s CPU      0.33s WALL (       1 calls)

     Called by electrons:
     c_bands      :      0.09s CPU      0.11s WALL (       6 calls)
     sum_band     :      0.03s CPU      0.03s WALL (       6 calls)
     v_of_rho     :      0.03s CPU      0.03s WALL (       6 calls)
     newd         :      0.01s CPU      0.01s WALL (       6 calls)
     mix_rho      :      0.00s CPU      0.00s WALL (       6 calls)

     Called by c_bands:
     init_us_2    :      0.00s CPU      0.00s WALL (      52 calls)
     cegterg      :      0.08s CPU      0.09s WALL (      24 calls)

     Called by *egterg:
     cdiaghg      :      0.00s CPU      0.01s WALL (      98 calls)
     h_psi        :      0.07s CPU      0.08s WALL (     106 calls)
     s_psi        :      0.00s CPU      0.00s WALL (     106 calls)
     g_psi        :      0.00s CPU      0.00s WALL (      78 calls)

     Called by h_psi:
     h_psi:calbec :      0.01s CPU      0.01s WALL (     106 calls)
     vloc_psi     :      0.06s CPU      0.07s WALL (     106 calls)
     add_vuspsi   :      0.00s CPU      0.00s WALL (     106 calls)

     General routines
     calbec       :      0.01s CPU      0.01s WALL (     130 calls)
     fft          :      0.30s CPU      0.31s WALL (      67 calls)
     ffts         :      0.00s CPU      0.00s WALL (       6 calls)
     fftw         :      0.06s CPU      0.07s WALL (     826 calls)

     Parallel routines

     PWSCF        :      0.75s CPU      1.03s WALL


   This run was terminated on:  14:47:28   9Feb2026            

=------------------------------------------------------------------------------=
   JOB DONE.
=------------------------------------------------------------------------------=
