
     Program PWSCF v.7.3.1 starts on  6Feb2026 at 15:32:52 

     This program is part of the open-source Quantum ESPRESSO suite
     for quantum simulation of materials; please cite
         "P. Giannozzi et al., J. Phys.:Condens. Matter 21 395502 (2009);
         "P. Giannozzi et al., J. Phys.:Condens. Matter 29 465901 (2017);
         "P. Giannozzi et al., J. Chem. Phys. 152 154105 (2020);
          URL http://www.quantum-espresso.org", 
     in publications or presentations arising from this work. More details at
     http://www.quantum-espresso.org/quote

     Parallel version (MPI), running on   128 processors

     MPI processes distributed on     1 nodes
     241436 MiB available memory on the printing compute node when the environment starts

     Waiting for input...
     Reading input from standard input

     Current dimensions of program PWSCF are:
     Max number of different atomic species (ntypx) = 10
     Max number of k-points (npk) =  40000
     Max angular momentum in pseudopotentials (lmaxx) =  4

     K-points division:     npool     =       8
     R & G space division:  proc/nbgrp/npool/nimage =      16
     Subspace diagonalization in iterative solution of the eigenvalue problem:
     a serial algorithm will be used


     Parallelization info
     --------------------
     sticks:   dense  smooth     PW     G-vecs:    dense   smooth      PW
     Min          59      59     17                 1207     1207     195
     Max          60      60     18                 1210     1210     198
     Sum         955     955    283                19339    19339    3143

     Using Slab Decomposition



     bravais-lattice index     =            2
     lattice parameter (alat)  =      10.7114  a.u.
     unit-cell volume          =     307.2441 (a.u.)^3
     number of atoms/cell      =            2
     number of atomic types    =            1
     number of electrons       =         8.00
     number of Kohn-Sham states=            4
     kinetic-energy cutoff     =      60.0000  Ry
     charge density cutoff     =     240.0000  Ry
     scf convergence threshold =      1.0E-07
     mixing beta               =       0.7000
     number of iterations used =            8  plain     mixing
     Exchange-correlation=  SLA  PW   PBE  PBE
                           (   1   4   3   4   0   0   0)

     celldm(1)=  10.711440  celldm(2)=   0.000000  celldm(3)=   0.000000
     celldm(4)=   0.000000  celldm(5)=   0.000000  celldm(6)=   0.000000

     crystal axes: (cart. coord. in units of alat)
               a(1) = (  -0.500000   0.000000   0.500000 )  
               a(2) = (   0.000000   0.500000   0.500000 )  
               a(3) = (  -0.500000   0.500000   0.000000 )  

     reciprocal axes: (cart. coord. in units 2 pi/alat)
               b(1) = ( -1.000000 -1.000000  1.000000 )  
               b(2) = (  1.000000  1.000000  1.000000 )  
               b(3) = ( -1.000000  1.000000 -1.000000 )  


     PseudoPot. # 1 for Si read from file:
     ./Si.pbe-n-van.UPF
     MD5 check sum: 8a97496598b7338af554a5de8957bfee
     Pseudo is Ultrasoft + core correction, Zval =  4.0
     Generated by new atomic code, or converted to UPF format
     Using radial grid of  899 points,  6 beta functions with: 
                l(1) =   0
                l(2) =   0
                l(3) =   1
                l(4) =   1
                l(5) =   2
                l(6) =   2
     Q(r) pseudized with  8 coefficients,  rinner =    0.900   0.900   0.900
                                                       0.900   0.900

     atomic species   valence    mass     pseudopotential
     Si                4.00    28.08600     Si( 1.00)

     48 Sym. Ops., with inversion, found (24 have fractional translation)



   Cartesian axes

     site n.     atom                  positions (alat units)
         1        Si     tau(   1) = (  -0.7500000   0.7500000   0.7500000  )
         2        Si     tau(   2) = (   0.0000000   0.0000000   0.0000000  )

     number of k points=    29
                       cart. coord. in units 2pi/alat
        k(    1) = (   0.0000000   0.0000000   0.0000000), wk =   0.0039062
        k(    2) = (  -0.1250000   0.1250000  -0.1250000), wk =   0.0312500
        k(    3) = (  -0.2500000   0.2500000  -0.2500000), wk =   0.0312500
        k(    4) = (  -0.3750000   0.3750000  -0.3750000), wk =   0.0312500
        k(    5) = (   0.5000000  -0.5000000   0.5000000), wk =   0.0156250
        k(    6) = (   0.0000000   0.2500000   0.0000000), wk =   0.0234375
        k(    7) = (  -0.1250000   0.3750000  -0.1250000), wk =   0.0937500
        k(    8) = (  -0.2500000   0.5000000  -0.2500000), wk =   0.0937500
        k(    9) = (   0.6250000  -0.3750000   0.6250000), wk =   0.0937500
        k(   10) = (   0.5000000  -0.2500000   0.5000000), wk =   0.0937500
        k(   11) = (   0.3750000  -0.1250000   0.3750000), wk =   0.0937500
        k(   12) = (   0.2500000   0.0000000   0.2500000), wk =   0.0468750
        k(   13) = (   0.0000000   0.5000000   0.0000000), wk =   0.0234375
        k(   14) = (  -0.1250000   0.6250000  -0.1250000), wk =   0.0937500
        k(   15) = (   0.7500000  -0.2500000   0.7500000), wk =   0.0937500
        k(   16) = (   0.6250000  -0.1250000   0.6250000), wk =   0.0937500
        k(   17) = (   0.5000000   0.0000000   0.5000000), wk =   0.0468750
        k(   18) = (   0.0000000   0.7500000   0.0000000), wk =   0.0234375
        k(   19) = (   0.8750000  -0.1250000   0.8750000), wk =   0.0937500
        k(   20) = (   0.7500000   0.0000000   0.7500000), wk =   0.0468750
        k(   21) = (   0.0000000  -1.0000000   0.0000000), wk =   0.0117188
        k(   22) = (  -0.2500000   0.5000000   0.0000000), wk =   0.0937500
        k(   23) = (   0.6250000  -0.3750000   0.8750000), wk =   0.1875000
        k(   24) = (   0.5000000  -0.2500000   0.7500000), wk =   0.0937500
        k(   25) = (   0.7500000  -0.2500000   1.0000000), wk =   0.0937500
        k(   26) = (   0.6250000  -0.1250000   0.8750000), wk =   0.1875000
        k(   27) = (   0.5000000   0.0000000   0.7500000), wk =   0.0937500
        k(   28) = (  -0.2500000  -1.0000000   0.0000000), wk =   0.0468750
        k(   29) = (  -0.5000000  -1.0000000   0.0000000), wk =   0.0234375

     Dense  grid:    19339 G-vectors     FFT dimensions: (  40,  40,  40)

     Estimated max dynamical RAM per process >       2.65 MB

     Estimated total dynamical RAM >     306.66 MB

     Initial potential from superposition of free atoms

     starting charge       7.9987, renormalised to       8.0000
     Starting wfcs are    8 randomized atomic wfcs

     total cpu time spent up to now is        0.7 secs

     per-process dynamical memory:    10.1 Mb

     Self-consistent Calculation

     iteration #  1     ecut=    60.00 Ry     beta= 0.70
     Davidson diagonalization with overlap
     ethr =  1.00E-02,  avg # of iterations =  2.0

     Threshold (ethr) on eigenvalues was too large:
     Diagonalizing with lowered threshold

     Davidson diagonalization with overlap
     ethr =  5.23E-04,  avg # of iterations =  1.1

     total cpu time spent up to now is        0.8 secs

     total energy              =     -19.18272233 Ry
     estimated scf accuracy    <       0.04469836 Ry

     iteration #  2     ecut=    60.00 Ry     beta= 0.70
     Davidson diagonalization with overlap
     ethr =  5.59E-04,  avg # of iterations =  1.0

     total cpu time spent up to now is        0.8 secs

     total energy              =     -19.18392499 Ry
     estimated scf accuracy    <       0.00250095 Ry

     iteration #  3     ecut=    60.00 Ry     beta= 0.70
     Davidson diagonalization with overlap
     ethr =  3.13E-05,  avg # of iterations =  1.9

     total cpu time spent up to now is        0.8 secs

     total energy              =     -19.18420102 Ry
     estimated scf accuracy    <       0.00002760 Ry

     iteration #  4     ecut=    60.00 Ry     beta= 0.70
     Davidson diagonalization with overlap
     ethr =  3.45E-07,  avg # of iterations =  6.3

     total cpu time spent up to now is        0.9 secs

     total energy              =     -19.18426416 Ry
     estimated scf accuracy    <       0.00000046 Ry

     iteration #  5     ecut=    60.00 Ry     beta= 0.70
     Davidson diagonalization with overlap
     ethr =  5.70E-09,  avg # of iterations =  5.8

     total cpu time spent up to now is        0.9 secs

     End of self-consistent calculation

          k = 0.0000 0.0000 0.0000 (  2421 PWs)   bands (ev):

    -6.1936   4.9293   4.9293   4.9293

          k =-0.1250 0.1250-0.1250 (  2406 PWs)   bands (ev):

    -6.0113   3.3369   4.6762   4.6762

          k =-0.2500 0.2500-0.2500 (  2427 PWs)   bands (ev):

    -5.4822   1.2026   4.2507   4.2507

          k =-0.3750 0.3750-0.3750 (  2427 PWs)   bands (ev):

    -4.7016  -0.6051   3.9481   3.9481

          k = 0.5000-0.5000 0.5000 (  2392 PWs)   bands (ev):

    -4.1693  -1.4870   3.8434   3.8434

          k = 0.0000 0.2500 0.0000 (  2409 PWs)   bands (ev):

    -5.9497   3.4465   4.2343   4.2343

          k =-0.1250 0.3750-0.1250 (  2423 PWs)   bands (ev):

    -5.5322   1.7688   3.7759   3.7859

          k =-0.2500 0.5000-0.2500 (  2427 PWs)   bands (ev):

    -4.8143  -0.0596   3.2395   3.5260

          k = 0.6250-0.3750 0.6250 (  2416 PWs)   bands (ev):

    -4.0822  -1.3300   2.8425   3.5363

          k = 0.5000-0.2500 0.5000 (  2411 PWs)   bands (ev):

    -4.2856  -1.0136   2.6983   3.7918

          k = 0.3750-0.1250 0.3750 (  2413 PWs)   bands (ev):

    -5.0833   0.5224   2.8695   4.2249

          k = 0.2500 0.0000 0.2500 (  2437 PWs)   bands (ev):

    -5.7117   2.2602   3.5213   4.6532

          k = 0.0000 0.5000 0.0000 (  2429 PWs)   bands (ev):

    -5.2275   1.3722   3.2704   3.2704

          k =-0.1250 0.6250-0.1250 (  2407 PWs)   bands (ev):

    -4.5976   0.1054   2.5765   2.9815

          k = 0.7500-0.2500 0.7500 (  2408 PWs)   bands (ev):

    -3.7947  -1.1425   1.8057   2.9776

          k = 0.6250-0.1250 0.6250 (  2399 PWs)   bands (ev):

    -3.6301  -1.3536   1.4121   3.2548

          k = 0.5000 0.0000 0.5000 (  2395 PWs)   bands (ev):

    -4.3851  -0.3439   1.6512   3.7432

          k = 0.0000 0.7500 0.0000 (  2405 PWs)   bands (ev):

    -4.0578  -0.6501   2.6254   2.6254

          k = 0.8750-0.1250 0.8750 (  2409 PWs)   bands (ev):

    -3.2664  -1.6248   1.9303   2.5547

          k = 0.7500 0.0000 0.7500 (  2418 PWs)   bands (ev):

    -2.9142  -1.9566   1.2005   2.7814

          k = 0.0000-1.0000 0.0000 (  2450 PWs)   bands (ev):

    -2.5001  -2.5001   2.4035   2.4035

          k =-0.2500 0.5000 0.0000 (  2428 PWs)   bands (ev):

    -5.0103   0.7291   2.5601   3.6551

          k = 0.6250-0.3750 0.8750 (  2410 PWs)   bands (ev):

    -4.2326  -0.6356   1.9810   3.2323

          k = 0.5000-0.2500 0.7500 (  2406 PWs)   bands (ev):

    -3.6836  -1.4349   1.8397   3.0397

          k = 0.7500-0.2500 1.0000 (  2403 PWs)   bands (ev):

    -3.8898  -0.8462   1.9873   2.5236

          k = 0.6250-0.1250 0.8750 (  2406 PWs)   bands (ev):

    -3.1371  -1.7012   1.3930   2.3509

          k = 0.5000 0.0000 0.7500 (  2415 PWs)   bands (ev):

    -3.4472  -1.3696   1.2516   2.6737

          k =-0.2500-1.0000 0.0000 (  2402 PWs)   bands (ev):

    -2.4452  -2.4452   1.9488   1.9488

          k =-0.5000-1.0000 0.0000 (  2400 PWs)   bands (ev):

    -2.3864  -2.3864   1.5927   1.5927

     highest occupied level (ev):     4.9293

!    total energy              =     -19.18426511 Ry
     estimated scf accuracy    <          1.6E-09 Ry

     The total energy is the sum of the following terms:
     one-electron contribution =       4.15349874 Ry
     hartree contribution      =       1.23282838 Ry
     xc contribution           =      -8.47774781 Ry
     ewald contribution        =     -16.09284442 Ry

     convergence has been achieved in   5 iterations

     Writing all to output data dir ./si-dia/si-dia.save/ :
     XML data file, charge density, pseudopotentials, collected wavefunctions

     init_run     :      0.37s CPU      0.43s WALL (       1 calls)
     electrons    :      0.14s CPU      0.21s WALL (       1 calls)

     Called by init_run:
     wfcinit      :      0.01s CPU      0.02s WALL (       1 calls)
     potinit      :      0.01s CPU      0.03s WALL (       1 calls)
     hinit0       :      0.33s CPU      0.34s WALL (       1 calls)

     Called by electrons:
     c_bands      :      0.08s CPU      0.11s WALL (       6 calls)
     sum_band     :      0.02s CPU      0.03s WALL (       6 calls)
     v_of_rho     :      0.02s CPU      0.03s WALL (       6 calls)
     newd         :      0.01s CPU      0.01s WALL (       6 calls)
     mix_rho      :      0.00s CPU      0.00s WALL (       6 calls)

     Called by c_bands:
     init_us_2    :      0.00s CPU      0.00s WALL (      52 calls)
     cegterg      :      0.07s CPU      0.09s WALL (      24 calls)

     Called by *egterg:
     cdiaghg      :      0.00s CPU      0.01s WALL (      97 calls)
     h_psi        :      0.06s CPU      0.08s WALL (     105 calls)
     s_psi        :      0.00s CPU      0.00s WALL (     105 calls)
     g_psi        :      0.00s CPU      0.00s WALL (      77 calls)

     Called by h_psi:
     h_psi:calbec :      0.00s CPU      0.01s WALL (     105 calls)
     vloc_psi     :      0.05s CPU      0.07s WALL (     105 calls)
     add_vuspsi   :      0.00s CPU      0.00s WALL (     105 calls)

     General routines
     calbec       :      0.01s CPU      0.01s WALL (     129 calls)
     fft          :      0.30s CPU      0.31s WALL (      67 calls)
     ffts         :      0.00s CPU      0.00s WALL (       6 calls)
     fftw         :      0.05s CPU      0.07s WALL (     828 calls)

     Parallel routines

     PWSCF        :      0.71s CPU      1.01s WALL


   This run was terminated on:  15:32:53   6Feb2026            

=------------------------------------------------------------------------------=
   JOB DONE.
=------------------------------------------------------------------------------=
