
     Program PWSCF v.7.3.1 starts on  9Feb2026 at 14:47:42 

     This program is part of the open-source Quantum ESPRESSO suite
     for quantum simulation of materials; please cite
         "P. Giannozzi et al., J. Phys.:Condens. Matter 21 395502 (2009);
         "P. Giannozzi et al., J. Phys.:Condens. Matter 29 465901 (2017);
         "P. Giannozzi et al., J. Chem. Phys. 152 154105 (2020);
          URL http://www.quantum-espresso.org", 
     in publications or presentations arising from this work. More details at
     http://www.quantum-espresso.org/quote

     Parallel version (MPI), running on   128 processors

     MPI processes distributed on     1 nodes
     241414 MiB available memory on the printing compute node when the environment starts

     Waiting for input...
     Reading input from standard input

     Current dimensions of program PWSCF are:
     Max number of different atomic species (ntypx) = 10
     Max number of k-points (npk) =  40000
     Max angular momentum in pseudopotentials (lmaxx) =  4

     K-points division:     npool     =       8
     R & G space division:  proc/nbgrp/npool/nimage =      16
     Subspace diagonalization in iterative solution of the eigenvalue problem:
     a serial algorithm will be used


     Parallelization info
     --------------------
     sticks:   dense  smooth     PW     G-vecs:    dense   smooth      PW
     Min          59      59     17                 1207     1207     195
     Max          60      60     18                 1210     1210     198
     Sum         955     955    283                19339    19339    3143

     Using Slab Decomposition



     bravais-lattice index     =            2
     lattice parameter (alat)  =      10.7217  a.u.
     unit-cell volume          =     308.1279 (a.u.)^3
     number of atoms/cell      =            2
     number of atomic types    =            1
     number of electrons       =         8.00
     number of Kohn-Sham states=            4
     kinetic-energy cutoff     =      60.0000  Ry
     charge density cutoff     =     240.0000  Ry
     scf convergence threshold =      1.0E-07
     mixing beta               =       0.7000
     number of iterations used =            8  plain     mixing
     Exchange-correlation=  SLA  PW   PBE  PBE
                           (   1   4   3   4   0   0   0)

     celldm(1)=  10.721700  celldm(2)=   0.000000  celldm(3)=   0.000000
     celldm(4)=   0.000000  celldm(5)=   0.000000  celldm(6)=   0.000000

     crystal axes: (cart. coord. in units of alat)
               a(1) = (  -0.500000   0.000000   0.500000 )  
               a(2) = (   0.000000   0.500000   0.500000 )  
               a(3) = (  -0.500000   0.500000   0.000000 )  

     reciprocal axes: (cart. coord. in units 2 pi/alat)
               b(1) = ( -1.000000 -1.000000  1.000000 )  
               b(2) = (  1.000000  1.000000  1.000000 )  
               b(3) = ( -1.000000  1.000000 -1.000000 )  


     PseudoPot. # 1 for Si read from file:
     ./Si.pbe-n-van.UPF
     MD5 check sum: 8a97496598b7338af554a5de8957bfee
     Pseudo is Ultrasoft + core correction, Zval =  4.0
     Generated by new atomic code, or converted to UPF format
     Using radial grid of  899 points,  6 beta functions with: 
                l(1) =   0
                l(2) =   0
                l(3) =   1
                l(4) =   1
                l(5) =   2
                l(6) =   2
     Q(r) pseudized with  8 coefficients,  rinner =    0.900   0.900   0.900
                                                       0.900   0.900

     atomic species   valence    mass     pseudopotential
     Si                4.00    28.08600     Si( 1.00)

     48 Sym. Ops., with inversion, found (24 have fractional translation)



   Cartesian axes

     site n.     atom                  positions (alat units)
         1        Si     tau(   1) = (  -0.7500000   0.7500000   0.7500000  )
         2        Si     tau(   2) = (   0.0000000   0.0000000   0.0000000  )

     number of k points=    29
                       cart. coord. in units 2pi/alat
        k(    1) = (   0.0000000   0.0000000   0.0000000), wk =   0.0039062
        k(    2) = (  -0.1250000   0.1250000  -0.1250000), wk =   0.0312500
        k(    3) = (  -0.2500000   0.2500000  -0.2500000), wk =   0.0312500
        k(    4) = (  -0.3750000   0.3750000  -0.3750000), wk =   0.0312500
        k(    5) = (   0.5000000  -0.5000000   0.5000000), wk =   0.0156250
        k(    6) = (   0.0000000   0.2500000   0.0000000), wk =   0.0234375
        k(    7) = (  -0.1250000   0.3750000  -0.1250000), wk =   0.0937500
        k(    8) = (  -0.2500000   0.5000000  -0.2500000), wk =   0.0937500
        k(    9) = (   0.6250000  -0.3750000   0.6250000), wk =   0.0937500
        k(   10) = (   0.5000000  -0.2500000   0.5000000), wk =   0.0937500
        k(   11) = (   0.3750000  -0.1250000   0.3750000), wk =   0.0937500
        k(   12) = (   0.2500000   0.0000000   0.2500000), wk =   0.0468750
        k(   13) = (   0.0000000   0.5000000   0.0000000), wk =   0.0234375
        k(   14) = (  -0.1250000   0.6250000  -0.1250000), wk =   0.0937500
        k(   15) = (   0.7500000  -0.2500000   0.7500000), wk =   0.0937500
        k(   16) = (   0.6250000  -0.1250000   0.6250000), wk =   0.0937500
        k(   17) = (   0.5000000   0.0000000   0.5000000), wk =   0.0468750
        k(   18) = (   0.0000000   0.7500000   0.0000000), wk =   0.0234375
        k(   19) = (   0.8750000  -0.1250000   0.8750000), wk =   0.0937500
        k(   20) = (   0.7500000   0.0000000   0.7500000), wk =   0.0468750
        k(   21) = (   0.0000000  -1.0000000   0.0000000), wk =   0.0117188
        k(   22) = (  -0.2500000   0.5000000   0.0000000), wk =   0.0937500
        k(   23) = (   0.6250000  -0.3750000   0.8750000), wk =   0.1875000
        k(   24) = (   0.5000000  -0.2500000   0.7500000), wk =   0.0937500
        k(   25) = (   0.7500000  -0.2500000   1.0000000), wk =   0.0937500
        k(   26) = (   0.6250000  -0.1250000   0.8750000), wk =   0.1875000
        k(   27) = (   0.5000000   0.0000000   0.7500000), wk =   0.0937500
        k(   28) = (  -0.2500000  -1.0000000   0.0000000), wk =   0.0468750
        k(   29) = (  -0.5000000  -1.0000000   0.0000000), wk =   0.0234375

     Dense  grid:    19339 G-vectors     FFT dimensions: (  40,  40,  40)

     Estimated max dynamical RAM per process >       2.66 MB

     Estimated total dynamical RAM >     306.77 MB

     Initial potential from superposition of free atoms

     starting charge       7.9987, renormalised to       8.0000
     Starting wfcs are    8 randomized atomic wfcs

     total cpu time spent up to now is        0.7 secs

     per-process dynamical memory:    10.3 Mb

     Self-consistent Calculation

     iteration #  1     ecut=    60.00 Ry     beta= 0.70
     Davidson diagonalization with overlap
     ethr =  1.00E-02,  avg # of iterations =  2.0

     Threshold (ethr) on eigenvalues was too large:
     Diagonalizing with lowered threshold

     Davidson diagonalization with overlap
     ethr =  5.20E-04,  avg # of iterations =  1.1

     total cpu time spent up to now is        0.8 secs

     total energy              =     -19.18228511 Ry
     estimated scf accuracy    <       0.04446061 Ry

     iteration #  2     ecut=    60.00 Ry     beta= 0.70
     Davidson diagonalization with overlap
     ethr =  5.56E-04,  avg # of iterations =  1.0

     total cpu time spent up to now is        0.8 secs

     total energy              =     -19.18346903 Ry
     estimated scf accuracy    <       0.00250357 Ry

     iteration #  3     ecut=    60.00 Ry     beta= 0.70
     Davidson diagonalization with overlap
     ethr =  3.13E-05,  avg # of iterations =  1.9

     total cpu time spent up to now is        0.8 secs

     total energy              =     -19.18374648 Ry
     estimated scf accuracy    <       0.00002707 Ry

     iteration #  4     ecut=    60.00 Ry     beta= 0.70
     Davidson diagonalization with overlap
     ethr =  3.38E-07,  avg # of iterations =  6.4

     total cpu time spent up to now is        0.8 secs

     total energy              =     -19.18380690 Ry
     estimated scf accuracy    <       0.00000052 Ry

     iteration #  5     ecut=    60.00 Ry     beta= 0.70
     Davidson diagonalization with overlap
     ethr =  6.56E-09,  avg # of iterations =  5.7

     total cpu time spent up to now is        0.9 secs

     End of self-consistent calculation

          k = 0.0000 0.0000 0.0000 (  2421 PWs)   bands (ev):

    -6.2026   4.9027   4.9027   4.9027

          k =-0.1250 0.1250-0.1250 (  2418 PWs)   bands (ev):

    -6.0208   3.3094   4.6503   4.6503

          k =-0.2500 0.2500-0.2500 (  2439 PWs)   bands (ev):

    -5.4931   1.1795   4.2258   4.2258

          k =-0.3750 0.3750-0.3750 (  2428 PWs)   bands (ev):

    -4.7149  -0.6237   3.9238   3.9238

          k = 0.5000-0.5000 0.5000 (  2392 PWs)   bands (ev):

    -4.1848  -1.5026   3.8192   3.8192

          k = 0.0000 0.2500 0.0000 (  2421 PWs)   bands (ev):

    -5.9594   3.4157   4.2100   4.2100

          k =-0.1250 0.3750-0.1250 (  2429 PWs)   bands (ev):

    -5.5430   1.7426   3.7527   3.7615

          k =-0.2500 0.5000-0.2500 (  2427 PWs)   bands (ev):

    -4.8271  -0.0807   3.2160   3.5032

          k = 0.6250-0.3750 0.6250 (  2420 PWs)   bands (ev):

    -4.0977  -1.3470   2.8201   3.5133

          k = 0.5000-0.2500 0.5000 (  2420 PWs)   bands (ev):

    -4.3003  -1.0318   2.6766   3.7679

          k = 0.3750-0.1250 0.3750 (  2429 PWs)   bands (ev):

    -5.0954   0.4996   2.8482   4.1998

          k = 0.2500 0.0000 0.2500 (  2437 PWs)   bands (ev):

    -5.7220   2.2330   3.4992   4.6270

          k = 0.0000 0.5000 0.0000 (  2429 PWs)   bands (ev):

    -5.2391   1.3442   3.2486   3.2486

          k =-0.1250 0.6250-0.1250 (  2417 PWs)   bands (ev):

    -4.6109   0.0807   2.5566   2.9604

          k = 0.7500-0.2500 0.7500 (  2416 PWs)   bands (ev):

    -3.8106  -1.1631   1.7878   2.9564

          k = 0.6250-0.1250 0.6250 (  2409 PWs)   bands (ev):

    -3.6468  -1.3732   1.3956   3.2327

          k = 0.5000 0.0000 0.5000 (  2421 PWs)   bands (ev):

    -4.3992  -0.3667   1.6345   3.7196

          k = 0.0000 0.7500 0.0000 (  2413 PWs)   bands (ev):

    -4.0724  -0.6736   2.6052   2.6052

          k = 0.8750-0.1250 0.8750 (  2420 PWs)   bands (ev):

    -3.2833  -1.6459   1.9128   2.5346

          k = 0.7500 0.0000 0.7500 (  2418 PWs)   bands (ev):

    -2.9328  -1.9764   1.1858   2.7606

          k = 0.0000-1.0000 0.0000 (  2450 PWs)   bands (ev):

    -2.5188  -2.5188   2.3838   2.3838

          k =-0.2500 0.5000 0.0000 (  2428 PWs)   bands (ev):

    -5.0225   0.7038   2.5407   3.6317

          k = 0.6250-0.3750 0.8750 (  2420 PWs)   bands (ev):

    -4.2472  -0.6570   1.9624   3.2105

          k = 0.5000-0.2500 0.7500 (  2406 PWs)   bands (ev):

    -3.7002  -1.4533   1.8209   3.0187

          k = 0.7500-0.2500 1.0000 (  2415 PWs)   bands (ev):

    -3.9050  -0.8691   1.9696   2.5043

          k = 0.6250-0.1250 0.8750 (  2414 PWs)   bands (ev):

    -3.1549  -1.7218   1.3774   2.3322

          k = 0.5000 0.0000 0.7500 (  2415 PWs)   bands (ev):

    -3.4641  -1.3909   1.2365   2.6539

          k =-0.2500-1.0000 0.0000 (  2410 PWs)   bands (ev):

    -2.4644  -2.4644   1.9313   1.9313

          k =-0.5000-1.0000 0.0000 (  2400 PWs)   bands (ev):

    -2.4061  -2.4061   1.5769   1.5769

     highest occupied level (ev):     4.9027

!    total energy              =     -19.18380784 Ry
     estimated scf accuracy    <          1.1E-09 Ry

     The total energy is the sum of the following terms:
     one-electron contribution =       4.13278517 Ry
     hartree contribution      =       1.23549548 Ry
     xc contribution           =      -8.47464391 Ry
     ewald contribution        =     -16.07744457 Ry

     convergence has been achieved in   5 iterations

     Writing all to output data dir ./si-dia/si-dia.save/ :
     XML data file, charge density, pseudopotentials, collected wavefunctions

     init_run     :      0.38s CPU      0.42s WALL (       1 calls)
     electrons    :      0.16s CPU      0.21s WALL (       1 calls)

     Called by init_run:
     wfcinit      :      0.01s CPU      0.02s WALL (       1 calls)
     potinit      :      0.01s CPU      0.02s WALL (       1 calls)
     hinit0       :      0.33s CPU      0.33s WALL (       1 calls)

     Called by electrons:
     c_bands      :      0.09s CPU      0.11s WALL (       6 calls)
     sum_band     :      0.04s CPU      0.04s WALL (       6 calls)
     v_of_rho     :      0.02s CPU      0.03s WALL (       6 calls)
     newd         :      0.01s CPU      0.02s WALL (       6 calls)
     mix_rho      :      0.00s CPU      0.00s WALL (       6 calls)

     Called by c_bands:
     init_us_2    :      0.00s CPU      0.00s WALL (      52 calls)
     cegterg      :      0.07s CPU      0.08s WALL (      24 calls)

     Called by *egterg:
     cdiaghg      :      0.00s CPU      0.01s WALL (      99 calls)
     h_psi        :      0.07s CPU      0.08s WALL (     107 calls)
     s_psi        :      0.00s CPU      0.00s WALL (     107 calls)
     g_psi        :      0.00s CPU      0.00s WALL (      79 calls)

     Called by h_psi:
     h_psi:calbec :      0.01s CPU      0.01s WALL (     107 calls)
     vloc_psi     :      0.06s CPU      0.07s WALL (     107 calls)
     add_vuspsi   :      0.00s CPU      0.00s WALL (     107 calls)

     General routines
     calbec       :      0.01s CPU      0.01s WALL (     131 calls)
     fft          :      0.30s CPU      0.30s WALL (      67 calls)
     ffts         :      0.00s CPU      0.00s WALL (       6 calls)
     fftw         :      0.06s CPU      0.07s WALL (     832 calls)

     Parallel routines

     PWSCF        :      0.76s CPU      1.01s WALL


   This run was terminated on:  14:47:43   9Feb2026            

=------------------------------------------------------------------------------=
   JOB DONE.
=------------------------------------------------------------------------------=
