
     Program PWSCF v.7.3.1 starts on  6Feb2026 at 15:32:56 

     This program is part of the open-source Quantum ESPRESSO suite
     for quantum simulation of materials; please cite
         "P. Giannozzi et al., J. Phys.:Condens. Matter 21 395502 (2009);
         "P. Giannozzi et al., J. Phys.:Condens. Matter 29 465901 (2017);
         "P. Giannozzi et al., J. Chem. Phys. 152 154105 (2020);
          URL http://www.quantum-espresso.org", 
     in publications or presentations arising from this work. More details at
     http://www.quantum-espresso.org/quote

     Parallel version (MPI), running on   128 processors

     MPI processes distributed on     1 nodes
     241391 MiB available memory on the printing compute node when the environment starts

     Waiting for input...
     Reading input from standard input

     Current dimensions of program PWSCF are:
     Max number of different atomic species (ntypx) = 10
     Max number of k-points (npk) =  40000
     Max angular momentum in pseudopotentials (lmaxx) =  4

     K-points division:     npool     =       8
     R & G space division:  proc/nbgrp/npool/nimage =      16
     Subspace diagonalization in iterative solution of the eigenvalue problem:
     a serial algorithm will be used


     Parallelization info
     --------------------
     sticks:   dense  smooth     PW     G-vecs:    dense   smooth      PW
     Min          59      59     17                 1221     1221     195
     Max          60      60     18                 1225     1225     198
     Sum         955     955    283                19579    19579    3143

     Using Slab Decomposition



     bravais-lattice index     =            2
     lattice parameter (alat)  =      10.7320  a.u.
     unit-cell volume          =     309.0133 (a.u.)^3
     number of atoms/cell      =            2
     number of atomic types    =            1
     number of electrons       =         8.00
     number of Kohn-Sham states=            4
     kinetic-energy cutoff     =      60.0000  Ry
     charge density cutoff     =     240.0000  Ry
     scf convergence threshold =      1.0E-07
     mixing beta               =       0.7000
     number of iterations used =            8  plain     mixing
     Exchange-correlation=  SLA  PW   PBE  PBE
                           (   1   4   3   4   0   0   0)

     celldm(1)=  10.731960  celldm(2)=   0.000000  celldm(3)=   0.000000
     celldm(4)=   0.000000  celldm(5)=   0.000000  celldm(6)=   0.000000

     crystal axes: (cart. coord. in units of alat)
               a(1) = (  -0.500000   0.000000   0.500000 )  
               a(2) = (   0.000000   0.500000   0.500000 )  
               a(3) = (  -0.500000   0.500000   0.000000 )  

     reciprocal axes: (cart. coord. in units 2 pi/alat)
               b(1) = ( -1.000000 -1.000000  1.000000 )  
               b(2) = (  1.000000  1.000000  1.000000 )  
               b(3) = ( -1.000000  1.000000 -1.000000 )  


     PseudoPot. # 1 for Si read from file:
     ./Si.pbe-n-van.UPF
     MD5 check sum: 8a97496598b7338af554a5de8957bfee
     Pseudo is Ultrasoft + core correction, Zval =  4.0
     Generated by new atomic code, or converted to UPF format
     Using radial grid of  899 points,  6 beta functions with: 
                l(1) =   0
                l(2) =   0
                l(3) =   1
                l(4) =   1
                l(5) =   2
                l(6) =   2
     Q(r) pseudized with  8 coefficients,  rinner =    0.900   0.900   0.900
                                                       0.900   0.900

     atomic species   valence    mass     pseudopotential
     Si                4.00    28.08600     Si( 1.00)

     48 Sym. Ops., with inversion, found (24 have fractional translation)



   Cartesian axes

     site n.     atom                  positions (alat units)
         1        Si     tau(   1) = (  -0.7500000   0.7500000   0.7500000  )
         2        Si     tau(   2) = (   0.0000000   0.0000000   0.0000000  )

     number of k points=    29
                       cart. coord. in units 2pi/alat
        k(    1) = (   0.0000000   0.0000000   0.0000000), wk =   0.0039062
        k(    2) = (  -0.1250000   0.1250000  -0.1250000), wk =   0.0312500
        k(    3) = (  -0.2500000   0.2500000  -0.2500000), wk =   0.0312500
        k(    4) = (  -0.3750000   0.3750000  -0.3750000), wk =   0.0312500
        k(    5) = (   0.5000000  -0.5000000   0.5000000), wk =   0.0156250
        k(    6) = (   0.0000000   0.2500000   0.0000000), wk =   0.0234375
        k(    7) = (  -0.1250000   0.3750000  -0.1250000), wk =   0.0937500
        k(    8) = (  -0.2500000   0.5000000  -0.2500000), wk =   0.0937500
        k(    9) = (   0.6250000  -0.3750000   0.6250000), wk =   0.0937500
        k(   10) = (   0.5000000  -0.2500000   0.5000000), wk =   0.0937500
        k(   11) = (   0.3750000  -0.1250000   0.3750000), wk =   0.0937500
        k(   12) = (   0.2500000   0.0000000   0.2500000), wk =   0.0468750
        k(   13) = (   0.0000000   0.5000000   0.0000000), wk =   0.0234375
        k(   14) = (  -0.1250000   0.6250000  -0.1250000), wk =   0.0937500
        k(   15) = (   0.7500000  -0.2500000   0.7500000), wk =   0.0937500
        k(   16) = (   0.6250000  -0.1250000   0.6250000), wk =   0.0937500
        k(   17) = (   0.5000000   0.0000000   0.5000000), wk =   0.0468750
        k(   18) = (   0.0000000   0.7500000   0.0000000), wk =   0.0234375
        k(   19) = (   0.8750000  -0.1250000   0.8750000), wk =   0.0937500
        k(   20) = (   0.7500000   0.0000000   0.7500000), wk =   0.0468750
        k(   21) = (   0.0000000  -1.0000000   0.0000000), wk =   0.0117188
        k(   22) = (  -0.2500000   0.5000000   0.0000000), wk =   0.0937500
        k(   23) = (   0.6250000  -0.3750000   0.8750000), wk =   0.1875000
        k(   24) = (   0.5000000  -0.2500000   0.7500000), wk =   0.0937500
        k(   25) = (   0.7500000  -0.2500000   1.0000000), wk =   0.0937500
        k(   26) = (   0.6250000  -0.1250000   0.8750000), wk =   0.1875000
        k(   27) = (   0.5000000   0.0000000   0.7500000), wk =   0.0937500
        k(   28) = (  -0.2500000  -1.0000000   0.0000000), wk =   0.0468750
        k(   29) = (  -0.5000000  -1.0000000   0.0000000), wk =   0.0234375

     Dense  grid:    19579 G-vectors     FFT dimensions: (  40,  40,  40)

     Estimated max dynamical RAM per process >       2.67 MB

     Estimated total dynamical RAM >     307.92 MB

     Initial potential from superposition of free atoms

     starting charge       7.9987, renormalised to       8.0000
     Starting wfcs are    8 randomized atomic wfcs

     total cpu time spent up to now is        0.7 secs

     per-process dynamical memory:    10.5 Mb

     Self-consistent Calculation

     iteration #  1     ecut=    60.00 Ry     beta= 0.70
     Davidson diagonalization with overlap
     ethr =  1.00E-02,  avg # of iterations =  2.0

     Threshold (ethr) on eigenvalues was too large:
     Diagonalizing with lowered threshold

     Davidson diagonalization with overlap
     ethr =  5.18E-04,  avg # of iterations =  1.1

     total cpu time spent up to now is        0.8 secs

     total energy              =     -19.18182880 Ry
     estimated scf accuracy    <       0.04426678 Ry

     iteration #  2     ecut=    60.00 Ry     beta= 0.70
     Davidson diagonalization with overlap
     ethr =  5.53E-04,  avg # of iterations =  1.0

     total cpu time spent up to now is        0.8 secs

     total energy              =     -19.18300261 Ry
     estimated scf accuracy    <       0.00250083 Ry

     iteration #  3     ecut=    60.00 Ry     beta= 0.70
     Davidson diagonalization with overlap
     ethr =  3.13E-05,  avg # of iterations =  1.9

     total cpu time spent up to now is        0.8 secs

     total energy              =     -19.18327725 Ry
     estimated scf accuracy    <       0.00002681 Ry

     iteration #  4     ecut=    60.00 Ry     beta= 0.70
     Davidson diagonalization with overlap
     ethr =  3.35E-07,  avg # of iterations =  6.3

     total cpu time spent up to now is        0.9 secs

     total energy              =     -19.18333970 Ry
     estimated scf accuracy    <       0.00000050 Ry

     iteration #  5     ecut=    60.00 Ry     beta= 0.70
     Davidson diagonalization with overlap
     ethr =  6.27E-09,  avg # of iterations =  5.8

     total cpu time spent up to now is        0.9 secs

     End of self-consistent calculation

          k = 0.0000 0.0000 0.0000 (  2421 PWs)   bands (ev):

    -6.2116   4.8762   4.8762   4.8762

          k =-0.1250 0.1250-0.1250 (  2430 PWs)   bands (ev):

    -6.0303   3.2820   4.6245   4.6245

          k =-0.2500 0.2500-0.2500 (  2439 PWs)   bands (ev):

    -5.5040   1.1564   4.2010   4.2010

          k =-0.3750 0.3750-0.3750 (  2434 PWs)   bands (ev):

    -4.7282  -0.6421   3.8996   3.8996

          k = 0.5000-0.5000 0.5000 (  2452 PWs)   bands (ev):

    -4.2002  -1.5182   3.7952   3.7952

          k = 0.0000 0.2500 0.0000 (  2421 PWs)   bands (ev):

    -5.9690   3.3850   4.1858   4.1858

          k =-0.1250 0.3750-0.1250 (  2435 PWs)   bands (ev):

    -5.5537   1.7165   3.7297   3.7373

          k =-0.2500 0.5000-0.2500 (  2427 PWs)   bands (ev):

    -4.8399  -0.1017   3.1927   3.4806

          k = 0.6250-0.3750 0.6250 (  2426 PWs)   bands (ev):

    -4.1131  -1.3639   2.7978   3.4904

          k = 0.5000-0.2500 0.5000 (  2420 PWs)   bands (ev):

    -4.3149  -1.0498   2.6551   3.7442

          k = 0.3750-0.1250 0.3750 (  2434 PWs)   bands (ev):

    -5.1074   0.4770   2.8271   4.1748

          k = 0.2500 0.0000 0.2500 (  2437 PWs)   bands (ev):

    -5.7322   2.2059   3.4773   4.6009

          k = 0.0000 0.5000 0.0000 (  2429 PWs)   bands (ev):

    -5.2505   1.3163   3.2270   3.2270

          k =-0.1250 0.6250-0.1250 (  2423 PWs)   bands (ev):

    -4.6241   0.0561   2.5368   2.9394

          k = 0.7500-0.2500 0.7500 (  2416 PWs)   bands (ev):

    -3.8263  -1.1836   1.7701   2.9353

          k = 0.6250-0.1250 0.6250 (  2412 PWs)   bands (ev):

    -3.6633  -1.3928   1.3792   3.2107

          k = 0.5000 0.0000 0.5000 (  2421 PWs)   bands (ev):

    -4.4132  -0.3894   1.6180   3.6961

          k = 0.0000 0.7500 0.0000 (  2413 PWs)   bands (ev):

    -4.0869  -0.6969   2.5851   2.5851

          k = 0.8750-0.1250 0.8750 (  2422 PWs)   bands (ev):

    -3.3000  -1.6669   1.8955   2.5146

          k = 0.7500 0.0000 0.7500 (  2418 PWs)   bands (ev):

    -2.9513  -1.9960   1.1712   2.7400

          k = 0.0000-1.0000 0.0000 (  2450 PWs)   bands (ev):

    -2.5375  -2.5375   2.3642   2.3642

          k =-0.2500 0.5000 0.0000 (  2428 PWs)   bands (ev):

    -5.0346   0.6785   2.5214   3.6085

          k = 0.6250-0.3750 0.8750 (  2423 PWs)   bands (ev):

    -4.2616  -0.6784   1.9439   3.1889

          k = 0.5000-0.2500 0.7500 (  2428 PWs)   bands (ev):

    -3.7168  -1.4717   1.8022   2.9978

          k = 0.7500-0.2500 1.0000 (  2415 PWs)   bands (ev):

    -3.9202  -0.8920   1.9519   2.4852

          k = 0.6250-0.1250 0.8750 (  2420 PWs)   bands (ev):

    -3.1726  -1.7423   1.3619   2.3137

          k = 0.5000 0.0000 0.7500 (  2424 PWs)   bands (ev):

    -3.4810  -1.4120   1.2215   2.6343

          k =-0.2500-1.0000 0.0000 (  2410 PWs)   bands (ev):

    -2.4835  -2.4835   1.9139   1.9139

          k =-0.5000-1.0000 0.0000 (  2400 PWs)   bands (ev):

    -2.4257  -2.4257   1.5611   1.5611

     highest occupied level (ev):     4.8762

!    total energy              =     -19.18334063 Ry
     estimated scf accuracy    <          1.2E-09 Ry

     The total energy is the sum of the following terms:
     one-electron contribution =       4.11212486 Ry
     hartree contribution      =       1.23815379 Ry
     xc contribution           =      -8.47154511 Ry
     ewald contribution        =     -16.06207416 Ry

     convergence has been achieved in   5 iterations

     Writing all to output data dir ./si-dia/si-dia.save/ :
     XML data file, charge density, pseudopotentials, collected wavefunctions

     init_run     :      0.39s CPU      0.42s WALL (       1 calls)
     electrons    :      0.15s CPU      0.21s WALL (       1 calls)

     Called by init_run:
     wfcinit      :      0.02s CPU      0.02s WALL (       1 calls)
     potinit      :      0.02s CPU      0.03s WALL (       1 calls)
     hinit0       :      0.33s CPU      0.33s WALL (       1 calls)

     Called by electrons:
     c_bands      :      0.09s CPU      0.11s WALL (       6 calls)
     sum_band     :      0.02s CPU      0.04s WALL (       6 calls)
     v_of_rho     :      0.02s CPU      0.03s WALL (       6 calls)
     newd         :      0.01s CPU      0.01s WALL (       6 calls)
     mix_rho      :      0.00s CPU      0.00s WALL (       6 calls)

     Called by c_bands:
     init_us_2    :      0.00s CPU      0.00s WALL (      52 calls)
     cegterg      :      0.08s CPU      0.09s WALL (      24 calls)

     Called by *egterg:
     cdiaghg      :      0.00s CPU      0.01s WALL (     100 calls)
     h_psi        :      0.08s CPU      0.09s WALL (     108 calls)
     s_psi        :      0.00s CPU      0.00s WALL (     108 calls)
     g_psi        :      0.00s CPU      0.00s WALL (      80 calls)

     Called by h_psi:
     h_psi:calbec :      0.01s CPU      0.01s WALL (     108 calls)
     vloc_psi     :      0.07s CPU      0.07s WALL (     108 calls)
     add_vuspsi   :      0.00s CPU      0.00s WALL (     108 calls)

     General routines
     calbec       :      0.01s CPU      0.01s WALL (     132 calls)
     fft          :      0.30s CPU      0.31s WALL (      67 calls)
     ffts         :      0.00s CPU      0.00s WALL (       6 calls)
     fftw         :      0.06s CPU      0.07s WALL (     830 calls)

     Parallel routines

     PWSCF        :      0.75s CPU      1.01s WALL


   This run was terminated on:  15:32:57   6Feb2026            

=------------------------------------------------------------------------------=
   JOB DONE.
=------------------------------------------------------------------------------=
