
     Program PWSCF v.7.3.1 starts on  6Feb2026 at 15:33:12 

     This program is part of the open-source Quantum ESPRESSO suite
     for quantum simulation of materials; please cite
         "P. Giannozzi et al., J. Phys.:Condens. Matter 21 395502 (2009);
         "P. Giannozzi et al., J. Phys.:Condens. Matter 29 465901 (2017);
         "P. Giannozzi et al., J. Chem. Phys. 152 154105 (2020);
          URL http://www.quantum-espresso.org", 
     in publications or presentations arising from this work. More details at
     http://www.quantum-espresso.org/quote

     Parallel version (MPI), running on   128 processors

     MPI processes distributed on     1 nodes
     241445 MiB available memory on the printing compute node when the environment starts

     Waiting for input...
     Reading input from standard input

     Current dimensions of program PWSCF are:
     Max number of different atomic species (ntypx) = 10
     Max number of k-points (npk) =  40000
     Max angular momentum in pseudopotentials (lmaxx) =  4

     K-points division:     npool     =       8
     R & G space division:  proc/nbgrp/npool/nimage =      16
     Subspace diagonalization in iterative solution of the eigenvalue problem:
     a serial algorithm will be used


     Parallelization info
     --------------------
     sticks:   dense  smooth     PW     G-vecs:    dense   smooth      PW
     Min          59      59     18                 1221     1221     200
     Max          60      60     20                 1225     1225     202
     Sum         955     955    295                19579    19579    3215

     Using Slab Decomposition



     bravais-lattice index     =            2
     lattice parameter (alat)  =      10.7525  a.u.
     unit-cell volume          =     310.7892 (a.u.)^3
     number of atoms/cell      =            2
     number of atomic types    =            1
     number of electrons       =         8.00
     number of Kohn-Sham states=            4
     kinetic-energy cutoff     =      60.0000  Ry
     charge density cutoff     =     240.0000  Ry
     scf convergence threshold =      1.0E-07
     mixing beta               =       0.7000
     number of iterations used =            8  plain     mixing
     Exchange-correlation=  SLA  PW   PBE  PBE
                           (   1   4   3   4   0   0   0)

     celldm(1)=  10.752480  celldm(2)=   0.000000  celldm(3)=   0.000000
     celldm(4)=   0.000000  celldm(5)=   0.000000  celldm(6)=   0.000000

     crystal axes: (cart. coord. in units of alat)
               a(1) = (  -0.500000   0.000000   0.500000 )  
               a(2) = (   0.000000   0.500000   0.500000 )  
               a(3) = (  -0.500000   0.500000   0.000000 )  

     reciprocal axes: (cart. coord. in units 2 pi/alat)
               b(1) = ( -1.000000 -1.000000  1.000000 )  
               b(2) = (  1.000000  1.000000  1.000000 )  
               b(3) = ( -1.000000  1.000000 -1.000000 )  


     PseudoPot. # 1 for Si read from file:
     ./Si.pbe-n-van.UPF
     MD5 check sum: 8a97496598b7338af554a5de8957bfee
     Pseudo is Ultrasoft + core correction, Zval =  4.0
     Generated by new atomic code, or converted to UPF format
     Using radial grid of  899 points,  6 beta functions with: 
                l(1) =   0
                l(2) =   0
                l(3) =   1
                l(4) =   1
                l(5) =   2
                l(6) =   2
     Q(r) pseudized with  8 coefficients,  rinner =    0.900   0.900   0.900
                                                       0.900   0.900

     atomic species   valence    mass     pseudopotential
     Si                4.00    28.08600     Si( 1.00)

     48 Sym. Ops., with inversion, found (24 have fractional translation)



   Cartesian axes

     site n.     atom                  positions (alat units)
         1        Si     tau(   1) = (  -0.7500000   0.7500000   0.7500000  )
         2        Si     tau(   2) = (   0.0000000   0.0000000   0.0000000  )

     number of k points=    29
                       cart. coord. in units 2pi/alat
        k(    1) = (   0.0000000   0.0000000   0.0000000), wk =   0.0039062
        k(    2) = (  -0.1250000   0.1250000  -0.1250000), wk =   0.0312500
        k(    3) = (  -0.2500000   0.2500000  -0.2500000), wk =   0.0312500
        k(    4) = (  -0.3750000   0.3750000  -0.3750000), wk =   0.0312500
        k(    5) = (   0.5000000  -0.5000000   0.5000000), wk =   0.0156250
        k(    6) = (   0.0000000   0.2500000   0.0000000), wk =   0.0234375
        k(    7) = (  -0.1250000   0.3750000  -0.1250000), wk =   0.0937500
        k(    8) = (  -0.2500000   0.5000000  -0.2500000), wk =   0.0937500
        k(    9) = (   0.6250000  -0.3750000   0.6250000), wk =   0.0937500
        k(   10) = (   0.5000000  -0.2500000   0.5000000), wk =   0.0937500
        k(   11) = (   0.3750000  -0.1250000   0.3750000), wk =   0.0937500
        k(   12) = (   0.2500000   0.0000000   0.2500000), wk =   0.0468750
        k(   13) = (   0.0000000   0.5000000   0.0000000), wk =   0.0234375
        k(   14) = (  -0.1250000   0.6250000  -0.1250000), wk =   0.0937500
        k(   15) = (   0.7500000  -0.2500000   0.7500000), wk =   0.0937500
        k(   16) = (   0.6250000  -0.1250000   0.6250000), wk =   0.0937500
        k(   17) = (   0.5000000   0.0000000   0.5000000), wk =   0.0468750
        k(   18) = (   0.0000000   0.7500000   0.0000000), wk =   0.0234375
        k(   19) = (   0.8750000  -0.1250000   0.8750000), wk =   0.0937500
        k(   20) = (   0.7500000   0.0000000   0.7500000), wk =   0.0468750
        k(   21) = (   0.0000000  -1.0000000   0.0000000), wk =   0.0117188
        k(   22) = (  -0.2500000   0.5000000   0.0000000), wk =   0.0937500
        k(   23) = (   0.6250000  -0.3750000   0.8750000), wk =   0.1875000
        k(   24) = (   0.5000000  -0.2500000   0.7500000), wk =   0.0937500
        k(   25) = (   0.7500000  -0.2500000   1.0000000), wk =   0.0937500
        k(   26) = (   0.6250000  -0.1250000   0.8750000), wk =   0.1875000
        k(   27) = (   0.5000000   0.0000000   0.7500000), wk =   0.0937500
        k(   28) = (  -0.2500000  -1.0000000   0.0000000), wk =   0.0468750
        k(   29) = (  -0.5000000  -1.0000000   0.0000000), wk =   0.0234375

     Dense  grid:    19579 G-vectors     FFT dimensions: (  40,  40,  40)

     Estimated max dynamical RAM per process >       2.67 MB

     Estimated total dynamical RAM >     308.03 MB

     Initial potential from superposition of free atoms

     starting charge       7.9987, renormalised to       8.0000
     Starting wfcs are    8 randomized atomic wfcs

     total cpu time spent up to now is        0.7 secs

     per-process dynamical memory:    10.2 Mb

     Self-consistent Calculation

     iteration #  1     ecut=    60.00 Ry     beta= 0.70
     Davidson diagonalization with overlap
     ethr =  1.00E-02,  avg # of iterations =  2.0

     Threshold (ethr) on eigenvalues was too large:
     Diagonalizing with lowered threshold

     Davidson diagonalization with overlap
     ethr =  5.13E-04,  avg # of iterations =  1.2

     total cpu time spent up to now is        0.8 secs

     total energy              =     -19.18090645 Ry
     estimated scf accuracy    <       0.04381158 Ry

     iteration #  2     ecut=    60.00 Ry     beta= 0.70
     Davidson diagonalization with overlap
     ethr =  5.48E-04,  avg # of iterations =  1.0

     total cpu time spent up to now is        0.8 secs

     total energy              =     -19.18204553 Ry
     estimated scf accuracy    <       0.00250232 Ry

     iteration #  3     ecut=    60.00 Ry     beta= 0.70
     Davidson diagonalization with overlap
     ethr =  3.13E-05,  avg # of iterations =  1.8

     total cpu time spent up to now is        0.8 secs

     total energy              =     -19.18231152 Ry
     estimated scf accuracy    <       0.00002610 Ry

     iteration #  4     ecut=    60.00 Ry     beta= 0.70
     Davidson diagonalization with overlap
     ethr =  3.26E-07,  avg # of iterations =  6.4

     total cpu time spent up to now is        0.9 secs

     total energy              =     -19.18237600 Ry
     estimated scf accuracy    <       0.00000056 Ry

     iteration #  5     ecut=    60.00 Ry     beta= 0.70
     Davidson diagonalization with overlap
     ethr =  7.04E-09,  avg # of iterations =  5.7

     total cpu time spent up to now is        0.9 secs

     End of self-consistent calculation

          k = 0.0000 0.0000 0.0000 (  2421 PWs)   bands (ev):

    -6.2295   4.8235   4.8235   4.8235

          k =-0.1250 0.1250-0.1250 (  2457 PWs)   bands (ev):

    -6.0491   3.2274   4.5734   4.5734

          k =-0.2500 0.2500-0.2500 (  2451 PWs)   bands (ev):

    -5.5256   1.1105   4.1518   4.1518

          k =-0.3750 0.3750-0.3750 (  2443 PWs)   bands (ev):

    -4.7546  -0.6788   3.8515   3.8515

          k = 0.5000-0.5000 0.5000 (  2452 PWs)   bands (ev):

    -4.2308  -1.5490   3.7475   3.7475

          k = 0.0000 0.2500 0.0000 (  2461 PWs)   bands (ev):

    -5.9881   3.3239   4.1378   4.1378

          k =-0.1250 0.3750-0.1250 (  2449 PWs)   bands (ev):

    -5.5750   1.6645   3.6839   3.6892

          k =-0.2500 0.5000-0.2500 (  2445 PWs)   bands (ev):

    -4.8653  -0.1435   3.1464   3.4357

          k = 0.6250-0.3750 0.6250 (  2438 PWs)   bands (ev):

    -4.1438  -1.3976   2.7535   3.4449

          k = 0.5000-0.2500 0.5000 (  2435 PWs)   bands (ev):

    -4.3439  -1.0857   2.6123   3.6971

          k = 0.3750-0.1250 0.3750 (  2449 PWs)   bands (ev):

    -5.1312   0.4318   2.7851   4.1253

          k = 0.2500 0.0000 0.2500 (  2449 PWs)   bands (ev):

    -5.7526   2.1520   3.4338   4.5491

          k = 0.0000 0.5000 0.0000 (  2429 PWs)   bands (ev):

    -5.2733   1.2608   3.1840   3.1840

          k =-0.1250 0.6250-0.1250 (  2437 PWs)   bands (ev):

    -4.6503   0.0073   2.4976   2.8976

          k = 0.7500-0.2500 0.7500 (  2437 PWs)   bands (ev):

    -3.8576  -1.2244   1.7349   2.8933

          k = 0.6250-0.1250 0.6250 (  2436 PWs)   bands (ev):

    -3.6962  -1.4318   1.3467   3.1670

          k = 0.5000 0.0000 0.5000 (  2437 PWs)   bands (ev):

    -4.4410  -0.4344   1.5852   3.6495

          k = 0.0000 0.7500 0.0000 (  2438 PWs)   bands (ev):

    -4.1158  -0.7434   2.5452   2.5452

          k = 0.8750-0.1250 0.8750 (  2438 PWs)   bands (ev):

    -3.3334  -1.7086   1.8610   2.4749

          k = 0.7500 0.0000 0.7500 (  2430 PWs)   bands (ev):

    -2.9880  -2.0351   1.1422   2.6990

          k = 0.0000-1.0000 0.0000 (  2450 PWs)   bands (ev):

    -2.5745  -2.5745   2.3254   2.3254

          k =-0.2500 0.5000 0.0000 (  2440 PWs)   bands (ev):

    -5.0587   0.6283   2.4831   3.5624

          k = 0.6250-0.3750 0.8750 (  2438 PWs)   bands (ev):

    -4.2904  -0.7208   1.9072   3.1459

          k = 0.5000-0.2500 0.7500 (  2428 PWs)   bands (ev):

    -3.7496  -1.5082   1.7652   2.9563

          k = 0.7500-0.2500 1.0000 (  2435 PWs)   bands (ev):

    -3.9503  -0.9374   1.9168   2.4471

          k = 0.6250-0.1250 0.8750 (  2430 PWs)   bands (ev):

    -3.2078  -1.7831   1.3311   2.2768

          k = 0.5000 0.0000 0.7500 (  2436 PWs)   bands (ev):

    -3.5144  -1.4541   1.1917   2.5952

          k =-0.2500-1.0000 0.0000 (  2434 PWs)   bands (ev):

    -2.5214  -2.5214   1.8793   1.8793

          k =-0.5000-1.0000 0.0000 (  2468 PWs)   bands (ev):

    -2.4646  -2.4646   1.5297   1.5297

     highest occupied level (ev):     4.8235

!    total energy              =     -19.18237689 Ry
     estimated scf accuracy    <          1.8E-09 Ry

     The total energy is the sum of the following terms:
     one-electron contribution =       4.07094915 Ry
     hartree contribution      =       1.24347241 Ry
     xc contribution           =      -8.46537710 Ry
     ewald contribution        =     -16.03142135 Ry

     convergence has been achieved in   5 iterations

     Writing all to output data dir ./si-dia/si-dia.save/ :
     XML data file, charge density, pseudopotentials, collected wavefunctions

     init_run     :      0.37s CPU      0.42s WALL (       1 calls)
     electrons    :      0.15s CPU      0.23s WALL (       1 calls)

     Called by init_run:
     wfcinit      :      0.02s CPU      0.03s WALL (       1 calls)
     potinit      :      0.01s CPU      0.03s WALL (       1 calls)
     hinit0       :      0.32s CPU      0.34s WALL (       1 calls)

     Called by electrons:
     c_bands      :      0.08s CPU      0.11s WALL (       6 calls)
     sum_band     :      0.03s CPU      0.04s WALL (       6 calls)
     v_of_rho     :      0.02s CPU      0.03s WALL (       6 calls)
     newd         :      0.01s CPU      0.01s WALL (       6 calls)
     mix_rho      :      0.00s CPU      0.00s WALL (       6 calls)

     Called by c_bands:
     init_us_2    :      0.00s CPU      0.00s WALL (      52 calls)
     cegterg      :      0.07s CPU      0.09s WALL (      24 calls)

     Called by *egterg:
     cdiaghg      :      0.00s CPU      0.01s WALL (      94 calls)
     h_psi        :      0.06s CPU      0.08s WALL (     102 calls)
     s_psi        :      0.00s CPU      0.00s WALL (     102 calls)
     g_psi        :      0.00s CPU      0.00s WALL (      74 calls)

     Called by h_psi:
     h_psi:calbec :      0.01s CPU      0.01s WALL (     102 calls)
     vloc_psi     :      0.05s CPU      0.07s WALL (     102 calls)
     add_vuspsi   :      0.00s CPU      0.00s WALL (     102 calls)

     General routines
     calbec       :      0.01s CPU      0.01s WALL (     126 calls)
     fft          :      0.30s CPU      0.31s WALL (      67 calls)
     ffts         :      0.00s CPU      0.00s WALL (       6 calls)
     fftw         :      0.06s CPU      0.07s WALL (     808 calls)

     Parallel routines

     PWSCF        :      0.75s CPU      1.04s WALL


   This run was terminated on:  15:33:13   6Feb2026            

=------------------------------------------------------------------------------=
   JOB DONE.
=------------------------------------------------------------------------------=
