
     Program PWSCF v.7.3.1 starts on  6Feb2026 at 15:33:21 

     This program is part of the open-source Quantum ESPRESSO suite
     for quantum simulation of materials; please cite
         "P. Giannozzi et al., J. Phys.:Condens. Matter 21 395502 (2009);
         "P. Giannozzi et al., J. Phys.:Condens. Matter 29 465901 (2017);
         "P. Giannozzi et al., J. Chem. Phys. 152 154105 (2020);
          URL http://www.quantum-espresso.org", 
     in publications or presentations arising from this work. More details at
     http://www.quantum-espresso.org/quote

     Parallel version (MPI), running on   128 processors

     MPI processes distributed on     1 nodes
     241412 MiB available memory on the printing compute node when the environment starts

     Waiting for input...
     Reading input from standard input

     Current dimensions of program PWSCF are:
     Max number of different atomic species (ntypx) = 10
     Max number of k-points (npk) =  40000
     Max angular momentum in pseudopotentials (lmaxx) =  4

     K-points division:     npool     =       8
     R & G space division:  proc/nbgrp/npool/nimage =      16
     Subspace diagonalization in iterative solution of the eigenvalue problem:
     a serial algorithm will be used


     Parallelization info
     --------------------
     sticks:   dense  smooth     PW     G-vecs:    dense   smooth      PW
     Min          59      59     18                 1234     1234     204
     Max          60      60     19                 1239     1239     206
     Sum         955     955    295                19795    19795    3287

     Using Slab Decomposition



     bravais-lattice index     =            2
     lattice parameter (alat)  =      10.7935  a.u.
     unit-cell volume          =     314.3615 (a.u.)^3
     number of atoms/cell      =            2
     number of atomic types    =            1
     number of electrons       =         8.00
     number of Kohn-Sham states=            4
     kinetic-energy cutoff     =      60.0000  Ry
     charge density cutoff     =     240.0000  Ry
     scf convergence threshold =      1.0E-07
     mixing beta               =       0.7000
     number of iterations used =            8  plain     mixing
     Exchange-correlation=  SLA  PW   PBE  PBE
                           (   1   4   3   4   0   0   0)

     celldm(1)=  10.793520  celldm(2)=   0.000000  celldm(3)=   0.000000
     celldm(4)=   0.000000  celldm(5)=   0.000000  celldm(6)=   0.000000

     crystal axes: (cart. coord. in units of alat)
               a(1) = (  -0.500000   0.000000   0.500000 )  
               a(2) = (   0.000000   0.500000   0.500000 )  
               a(3) = (  -0.500000   0.500000   0.000000 )  

     reciprocal axes: (cart. coord. in units 2 pi/alat)
               b(1) = ( -1.000000 -1.000000  1.000000 )  
               b(2) = (  1.000000  1.000000  1.000000 )  
               b(3) = ( -1.000000  1.000000 -1.000000 )  


     PseudoPot. # 1 for Si read from file:
     ./Si.pbe-n-van.UPF
     MD5 check sum: 8a97496598b7338af554a5de8957bfee
     Pseudo is Ultrasoft + core correction, Zval =  4.0
     Generated by new atomic code, or converted to UPF format
     Using radial grid of  899 points,  6 beta functions with: 
                l(1) =   0
                l(2) =   0
                l(3) =   1
                l(4) =   1
                l(5) =   2
                l(6) =   2
     Q(r) pseudized with  8 coefficients,  rinner =    0.900   0.900   0.900
                                                       0.900   0.900

     atomic species   valence    mass     pseudopotential
     Si                4.00    28.08600     Si( 1.00)

     48 Sym. Ops., with inversion, found (24 have fractional translation)



   Cartesian axes

     site n.     atom                  positions (alat units)
         1        Si     tau(   1) = (  -0.7500000   0.7500000   0.7500000  )
         2        Si     tau(   2) = (   0.0000000   0.0000000   0.0000000  )

     number of k points=    29
                       cart. coord. in units 2pi/alat
        k(    1) = (   0.0000000   0.0000000   0.0000000), wk =   0.0039062
        k(    2) = (  -0.1250000   0.1250000  -0.1250000), wk =   0.0312500
        k(    3) = (  -0.2500000   0.2500000  -0.2500000), wk =   0.0312500
        k(    4) = (  -0.3750000   0.3750000  -0.3750000), wk =   0.0312500
        k(    5) = (   0.5000000  -0.5000000   0.5000000), wk =   0.0156250
        k(    6) = (   0.0000000   0.2500000   0.0000000), wk =   0.0234375
        k(    7) = (  -0.1250000   0.3750000  -0.1250000), wk =   0.0937500
        k(    8) = (  -0.2500000   0.5000000  -0.2500000), wk =   0.0937500
        k(    9) = (   0.6250000  -0.3750000   0.6250000), wk =   0.0937500
        k(   10) = (   0.5000000  -0.2500000   0.5000000), wk =   0.0937500
        k(   11) = (   0.3750000  -0.1250000   0.3750000), wk =   0.0937500
        k(   12) = (   0.2500000   0.0000000   0.2500000), wk =   0.0468750
        k(   13) = (   0.0000000   0.5000000   0.0000000), wk =   0.0234375
        k(   14) = (  -0.1250000   0.6250000  -0.1250000), wk =   0.0937500
        k(   15) = (   0.7500000  -0.2500000   0.7500000), wk =   0.0937500
        k(   16) = (   0.6250000  -0.1250000   0.6250000), wk =   0.0937500
        k(   17) = (   0.5000000   0.0000000   0.5000000), wk =   0.0468750
        k(   18) = (   0.0000000   0.7500000   0.0000000), wk =   0.0234375
        k(   19) = (   0.8750000  -0.1250000   0.8750000), wk =   0.0937500
        k(   20) = (   0.7500000   0.0000000   0.7500000), wk =   0.0468750
        k(   21) = (   0.0000000  -1.0000000   0.0000000), wk =   0.0117188
        k(   22) = (  -0.2500000   0.5000000   0.0000000), wk =   0.0937500
        k(   23) = (   0.6250000  -0.3750000   0.8750000), wk =   0.1875000
        k(   24) = (   0.5000000  -0.2500000   0.7500000), wk =   0.0937500
        k(   25) = (   0.7500000  -0.2500000   1.0000000), wk =   0.0937500
        k(   26) = (   0.6250000  -0.1250000   0.8750000), wk =   0.1875000
        k(   27) = (   0.5000000   0.0000000   0.7500000), wk =   0.0937500
        k(   28) = (  -0.2500000  -1.0000000   0.0000000), wk =   0.0468750
        k(   29) = (  -0.5000000  -1.0000000   0.0000000), wk =   0.0234375

     Dense  grid:    19795 G-vectors     FFT dimensions: (  40,  40,  40)

     Estimated max dynamical RAM per process >       2.68 MB

     Estimated total dynamical RAM >     309.00 MB

     Initial potential from superposition of free atoms

     starting charge       7.9987, renormalised to       8.0000
     Starting wfcs are    8 randomized atomic wfcs

     total cpu time spent up to now is        0.7 secs

     per-process dynamical memory:    10.6 Mb

     Self-consistent Calculation

     iteration #  1     ecut=    60.00 Ry     beta= 0.70
     Davidson diagonalization with overlap
     ethr =  1.00E-02,  avg # of iterations =  2.0

     Threshold (ethr) on eigenvalues was too large:
     Diagonalizing with lowered threshold

     Davidson diagonalization with overlap
     ethr =  5.03E-04,  avg # of iterations =  1.2

     total cpu time spent up to now is        0.8 secs

     total energy              =     -19.17894150 Ry
     estimated scf accuracy    <       0.04304499 Ry

     iteration #  2     ecut=    60.00 Ry     beta= 0.70
     Davidson diagonalization with overlap
     ethr =  5.38E-04,  avg # of iterations =  1.0

     total cpu time spent up to now is        0.8 secs

     total energy              =     -19.18002200 Ry
     estimated scf accuracy    <       0.00248865 Ry

     iteration #  3     ecut=    60.00 Ry     beta= 0.70
     Davidson diagonalization with overlap
     ethr =  3.11E-05,  avg # of iterations =  1.8

     total cpu time spent up to now is        0.8 secs

     total energy              =     -19.18026943 Ry
     estimated scf accuracy    <       0.00002582 Ry

     iteration #  4     ecut=    60.00 Ry     beta= 0.70
     Davidson diagonalization with overlap
     ethr =  3.23E-07,  avg # of iterations =  6.4

     total cpu time spent up to now is        0.9 secs

     total energy              =     -19.18033430 Ry
     estimated scf accuracy    <       0.00000046 Ry

     iteration #  5     ecut=    60.00 Ry     beta= 0.70
     Davidson diagonalization with overlap
     ethr =  5.70E-09,  avg # of iterations =  5.8

     total cpu time spent up to now is        0.9 secs

     End of self-consistent calculation

          k = 0.0000 0.0000 0.0000 (  2445 PWs)   bands (ev):

    -6.2649   4.7192   4.7192   4.7192

          k =-0.1250 0.1250-0.1250 (  2496 PWs)   bands (ev):

    -6.0863   3.1185   4.4721   4.4721

          k =-0.2500 0.2500-0.2500 (  2475 PWs)   bands (ev):

    -5.5685   1.0191   4.0545   4.0545

          k =-0.3750 0.3750-0.3750 (  2458 PWs)   bands (ev):

    -4.8068  -0.7518   3.7564   3.7564

          k = 0.5000-0.5000 0.5000 (  2488 PWs)   bands (ev):

    -4.2914  -1.6106   3.6531   3.6531

          k = 0.0000 0.2500 0.0000 (  2481 PWs)   bands (ev):

    -6.0260   3.2023   4.0426   4.0426

          k =-0.1250 0.3750-0.1250 (  2479 PWs)   bands (ev):

    -5.6172   1.5610   3.5933   3.5940

          k =-0.2500 0.5000-0.2500 (  2469 PWs)   bands (ev):

    -4.9156  -0.2266   3.0549   3.3468

          k = 0.6250-0.3750 0.6250 (  2461 PWs)   bands (ev):

    -4.2045  -1.4646   2.6658   3.3549

          k = 0.5000-0.2500 0.5000 (  2459 PWs)   bands (ev):

    -4.4014  -1.1571   2.5277   3.6038

          k = 0.3750-0.1250 0.3750 (  2479 PWs)   bands (ev):

    -5.1784   0.3420   2.7021   4.0271

          k = 0.2500 0.0000 0.2500 (  2459 PWs)   bands (ev):

    -5.7929   2.0447   3.3476   4.4465

          k = 0.0000 0.5000 0.0000 (  2477 PWs)   bands (ev):

    -5.3185   1.1505   3.0989   3.0989

          k =-0.1250 0.6250-0.1250 (  2463 PWs)   bands (ev):

    -4.7022  -0.0897   2.4199   2.8151

          k = 0.7500-0.2500 0.7500 (  2458 PWs)   bands (ev):

    -3.9197  -1.3056   1.6652   2.8102

          k = 0.6250-0.1250 0.6250 (  2472 PWs)   bands (ev):

    -3.7614  -1.5093   1.2824   3.0805

          k = 0.5000 0.0000 0.5000 (  2461 PWs)   bands (ev):

    -4.4961  -0.5239   1.5202   3.5572

          k = 0.0000 0.7500 0.0000 (  2462 PWs)   bands (ev):

    -4.1731  -0.8356   2.4662   2.4662

          k = 0.8750-0.1250 0.8750 (  2470 PWs)   bands (ev):

    -3.3995  -1.7914   1.7926   2.3964

          k = 0.7500 0.0000 0.7500 (  2440 PWs)   bands (ev):

    -3.0608  -2.1127   1.0848   2.6180

          k = 0.0000-1.0000 0.0000 (  2466 PWs)   bands (ev):

    -2.6480  -2.6480   2.2484   2.2484

          k =-0.2500 0.5000 0.0000 (  2472 PWs)   bands (ev):

    -5.1064   0.5285   2.4073   3.4711

          k = 0.6250-0.3750 0.8750 (  2468 PWs)   bands (ev):

    -4.3473  -0.8051   1.8346   3.0608

          k = 0.5000-0.2500 0.7500 (  2458 PWs)   bands (ev):

    -3.8148  -1.5809   1.6919   2.8741

          k = 0.7500-0.2500 1.0000 (  2474 PWs)   bands (ev):

    -4.0101  -1.0276   1.8473   2.3718

          k = 0.6250-0.1250 0.8750 (  2463 PWs)   bands (ev):

    -3.2774  -1.8639   1.2700   2.2038

          k = 0.5000 0.0000 0.7500 (  2466 PWs)   bands (ev):

    -3.5807  -1.5376   1.1326   2.5179

          k =-0.2500-1.0000 0.0000 (  2460 PWs)   bands (ev):

    -2.5966  -2.5966   1.8109   1.8109

          k =-0.5000-1.0000 0.0000 (  2468 PWs)   bands (ev):

    -2.5417  -2.5417   1.4675   1.4675

     highest occupied level (ev):     4.7192

!    total energy              =     -19.18033517 Ry
     estimated scf accuracy    <          2.4E-09 Ry

     The total energy is the sum of the following terms:
     one-electron contribution =       3.98916890 Ry
     hartree contribution      =       1.25412866 Ry
     xc contribution           =      -8.45316736 Ry
     ewald contribution        =     -15.97046538 Ry

     convergence has been achieved in   5 iterations

     Writing all to output data dir ./si-dia/si-dia.save/ :
     XML data file, charge density, pseudopotentials, collected wavefunctions

     init_run     :      0.39s CPU      0.43s WALL (       1 calls)
     electrons    :      0.15s CPU      0.21s WALL (       1 calls)

     Called by init_run:
     wfcinit      :      0.02s CPU      0.02s WALL (       1 calls)
     potinit      :      0.02s CPU      0.02s WALL (       1 calls)
     hinit0       :      0.33s CPU      0.34s WALL (       1 calls)

     Called by electrons:
     c_bands      :      0.08s CPU      0.11s WALL (       6 calls)
     sum_band     :      0.03s CPU      0.04s WALL (       6 calls)
     v_of_rho     :      0.03s CPU      0.03s WALL (       6 calls)
     newd         :      0.01s CPU      0.01s WALL (       6 calls)
     mix_rho      :      0.00s CPU      0.00s WALL (       6 calls)

     Called by c_bands:
     init_us_2    :      0.00s CPU      0.00s WALL (      52 calls)
     cegterg      :      0.07s CPU      0.09s WALL (      24 calls)

     Called by *egterg:
     cdiaghg      :      0.01s CPU      0.01s WALL (      97 calls)
     h_psi        :      0.07s CPU      0.08s WALL (     105 calls)
     s_psi        :      0.00s CPU      0.00s WALL (     105 calls)
     g_psi        :      0.00s CPU      0.00s WALL (      77 calls)

     Called by h_psi:
     h_psi:calbec :      0.01s CPU      0.01s WALL (     105 calls)
     vloc_psi     :      0.06s CPU      0.07s WALL (     105 calls)
     add_vuspsi   :      0.00s CPU      0.00s WALL (     105 calls)

     General routines
     calbec       :      0.01s CPU      0.01s WALL (     129 calls)
     fft          :      0.31s CPU      0.31s WALL (      67 calls)
     ffts         :      0.00s CPU      0.00s WALL (       6 calls)
     fftw         :      0.06s CPU      0.07s WALL (     828 calls)

     Parallel routines

     PWSCF        :      0.78s CPU      1.02s WALL


   This run was terminated on:  15:33:22   6Feb2026            

=------------------------------------------------------------------------------=
   JOB DONE.
=------------------------------------------------------------------------------=
