
     Program PWSCF v.7.3.1 starts on  9Feb2026 at 14:47:58 

     This program is part of the open-source Quantum ESPRESSO suite
     for quantum simulation of materials; please cite
         "P. Giannozzi et al., J. Phys.:Condens. Matter 21 395502 (2009);
         "P. Giannozzi et al., J. Phys.:Condens. Matter 29 465901 (2017);
         "P. Giannozzi et al., J. Chem. Phys. 152 154105 (2020);
          URL http://www.quantum-espresso.org", 
     in publications or presentations arising from this work. More details at
     http://www.quantum-espresso.org/quote

     Parallel version (MPI), running on   128 processors

     MPI processes distributed on     1 nodes
     241399 MiB available memory on the printing compute node when the environment starts

     Waiting for input...
     Reading input from standard input

     Current dimensions of program PWSCF are:
     Max number of different atomic species (ntypx) = 10
     Max number of k-points (npk) =  40000
     Max angular momentum in pseudopotentials (lmaxx) =  4

     K-points division:     npool     =       8
     R & G space division:  proc/nbgrp/npool/nimage =      16
     Subspace diagonalization in iterative solution of the eigenvalue problem:
     a serial algorithm will be used


     Parallelization info
     --------------------
     sticks:   dense  smooth     PW     G-vecs:    dense   smooth      PW
     Min          59      59     18                 1234     1234     204
     Max          60      60     19                 1239     1239     206
     Sum         955     955    295                19795    19795    3287

     Using Slab Decomposition



     bravais-lattice index     =            2
     lattice parameter (alat)  =      10.8038  a.u.
     unit-cell volume          =     315.2588 (a.u.)^3
     number of atoms/cell      =            2
     number of atomic types    =            1
     number of electrons       =         8.00
     number of Kohn-Sham states=            4
     kinetic-energy cutoff     =      60.0000  Ry
     charge density cutoff     =     240.0000  Ry
     scf convergence threshold =      1.0E-07
     mixing beta               =       0.7000
     number of iterations used =            8  plain     mixing
     Exchange-correlation=  SLA  PW   PBE  PBE
                           (   1   4   3   4   0   0   0)

     celldm(1)=  10.803780  celldm(2)=   0.000000  celldm(3)=   0.000000
     celldm(4)=   0.000000  celldm(5)=   0.000000  celldm(6)=   0.000000

     crystal axes: (cart. coord. in units of alat)
               a(1) = (  -0.500000   0.000000   0.500000 )  
               a(2) = (   0.000000   0.500000   0.500000 )  
               a(3) = (  -0.500000   0.500000   0.000000 )  

     reciprocal axes: (cart. coord. in units 2 pi/alat)
               b(1) = ( -1.000000 -1.000000  1.000000 )  
               b(2) = (  1.000000  1.000000  1.000000 )  
               b(3) = ( -1.000000  1.000000 -1.000000 )  


     PseudoPot. # 1 for Si read from file:
     ./Si.pbe-n-van.UPF
     MD5 check sum: 8a97496598b7338af554a5de8957bfee
     Pseudo is Ultrasoft + core correction, Zval =  4.0
     Generated by new atomic code, or converted to UPF format
     Using radial grid of  899 points,  6 beta functions with: 
                l(1) =   0
                l(2) =   0
                l(3) =   1
                l(4) =   1
                l(5) =   2
                l(6) =   2
     Q(r) pseudized with  8 coefficients,  rinner =    0.900   0.900   0.900
                                                       0.900   0.900

     atomic species   valence    mass     pseudopotential
     Si                4.00    28.08600     Si( 1.00)

     48 Sym. Ops., with inversion, found (24 have fractional translation)



   Cartesian axes

     site n.     atom                  positions (alat units)
         1        Si     tau(   1) = (  -0.7500000   0.7500000   0.7500000  )
         2        Si     tau(   2) = (   0.0000000   0.0000000   0.0000000  )

     number of k points=    29
                       cart. coord. in units 2pi/alat
        k(    1) = (   0.0000000   0.0000000   0.0000000), wk =   0.0039062
        k(    2) = (  -0.1250000   0.1250000  -0.1250000), wk =   0.0312500
        k(    3) = (  -0.2500000   0.2500000  -0.2500000), wk =   0.0312500
        k(    4) = (  -0.3750000   0.3750000  -0.3750000), wk =   0.0312500
        k(    5) = (   0.5000000  -0.5000000   0.5000000), wk =   0.0156250
        k(    6) = (   0.0000000   0.2500000   0.0000000), wk =   0.0234375
        k(    7) = (  -0.1250000   0.3750000  -0.1250000), wk =   0.0937500
        k(    8) = (  -0.2500000   0.5000000  -0.2500000), wk =   0.0937500
        k(    9) = (   0.6250000  -0.3750000   0.6250000), wk =   0.0937500
        k(   10) = (   0.5000000  -0.2500000   0.5000000), wk =   0.0937500
        k(   11) = (   0.3750000  -0.1250000   0.3750000), wk =   0.0937500
        k(   12) = (   0.2500000   0.0000000   0.2500000), wk =   0.0468750
        k(   13) = (   0.0000000   0.5000000   0.0000000), wk =   0.0234375
        k(   14) = (  -0.1250000   0.6250000  -0.1250000), wk =   0.0937500
        k(   15) = (   0.7500000  -0.2500000   0.7500000), wk =   0.0937500
        k(   16) = (   0.6250000  -0.1250000   0.6250000), wk =   0.0937500
        k(   17) = (   0.5000000   0.0000000   0.5000000), wk =   0.0468750
        k(   18) = (   0.0000000   0.7500000   0.0000000), wk =   0.0234375
        k(   19) = (   0.8750000  -0.1250000   0.8750000), wk =   0.0937500
        k(   20) = (   0.7500000   0.0000000   0.7500000), wk =   0.0468750
        k(   21) = (   0.0000000  -1.0000000   0.0000000), wk =   0.0117188
        k(   22) = (  -0.2500000   0.5000000   0.0000000), wk =   0.0937500
        k(   23) = (   0.6250000  -0.3750000   0.8750000), wk =   0.1875000
        k(   24) = (   0.5000000  -0.2500000   0.7500000), wk =   0.0937500
        k(   25) = (   0.7500000  -0.2500000   1.0000000), wk =   0.0937500
        k(   26) = (   0.6250000  -0.1250000   0.8750000), wk =   0.1875000
        k(   27) = (   0.5000000   0.0000000   0.7500000), wk =   0.0937500
        k(   28) = (  -0.2500000  -1.0000000   0.0000000), wk =   0.0468750
        k(   29) = (  -0.5000000  -1.0000000   0.0000000), wk =   0.0234375

     Dense  grid:    19795 G-vectors     FFT dimensions: (  40,  40,  40)

     Estimated max dynamical RAM per process >       2.68 MB

     Estimated total dynamical RAM >     309.00 MB

     Initial potential from superposition of free atoms

     starting charge       7.9987, renormalised to       8.0000
     Starting wfcs are    8 randomized atomic wfcs

     total cpu time spent up to now is        0.7 secs

     per-process dynamical memory:    10.3 Mb

     Self-consistent Calculation

     iteration #  1     ecut=    60.00 Ry     beta= 0.70
     Davidson diagonalization with overlap
     ethr =  1.00E-02,  avg # of iterations =  2.0

     Threshold (ethr) on eigenvalues was too large:
     Diagonalizing with lowered threshold

     Davidson diagonalization with overlap
     ethr =  5.00E-04,  avg # of iterations =  1.2

     total cpu time spent up to now is        0.8 secs

     total energy              =     -19.17842550 Ry
     estimated scf accuracy    <       0.04281242 Ry

     iteration #  2     ecut=    60.00 Ry     beta= 0.70
     Davidson diagonalization with overlap
     ethr =  5.35E-04,  avg # of iterations =  1.0

     total cpu time spent up to now is        0.8 secs

     total energy              =     -19.17948929 Ry
     estimated scf accuracy    <       0.00249087 Ry

     iteration #  3     ecut=    60.00 Ry     beta= 0.70
     Davidson diagonalization with overlap
     ethr =  3.11E-05,  avg # of iterations =  1.9

     total cpu time spent up to now is        0.8 secs

     total energy              =     -19.17973658 Ry
     estimated scf accuracy    <       0.00002552 Ry

     iteration #  4     ecut=    60.00 Ry     beta= 0.70
     Davidson diagonalization with overlap
     ethr =  3.19E-07,  avg # of iterations =  6.5

     total cpu time spent up to now is        0.9 secs

     total energy              =     -19.17980066 Ry
     estimated scf accuracy    <       0.00000053 Ry

     iteration #  5     ecut=    60.00 Ry     beta= 0.70
     Davidson diagonalization with overlap
     ethr =  6.58E-09,  avg # of iterations =  5.7

     total cpu time spent up to now is        0.9 secs

     End of self-consistent calculation

          k = 0.0000 0.0000 0.0000 (  2445 PWs)   bands (ev):

    -6.2736   4.6934   4.6934   4.6934

          k =-0.1250 0.1250-0.1250 (  2502 PWs)   bands (ev):

    -6.0955   3.0915   4.4470   4.4470

          k =-0.2500 0.2500-0.2500 (  2493 PWs)   bands (ev):

    -5.5791   0.9963   4.0304   4.0304

          k =-0.3750 0.3750-0.3750 (  2458 PWs)   bands (ev):

    -4.8198  -0.7699   3.7329   3.7329

          k = 0.5000-0.5000 0.5000 (  2488 PWs)   bands (ev):

    -4.3064  -1.6258   3.6297   3.6297

          k = 0.0000 0.2500 0.0000 (  2489 PWs)   bands (ev):

    -6.0353   3.1720   4.0191   4.0191

          k =-0.1250 0.3750-0.1250 (  2491 PWs)   bands (ev):

    -5.6276   1.5353   3.5704   3.5709

          k =-0.2500 0.5000-0.2500 (  2489 PWs)   bands (ev):

    -4.9280  -0.2473   3.0322   3.3248

          k = 0.6250-0.3750 0.6250 (  2473 PWs)   bands (ev):

    -4.2195  -1.4813   2.6441   3.3327

          k = 0.5000-0.2500 0.5000 (  2467 PWs)   bands (ev):

    -4.4157  -1.1748   2.5068   3.5807

          k = 0.3750-0.1250 0.3750 (  2479 PWs)   bands (ev):

    -5.1900   0.3197   2.6816   4.0028

          k = 0.2500 0.0000 0.2500 (  2501 PWs)   bands (ev):

    -5.8029   2.0180   3.3263   4.4211

          k = 0.0000 0.5000 0.0000 (  2477 PWs)   bands (ev):

    -5.3297   1.1232   3.0778   3.0778

          k =-0.1250 0.6250-0.1250 (  2471 PWs)   bands (ev):

    -4.7151  -0.1138   2.4007   2.7947

          k = 0.7500-0.2500 0.7500 (  2470 PWs)   bands (ev):

    -3.9351  -1.3257   1.6480   2.7896

          k = 0.6250-0.1250 0.6250 (  2476 PWs)   bands (ev):

    -3.7775  -1.5285   1.2666   3.0591

          k = 0.5000 0.0000 0.5000 (  2461 PWs)   bands (ev):

    -4.5098  -0.5461   1.5041   3.5344

          k = 0.0000 0.7500 0.0000 (  2470 PWs)   bands (ev):

    -4.1873  -0.8585   2.4466   2.4466

          k = 0.8750-0.1250 0.8750 (  2470 PWs)   bands (ev):

    -3.4158  -1.8119   1.7757   2.3770

          k = 0.7500 0.0000 0.7500 (  2482 PWs)   bands (ev):

    -3.0788  -2.1319   1.0706   2.5979

          k = 0.0000-1.0000 0.0000 (  2466 PWs)   bands (ev):

    -2.6662  -2.6662   2.2294   2.2294

          k =-0.2500 0.5000 0.0000 (  2485 PWs)   bands (ev):

    -5.1183   0.5037   2.3885   3.4485

          k = 0.6250-0.3750 0.8750 (  2471 PWs)   bands (ev):

    -4.3614  -0.8261   1.8167   3.0398

          k = 0.5000-0.2500 0.7500 (  2458 PWs)   bands (ev):

    -3.8309  -1.5989   1.6738   2.8538

          k = 0.7500-0.2500 1.0000 (  2474 PWs)   bands (ev):

    -4.0249  -1.0499   1.8301   2.3531

          k = 0.6250-0.1250 0.8750 (  2473 PWs)   bands (ev):

    -3.2946  -1.8839   1.2549   2.1857

          k = 0.5000 0.0000 0.7500 (  2476 PWs)   bands (ev):

    -3.5971  -1.5583   1.1180   2.4988

          k =-0.2500-1.0000 0.0000 (  2468 PWs)   bands (ev):

    -2.6152  -2.6152   1.7940   1.7940

          k =-0.5000-1.0000 0.0000 (  2488 PWs)   bands (ev):

    -2.5608  -2.5608   1.4522   1.4522

     highest occupied level (ev):     4.6934

!    total energy              =     -19.17980157 Ry
     estimated scf accuracy    <          3.1E-09 Ry

     The total energy is the sum of the following terms:
     one-electron contribution =       3.96884286 Ry
     hartree contribution      =       1.25679300 Ry
     xc contribution           =      -8.45013868 Ry
     ewald contribution        =     -15.95529874 Ry

     convergence has been achieved in   5 iterations

     Writing all to output data dir ./si-dia/si-dia.save/ :
     XML data file, charge density, pseudopotentials, collected wavefunctions

     init_run     :      0.36s CPU      0.42s WALL (       1 calls)
     electrons    :      0.15s CPU      0.23s WALL (       1 calls)

     Called by init_run:
     wfcinit      :      0.02s CPU      0.02s WALL (       1 calls)
     potinit      :      0.01s CPU      0.02s WALL (       1 calls)
     hinit0       :      0.32s CPU      0.34s WALL (       1 calls)

     Called by electrons:
     c_bands      :      0.08s CPU      0.12s WALL (       6 calls)
     sum_band     :      0.03s CPU      0.04s WALL (       6 calls)
     v_of_rho     :      0.02s CPU      0.03s WALL (       6 calls)
     newd         :      0.01s CPU      0.01s WALL (       6 calls)
     mix_rho      :      0.00s CPU      0.00s WALL (       6 calls)

     Called by c_bands:
     init_us_2    :      0.00s CPU      0.00s WALL (      52 calls)
     cegterg      :      0.07s CPU      0.09s WALL (      24 calls)

     Called by *egterg:
     cdiaghg      :      0.00s CPU      0.01s WALL (      96 calls)
     h_psi        :      0.07s CPU      0.08s WALL (     104 calls)
     s_psi        :      0.00s CPU      0.00s WALL (     104 calls)
     g_psi        :      0.00s CPU      0.00s WALL (      76 calls)

     Called by h_psi:
     h_psi:calbec :      0.01s CPU      0.01s WALL (     104 calls)
     vloc_psi     :      0.06s CPU      0.07s WALL (     104 calls)
     add_vuspsi   :      0.00s CPU      0.00s WALL (     104 calls)

     General routines
     calbec       :      0.01s CPU      0.01s WALL (     128 calls)
     fft          :      0.30s CPU      0.31s WALL (      67 calls)
     ffts         :      0.00s CPU      0.00s WALL (       6 calls)
     fftw         :      0.07s CPU      0.07s WALL (     812 calls)

     Parallel routines

     PWSCF        :      0.72s CPU      1.05s WALL


   This run was terminated on:  14:47:59   9Feb2026            

=------------------------------------------------------------------------------=
   JOB DONE.
=------------------------------------------------------------------------------=
