
     Program PWSCF v.7.3.1 starts on  9Feb2026 at 14:48: 2 

     This program is part of the open-source Quantum ESPRESSO suite
     for quantum simulation of materials; please cite
         "P. Giannozzi et al., J. Phys.:Condens. Matter 21 395502 (2009);
         "P. Giannozzi et al., J. Phys.:Condens. Matter 29 465901 (2017);
         "P. Giannozzi et al., J. Chem. Phys. 152 154105 (2020);
          URL http://www.quantum-espresso.org", 
     in publications or presentations arising from this work. More details at
     http://www.quantum-espresso.org/quote

     Parallel version (MPI), running on   128 processors

     MPI processes distributed on     1 nodes
     241485 MiB available memory on the printing compute node when the environment starts

     Waiting for input...
     Reading input from standard input

     Current dimensions of program PWSCF are:
     Max number of different atomic species (ntypx) = 10
     Max number of k-points (npk) =  40000
     Max angular momentum in pseudopotentials (lmaxx) =  4

     K-points division:     npool     =       8
     R & G space division:  proc/nbgrp/npool/nimage =      16
     Subspace diagonalization in iterative solution of the eigenvalue problem:
     a serial algorithm will be used


     Parallelization info
     --------------------
     sticks:   dense  smooth     PW     G-vecs:    dense   smooth      PW
     Min          59      59     18                 1239     1239     204
     Max          60      60     19                 1245     1245     206
     Sum         955     955    295                19891    19891    3287

     Using Slab Decomposition



     bravais-lattice index     =            2
     lattice parameter (alat)  =      10.8243  a.u.
     unit-cell volume          =     317.0586 (a.u.)^3
     number of atoms/cell      =            2
     number of atomic types    =            1
     number of electrons       =         8.00
     number of Kohn-Sham states=            4
     kinetic-energy cutoff     =      60.0000  Ry
     charge density cutoff     =     240.0000  Ry
     scf convergence threshold =      1.0E-07
     mixing beta               =       0.7000
     number of iterations used =            8  plain     mixing
     Exchange-correlation=  SLA  PW   PBE  PBE
                           (   1   4   3   4   0   0   0)

     celldm(1)=  10.824300  celldm(2)=   0.000000  celldm(3)=   0.000000
     celldm(4)=   0.000000  celldm(5)=   0.000000  celldm(6)=   0.000000

     crystal axes: (cart. coord. in units of alat)
               a(1) = (  -0.500000   0.000000   0.500000 )  
               a(2) = (   0.000000   0.500000   0.500000 )  
               a(3) = (  -0.500000   0.500000   0.000000 )  

     reciprocal axes: (cart. coord. in units 2 pi/alat)
               b(1) = ( -1.000000 -1.000000  1.000000 )  
               b(2) = (  1.000000  1.000000  1.000000 )  
               b(3) = ( -1.000000  1.000000 -1.000000 )  


     PseudoPot. # 1 for Si read from file:
     ./Si.pbe-n-van.UPF
     MD5 check sum: 8a97496598b7338af554a5de8957bfee
     Pseudo is Ultrasoft + core correction, Zval =  4.0
     Generated by new atomic code, or converted to UPF format
     Using radial grid of  899 points,  6 beta functions with: 
                l(1) =   0
                l(2) =   0
                l(3) =   1
                l(4) =   1
                l(5) =   2
                l(6) =   2
     Q(r) pseudized with  8 coefficients,  rinner =    0.900   0.900   0.900
                                                       0.900   0.900

     atomic species   valence    mass     pseudopotential
     Si                4.00    28.08600     Si( 1.00)

     48 Sym. Ops., with inversion, found (24 have fractional translation)



   Cartesian axes

     site n.     atom                  positions (alat units)
         1        Si     tau(   1) = (  -0.7500000   0.7500000   0.7500000  )
         2        Si     tau(   2) = (   0.0000000   0.0000000   0.0000000  )

     number of k points=    29
                       cart. coord. in units 2pi/alat
        k(    1) = (   0.0000000   0.0000000   0.0000000), wk =   0.0039062
        k(    2) = (  -0.1250000   0.1250000  -0.1250000), wk =   0.0312500
        k(    3) = (  -0.2500000   0.2500000  -0.2500000), wk =   0.0312500
        k(    4) = (  -0.3750000   0.3750000  -0.3750000), wk =   0.0312500
        k(    5) = (   0.5000000  -0.5000000   0.5000000), wk =   0.0156250
        k(    6) = (   0.0000000   0.2500000   0.0000000), wk =   0.0234375
        k(    7) = (  -0.1250000   0.3750000  -0.1250000), wk =   0.0937500
        k(    8) = (  -0.2500000   0.5000000  -0.2500000), wk =   0.0937500
        k(    9) = (   0.6250000  -0.3750000   0.6250000), wk =   0.0937500
        k(   10) = (   0.5000000  -0.2500000   0.5000000), wk =   0.0937500
        k(   11) = (   0.3750000  -0.1250000   0.3750000), wk =   0.0937500
        k(   12) = (   0.2500000   0.0000000   0.2500000), wk =   0.0468750
        k(   13) = (   0.0000000   0.5000000   0.0000000), wk =   0.0234375
        k(   14) = (  -0.1250000   0.6250000  -0.1250000), wk =   0.0937500
        k(   15) = (   0.7500000  -0.2500000   0.7500000), wk =   0.0937500
        k(   16) = (   0.6250000  -0.1250000   0.6250000), wk =   0.0937500
        k(   17) = (   0.5000000   0.0000000   0.5000000), wk =   0.0468750
        k(   18) = (   0.0000000   0.7500000   0.0000000), wk =   0.0234375
        k(   19) = (   0.8750000  -0.1250000   0.8750000), wk =   0.0937500
        k(   20) = (   0.7500000   0.0000000   0.7500000), wk =   0.0468750
        k(   21) = (   0.0000000  -1.0000000   0.0000000), wk =   0.0117188
        k(   22) = (  -0.2500000   0.5000000   0.0000000), wk =   0.0937500
        k(   23) = (   0.6250000  -0.3750000   0.8750000), wk =   0.1875000
        k(   24) = (   0.5000000  -0.2500000   0.7500000), wk =   0.0937500
        k(   25) = (   0.7500000  -0.2500000   1.0000000), wk =   0.0937500
        k(   26) = (   0.6250000  -0.1250000   0.8750000), wk =   0.1875000
        k(   27) = (   0.5000000   0.0000000   0.7500000), wk =   0.0937500
        k(   28) = (  -0.2500000  -1.0000000   0.0000000), wk =   0.0468750
        k(   29) = (  -0.5000000  -1.0000000   0.0000000), wk =   0.0234375

     Dense  grid:    19891 G-vectors     FFT dimensions: (  40,  40,  40)

     Estimated max dynamical RAM per process >       2.69 MB

     Estimated total dynamical RAM >     309.65 MB

     Initial potential from superposition of free atoms

     starting charge       7.9987, renormalised to       8.0000
     Starting wfcs are    8 randomized atomic wfcs

     total cpu time spent up to now is        0.7 secs

     per-process dynamical memory:    10.1 Mb

     Self-consistent Calculation

     iteration #  1     ecut=    60.00 Ry     beta= 0.70
     Davidson diagonalization with overlap
     ethr =  1.00E-02,  avg # of iterations =  2.0

     Threshold (ethr) on eigenvalues was too large:
     Diagonalizing with lowered threshold

     Davidson diagonalization with overlap
     ethr =  4.96E-04,  avg # of iterations =  1.2

     total cpu time spent up to now is        0.8 secs

     total energy              =     -19.17736585 Ry
     estimated scf accuracy    <       0.04235542 Ry

     iteration #  2     ecut=    60.00 Ry     beta= 0.70
     Davidson diagonalization with overlap
     ethr =  5.29E-04,  avg # of iterations =  1.0

     total cpu time spent up to now is        0.8 secs

     total energy              =     -19.17839711 Ry
     estimated scf accuracy    <       0.00249516 Ry

     iteration #  3     ecut=    60.00 Ry     beta= 0.70
     Davidson diagonalization with overlap
     ethr =  3.12E-05,  avg # of iterations =  1.8

     total cpu time spent up to now is        0.8 secs

     total energy              =     -19.17863719 Ry
     estimated scf accuracy    <       0.00002456 Ry

     iteration #  4     ecut=    60.00 Ry     beta= 0.70
     Davidson diagonalization with overlap
     ethr =  3.07E-07,  avg # of iterations =  6.5

     total cpu time spent up to now is        0.8 secs

     total energy              =     -19.17870640 Ry
     estimated scf accuracy    <       0.00000054 Ry

     iteration #  5     ecut=    60.00 Ry     beta= 0.70
     Davidson diagonalization with overlap
     ethr =  6.77E-09,  avg # of iterations =  5.6

     total cpu time spent up to now is        0.9 secs

     End of self-consistent calculation

          k = 0.0000 0.0000 0.0000 (  2445 PWs)   bands (ev):

    -6.2911   4.6420   4.6420   4.6420

          k =-0.1250 0.1250-0.1250 (  2508 PWs)   bands (ev):

    -6.1139   3.0374   4.3971   4.3971

          k =-0.2500 0.2500-0.2500 (  2502 PWs)   bands (ev):

    -5.6002   0.9510   3.9824   3.9824

          k =-0.3750 0.3750-0.3750 (  2482 PWs)   bands (ev):

    -4.8455  -0.8061   3.6861   3.6861

          k = 0.5000-0.5000 0.5000 (  2488 PWs)   bands (ev):

    -4.3363  -1.6564   3.5832   3.5832

          k = 0.0000 0.2500 0.0000 (  2533 PWs)   bands (ev):

    -6.0540   3.1117   3.9722   3.9722

          k =-0.1250 0.3750-0.1250 (  2514 PWs)   bands (ev):

    -5.6484   1.4839   3.5236   3.5263

          k =-0.2500 0.5000-0.2500 (  2489 PWs)   bands (ev):

    -4.9529  -0.2885   2.9871   3.2810

          k = 0.6250-0.3750 0.6250 (  2484 PWs)   bands (ev):

    -4.2495  -1.5145   2.6010   3.2884

          k = 0.5000-0.2500 0.5000 (  2494 PWs)   bands (ev):

    -4.4440  -1.2102   2.4651   3.5347

          k = 0.3750-0.1250 0.3750 (  2492 PWs)   bands (ev):

    -5.2133   0.2752   2.6407   3.9545

          k = 0.2500 0.0000 0.2500 (  2501 PWs)   bands (ev):

    -5.8228   1.9648   3.2838   4.3706

          k = 0.0000 0.5000 0.0000 (  2477 PWs)   bands (ev):

    -5.3520   1.0686   3.0359   3.0359

          k =-0.1250 0.6250-0.1250 (  2483 PWs)   bands (ev):

    -4.7407  -0.1618   2.3624   2.7540

          k = 0.7500-0.2500 0.7500 (  2482 PWs)   bands (ev):

    -3.9657  -1.3659   1.6138   2.7487

          k = 0.6250-0.1250 0.6250 (  2493 PWs)   bands (ev):

    -3.8096  -1.5669   1.2349   3.0165

          k = 0.5000 0.0000 0.5000 (  2493 PWs)   bands (ev):

    -4.5370  -0.5904   1.4721   3.4890

          k = 0.0000 0.7500 0.0000 (  2478 PWs)   bands (ev):

    -4.2155  -0.9041   2.4077   2.4077

          k = 0.8750-0.1250 0.8750 (  2482 PWs)   bands (ev):

    -3.4485  -1.8527   1.7420   2.3383

          k = 0.7500 0.0000 0.7500 (  2482 PWs)   bands (ev):

    -3.1147  -2.1702   1.0423   2.5580

          k = 0.0000-1.0000 0.0000 (  2498 PWs)   bands (ev):

    -2.7025  -2.7025   2.1915   2.1915

          k =-0.2500 0.5000 0.0000 (  2495 PWs)   bands (ev):

    -5.1418   0.4543   2.3511   3.4035

          k = 0.6250-0.3750 0.8750 (  2480 PWs)   bands (ev):

    -4.3895  -0.8678   1.7810   2.9979

          k = 0.5000-0.2500 0.7500 (  2494 PWs)   bands (ev):

    -3.8630  -1.6350   1.6378   2.8133

          k = 0.7500-0.2500 1.0000 (  2483 PWs)   bands (ev):

    -4.0544  -1.0944   1.7959   2.3160

          k = 0.6250-0.1250 0.8750 (  2487 PWs)   bands (ev):

    -3.3290  -1.9239   1.2248   2.1497

          k = 0.5000 0.0000 0.7500 (  2482 PWs)   bands (ev):

    -3.6298  -1.5996   1.0889   2.4607

          k =-0.2500-1.0000 0.0000 (  2496 PWs)   bands (ev):

    -2.6523  -2.6523   1.7603   1.7603

          k =-0.5000-1.0000 0.0000 (  2488 PWs)   bands (ev):

    -2.5988  -2.5988   1.4215   1.4215

     highest occupied level (ev):     4.6420

!    total energy              =     -19.17870724 Ry
     estimated scf accuracy    <          4.3E-09 Ry

     The total energy is the sum of the following terms:
     one-electron contribution =       3.92832893 Ry
     hartree contribution      =       1.26212991 Ry
     xc contribution           =      -8.44411435 Ry
     ewald contribution        =     -15.92505173 Ry

     convergence has been achieved in   5 iterations

     Writing all to output data dir ./si-dia/si-dia.save/ :
     XML data file, charge density, pseudopotentials, collected wavefunctions

     init_run     :      0.38s CPU      0.42s WALL (       1 calls)
     electrons    :      0.17s CPU      0.21s WALL (       1 calls)

     Called by init_run:
     wfcinit      :      0.01s CPU      0.02s WALL (       1 calls)
     potinit      :      0.01s CPU      0.02s WALL (       1 calls)
     hinit0       :      0.33s CPU      0.34s WALL (       1 calls)

     Called by electrons:
     c_bands      :      0.10s CPU      0.11s WALL (       6 calls)
     sum_band     :      0.03s CPU      0.04s WALL (       6 calls)
     v_of_rho     :      0.02s CPU      0.03s WALL (       6 calls)
     newd         :      0.01s CPU      0.01s WALL (       6 calls)
     mix_rho      :      0.00s CPU      0.00s WALL (       6 calls)

     Called by c_bands:
     init_us_2    :      0.00s CPU      0.00s WALL (      52 calls)
     cegterg      :      0.08s CPU      0.08s WALL (      24 calls)

     Called by *egterg:
     cdiaghg      :      0.00s CPU      0.01s WALL (      97 calls)
     h_psi        :      0.07s CPU      0.08s WALL (     105 calls)
     s_psi        :      0.00s CPU      0.00s WALL (     105 calls)
     g_psi        :      0.00s CPU      0.00s WALL (      77 calls)

     Called by h_psi:
     h_psi:calbec :      0.01s CPU      0.01s WALL (     105 calls)
     vloc_psi     :      0.06s CPU      0.06s WALL (     105 calls)
     add_vuspsi   :      0.00s CPU      0.00s WALL (     105 calls)

     General routines
     calbec       :      0.01s CPU      0.01s WALL (     129 calls)
     fft          :      0.30s CPU      0.31s WALL (      67 calls)
     ffts         :      0.00s CPU      0.00s WALL (       6 calls)
     fftw         :      0.06s CPU      0.07s WALL (     812 calls)

     Parallel routines

     PWSCF        :      0.79s CPU      1.05s WALL


   This run was terminated on:  14:48: 3   9Feb2026            

=------------------------------------------------------------------------------=
   JOB DONE.
=------------------------------------------------------------------------------=
