
     Program PWSCF v.7.3.1 starts on  9Feb2026 at 14:48:45 

     This program is part of the open-source Quantum ESPRESSO suite
     for quantum simulation of materials; please cite
         "P. Giannozzi et al., J. Phys.:Condens. Matter 21 395502 (2009);
         "P. Giannozzi et al., J. Phys.:Condens. Matter 29 465901 (2017);
         "P. Giannozzi et al., J. Chem. Phys. 152 154105 (2020);
          URL http://www.quantum-espresso.org", 
     in publications or presentations arising from this work. More details at
     http://www.quantum-espresso.org/quote

     Parallel version (MPI), running on   128 processors

     MPI processes distributed on     1 nodes
     241494 MiB available memory on the printing compute node when the environment starts

     Waiting for input...
     Reading input from standard input

     Current dimensions of program PWSCF are:
     Max number of different atomic species (ntypx) = 10
     Max number of k-points (npk) =  40000
     Max angular momentum in pseudopotentials (lmaxx) =  4

     K-points division:     npool     =       8
     R & G space division:  proc/nbgrp/npool/nimage =      16
     Subspace diagonalization in iterative solution of the eigenvalue problem:
     a serial algorithm will be used


     Parallelization info
     --------------------
     sticks:   dense  smooth     PW     G-vecs:    dense   smooth      PW
     Min          62      62     18                 1300     1300     215
     Max          63      63     19                 1303     1303     218
     Sum        1003    1003    301                20827    20827    3479

     Using Slab Decomposition



     bravais-lattice index     =            2
     lattice parameter (alat)  =      10.9885  a.u.
     unit-cell volume          =     331.7038 (a.u.)^3
     number of atoms/cell      =            2
     number of atomic types    =            1
     number of electrons       =         8.00
     number of Kohn-Sham states=            4
     kinetic-energy cutoff     =      60.0000  Ry
     charge density cutoff     =     240.0000  Ry
     scf convergence threshold =      1.0E-07
     mixing beta               =       0.7000
     number of iterations used =            8  plain     mixing
     Exchange-correlation=  SLA  PW   PBE  PBE
                           (   1   4   3   4   0   0   0)

     celldm(1)=  10.988460  celldm(2)=   0.000000  celldm(3)=   0.000000
     celldm(4)=   0.000000  celldm(5)=   0.000000  celldm(6)=   0.000000

     crystal axes: (cart. coord. in units of alat)
               a(1) = (  -0.500000   0.000000   0.500000 )  
               a(2) = (   0.000000   0.500000   0.500000 )  
               a(3) = (  -0.500000   0.500000   0.000000 )  

     reciprocal axes: (cart. coord. in units 2 pi/alat)
               b(1) = ( -1.000000 -1.000000  1.000000 )  
               b(2) = (  1.000000  1.000000  1.000000 )  
               b(3) = ( -1.000000  1.000000 -1.000000 )  


     PseudoPot. # 1 for Si read from file:
     ./Si.pbe-n-van.UPF
     MD5 check sum: 8a97496598b7338af554a5de8957bfee
     Pseudo is Ultrasoft + core correction, Zval =  4.0
     Generated by new atomic code, or converted to UPF format
     Using radial grid of  899 points,  6 beta functions with: 
                l(1) =   0
                l(2) =   0
                l(3) =   1
                l(4) =   1
                l(5) =   2
                l(6) =   2
     Q(r) pseudized with  8 coefficients,  rinner =    0.900   0.900   0.900
                                                       0.900   0.900

     atomic species   valence    mass     pseudopotential
     Si                4.00    28.08600     Si( 1.00)

     48 Sym. Ops., with inversion, found (24 have fractional translation)



   Cartesian axes

     site n.     atom                  positions (alat units)
         1        Si     tau(   1) = (  -0.7500000   0.7500000   0.7500000  )
         2        Si     tau(   2) = (   0.0000000   0.0000000   0.0000000  )

     number of k points=    29
                       cart. coord. in units 2pi/alat
        k(    1) = (   0.0000000   0.0000000   0.0000000), wk =   0.0039062
        k(    2) = (  -0.1250000   0.1250000  -0.1250000), wk =   0.0312500
        k(    3) = (  -0.2500000   0.2500000  -0.2500000), wk =   0.0312500
        k(    4) = (  -0.3750000   0.3750000  -0.3750000), wk =   0.0312500
        k(    5) = (   0.5000000  -0.5000000   0.5000000), wk =   0.0156250
        k(    6) = (   0.0000000   0.2500000   0.0000000), wk =   0.0234375
        k(    7) = (  -0.1250000   0.3750000  -0.1250000), wk =   0.0937500
        k(    8) = (  -0.2500000   0.5000000  -0.2500000), wk =   0.0937500
        k(    9) = (   0.6250000  -0.3750000   0.6250000), wk =   0.0937500
        k(   10) = (   0.5000000  -0.2500000   0.5000000), wk =   0.0937500
        k(   11) = (   0.3750000  -0.1250000   0.3750000), wk =   0.0937500
        k(   12) = (   0.2500000   0.0000000   0.2500000), wk =   0.0468750
        k(   13) = (   0.0000000   0.5000000   0.0000000), wk =   0.0234375
        k(   14) = (  -0.1250000   0.6250000  -0.1250000), wk =   0.0937500
        k(   15) = (   0.7500000  -0.2500000   0.7500000), wk =   0.0937500
        k(   16) = (   0.6250000  -0.1250000   0.6250000), wk =   0.0937500
        k(   17) = (   0.5000000   0.0000000   0.5000000), wk =   0.0468750
        k(   18) = (   0.0000000   0.7500000   0.0000000), wk =   0.0234375
        k(   19) = (   0.8750000  -0.1250000   0.8750000), wk =   0.0937500
        k(   20) = (   0.7500000   0.0000000   0.7500000), wk =   0.0468750
        k(   21) = (   0.0000000  -1.0000000   0.0000000), wk =   0.0117188
        k(   22) = (  -0.2500000   0.5000000   0.0000000), wk =   0.0937500
        k(   23) = (   0.6250000  -0.3750000   0.8750000), wk =   0.1875000
        k(   24) = (   0.5000000  -0.2500000   0.7500000), wk =   0.0937500
        k(   25) = (   0.7500000  -0.2500000   1.0000000), wk =   0.0937500
        k(   26) = (   0.6250000  -0.1250000   0.8750000), wk =   0.1875000
        k(   27) = (   0.5000000   0.0000000   0.7500000), wk =   0.0937500
        k(   28) = (  -0.2500000  -1.0000000   0.0000000), wk =   0.0468750
        k(   29) = (  -0.5000000  -1.0000000   0.0000000), wk =   0.0234375

     Dense  grid:    20827 G-vectors     FFT dimensions: (  40,  40,  40)

     Estimated max dynamical RAM per process >       2.74 MB

     Estimated total dynamical RAM >     314.53 MB

     Initial potential from superposition of free atoms

     starting charge       7.9987, renormalised to       8.0000
     Starting wfcs are    8 randomized atomic wfcs

     total cpu time spent up to now is        0.7 secs

     per-process dynamical memory:    10.2 Mb

     Self-consistent Calculation

     iteration #  1     ecut=    60.00 Ry     beta= 0.70
     Davidson diagonalization with overlap
     ethr =  1.00E-02,  avg # of iterations =  2.0

     Threshold (ethr) on eigenvalues was too large:
     Diagonalizing with lowered threshold

     Davidson diagonalization with overlap
     ethr =  4.58E-04,  avg # of iterations =  1.2

     total cpu time spent up to now is        0.8 secs

     total energy              =     -19.16765817 Ry
     estimated scf accuracy    <       0.03921196 Ry

     iteration #  2     ecut=    60.00 Ry     beta= 0.70
     Davidson diagonalization with overlap
     ethr =  4.90E-04,  avg # of iterations =  1.0

     total cpu time spent up to now is        0.8 secs

     total energy              =     -19.16847673 Ry
     estimated scf accuracy    <       0.00247378 Ry

     iteration #  3     ecut=    60.00 Ry     beta= 0.70
     Davidson diagonalization with overlap
     ethr =  3.09E-05,  avg # of iterations =  1.8

     total cpu time spent up to now is        0.8 secs

     total energy              =     -19.16868205 Ry
     estimated scf accuracy    <       0.00002086 Ry

     iteration #  4     ecut=    60.00 Ry     beta= 0.70
     Davidson diagonalization with overlap
     ethr =  2.61E-07,  avg # of iterations =  6.4

     total cpu time spent up to now is        0.9 secs

     total energy              =     -19.16874663 Ry
     estimated scf accuracy    <       0.00000048 Ry

     iteration #  5     ecut=    60.00 Ry     beta= 0.70
     Davidson diagonalization with overlap
     ethr =  6.02E-09,  avg # of iterations =  5.8

     total cpu time spent up to now is        0.9 secs

     End of self-consistent calculation

          k = 0.0000 0.0000 0.0000 (  2637 PWs)   bands (ev):

    -6.4263   4.2440   4.2440   4.2440

          k =-0.1250 0.1250-0.1250 (  2640 PWs)   bands (ev):

    -6.2563   2.6100   4.0104   4.0104

          k =-0.2500 0.2500-0.2500 (  2611 PWs)   bands (ev):

    -5.7643   0.5945   3.6111   3.6111

          k =-0.3750 0.3750-0.3750 (  2599 PWs)   bands (ev):

    -5.0458  -1.0901   3.3237   3.3237

          k = 0.5000-0.5000 0.5000 (  2608 PWs)   bands (ev):

    -4.5678  -1.8966   3.2236   3.2236

          k = 0.0000 0.2500 0.0000 (  2633 PWs)   bands (ev):

    -6.1988   2.6362   3.6088   3.6088

          k =-0.1250 0.3750-0.1250 (  2611 PWs)   bands (ev):

    -5.8099   1.0801   3.1617   3.1806

          k =-0.2500 0.5000-0.2500 (  2609 PWs)   bands (ev):

    -5.1457  -0.6122   2.6391   2.9419

          k = 0.6250-0.3750 0.6250 (  2600 PWs)   bands (ev):

    -4.4818  -1.7760   2.2679   2.9455

          k = 0.5000-0.2500 0.5000 (  2595 PWs)   bands (ev):

    -4.6642  -1.4886   2.1435   3.1793

          k = 0.3750-0.1250 0.3750 (  2606 PWs)   bands (ev):

    -5.3942  -0.0744   2.3249   3.5806

          k = 0.2500 0.0000 0.2500 (  2619 PWs)   bands (ev):

    -5.9772   1.5463   2.9548   3.9795

          k = 0.0000 0.5000 0.0000 (  2610 PWs)   bands (ev):

    -5.5253   0.6424   2.7114   2.7114

          k =-0.1250 0.6250-0.1250 (  2604 PWs)   bands (ev):

    -4.9400  -0.5364   2.0667   2.4393

          k = 0.7500-0.2500 0.7500 (  2596 PWs)   bands (ev):

    -4.2037  -1.6801   1.3494   2.4321

          k = 0.6250-0.1250 0.6250 (  2593 PWs)   bands (ev):

    -4.0590  -1.8673   0.9911   2.6869

          k = 0.5000 0.0000 0.5000 (  2622 PWs)   bands (ev):

    -4.7484  -0.9363   1.2247   3.1374

          k = 0.0000 0.7500 0.0000 (  2594 PWs)   bands (ev):

    -4.4354  -1.2592   2.1069   2.1069

          k = 0.8750-0.1250 0.8750 (  2593 PWs)   bands (ev):

    -3.7024  -2.1709   1.4813   2.0394

          k = 0.7500 0.0000 0.7500 (  2600 PWs)   bands (ev):

    -3.3933  -2.4688   0.8230   2.2492

          k = 0.0000-1.0000 0.0000 (  2586 PWs)   bands (ev):

    -2.9850  -2.9850   1.8985   1.8985

          k =-0.2500 0.5000 0.0000 (  2609 PWs)   bands (ev):

    -5.3248   0.0678   2.0620   3.0557

          k = 0.6250-0.3750 0.8750 (  2603 PWs)   bands (ev):

    -4.6078  -1.1949   1.5057   2.6734

          k = 0.5000-0.2500 0.7500 (  2600 PWs)   bands (ev):

    -4.1120  -1.9180   1.3606   2.4997

          k = 0.7500-0.2500 1.0000 (  2596 PWs)   bands (ev):

    -4.2837  -1.4413   1.5310   2.0282

          k = 0.6250-0.1250 0.8750 (  2605 PWs)   bands (ev):

    -3.5958  -2.2350   0.9921   1.8710

          k = 0.5000 0.0000 0.7500 (  2611 PWs)   bands (ev):

    -3.8838  -1.9211   0.8638   2.1656

          k =-0.2500-1.0000 0.0000 (  2590 PWs)   bands (ev):

    -2.9410  -2.9410   1.4992   1.4992

          k =-0.5000-1.0000 0.0000 (  2608 PWs)   bands (ev):

    -2.8945  -2.8945   1.1839   1.1839

     highest occupied level (ev):     4.2440

!    total energy              =     -19.16874742 Ry
     estimated scf accuracy    <          5.7E-09 Ry

     The total energy is the sum of the following terms:
     one-electron contribution =       3.61070618 Ry
     hartree contribution      =       1.30507303 Ry
     xc contribution           =      -8.39738417 Ry
     ewald contribution        =     -15.68714246 Ry

     convergence has been achieved in   5 iterations

     Writing all to output data dir ./si-dia/si-dia.save/ :
     XML data file, charge density, pseudopotentials, collected wavefunctions

     init_run     :      0.38s CPU      0.41s WALL (       1 calls)
     electrons    :      0.15s CPU      0.21s WALL (       1 calls)

     Called by init_run:
     wfcinit      :      0.01s CPU      0.02s WALL (       1 calls)
     potinit      :      0.02s CPU      0.02s WALL (       1 calls)
     hinit0       :      0.33s CPU      0.34s WALL (       1 calls)

     Called by electrons:
     c_bands      :      0.09s CPU      0.11s WALL (       6 calls)
     sum_band     :      0.03s CPU      0.04s WALL (       6 calls)
     v_of_rho     :      0.03s CPU      0.03s WALL (       6 calls)
     newd         :      0.01s CPU      0.01s WALL (       6 calls)
     mix_rho      :      0.00s CPU      0.00s WALL (       6 calls)

     Called by c_bands:
     init_us_2    :      0.00s CPU      0.00s WALL (      52 calls)
     cegterg      :      0.07s CPU      0.08s WALL (      24 calls)

     Called by *egterg:
     cdiaghg      :      0.00s CPU      0.01s WALL (      95 calls)
     h_psi        :      0.07s CPU      0.08s WALL (     103 calls)
     s_psi        :      0.00s CPU      0.00s WALL (     103 calls)
     g_psi        :      0.00s CPU      0.00s WALL (      75 calls)

     Called by h_psi:
     h_psi:calbec :      0.01s CPU      0.01s WALL (     103 calls)
     vloc_psi     :      0.06s CPU      0.07s WALL (     103 calls)
     add_vuspsi   :      0.00s CPU      0.00s WALL (     103 calls)

     General routines
     calbec       :      0.01s CPU      0.01s WALL (     127 calls)
     fft          :      0.30s CPU      0.31s WALL (      67 calls)
     ffts         :      0.00s CPU      0.00s WALL (       6 calls)
     fftw         :      0.06s CPU      0.07s WALL (     808 calls)

     Parallel routines

     PWSCF        :      0.75s CPU      1.04s WALL


   This run was terminated on:  14:48:46   9Feb2026            

=------------------------------------------------------------------------------=
   JOB DONE.
=------------------------------------------------------------------------------=
