
     Program PWSCF v.7.3.1 starts on  6Feb2026 at 15:34:21 

     This program is part of the open-source Quantum ESPRESSO suite
     for quantum simulation of materials; please cite
         "P. Giannozzi et al., J. Phys.:Condens. Matter 21 395502 (2009);
         "P. Giannozzi et al., J. Phys.:Condens. Matter 29 465901 (2017);
         "P. Giannozzi et al., J. Chem. Phys. 152 154105 (2020);
          URL http://www.quantum-espresso.org", 
     in publications or presentations arising from this work. More details at
     http://www.quantum-espresso.org/quote

     Parallel version (MPI), running on   128 processors

     MPI processes distributed on     1 nodes
     241373 MiB available memory on the printing compute node when the environment starts

     Waiting for input...
     Reading input from standard input

     Current dimensions of program PWSCF are:
     Max number of different atomic species (ntypx) = 10
     Max number of k-points (npk) =  40000
     Max angular momentum in pseudopotentials (lmaxx) =  4

     K-points division:     npool     =       8
     R & G space division:  proc/nbgrp/npool/nimage =      16
     Subspace diagonalization in iterative solution of the eigenvalue problem:
     a serial algorithm will be used


     Parallelization info
     --------------------
     sticks:   dense  smooth     PW     G-vecs:    dense   smooth      PW
     Min          62      62     18                 1300     1300     215
     Max          63      63     19                 1303     1303     218
     Sum        1003    1003    301                20827    20827    3479

     Using Slab Decomposition



     bravais-lattice index     =            2
     lattice parameter (alat)  =      10.9987  a.u.
     unit-cell volume          =     332.6339 (a.u.)^3
     number of atoms/cell      =            2
     number of atomic types    =            1
     number of electrons       =         8.00
     number of Kohn-Sham states=            4
     kinetic-energy cutoff     =      60.0000  Ry
     charge density cutoff     =     240.0000  Ry
     scf convergence threshold =      1.0E-07
     mixing beta               =       0.7000
     number of iterations used =            8  plain     mixing
     Exchange-correlation=  SLA  PW   PBE  PBE
                           (   1   4   3   4   0   0   0)

     celldm(1)=  10.998720  celldm(2)=   0.000000  celldm(3)=   0.000000
     celldm(4)=   0.000000  celldm(5)=   0.000000  celldm(6)=   0.000000

     crystal axes: (cart. coord. in units of alat)
               a(1) = (  -0.500000   0.000000   0.500000 )  
               a(2) = (   0.000000   0.500000   0.500000 )  
               a(3) = (  -0.500000   0.500000   0.000000 )  

     reciprocal axes: (cart. coord. in units 2 pi/alat)
               b(1) = ( -1.000000 -1.000000  1.000000 )  
               b(2) = (  1.000000  1.000000  1.000000 )  
               b(3) = ( -1.000000  1.000000 -1.000000 )  


     PseudoPot. # 1 for Si read from file:
     ./Si.pbe-n-van.UPF
     MD5 check sum: 8a97496598b7338af554a5de8957bfee
     Pseudo is Ultrasoft + core correction, Zval =  4.0
     Generated by new atomic code, or converted to UPF format
     Using radial grid of  899 points,  6 beta functions with: 
                l(1) =   0
                l(2) =   0
                l(3) =   1
                l(4) =   1
                l(5) =   2
                l(6) =   2
     Q(r) pseudized with  8 coefficients,  rinner =    0.900   0.900   0.900
                                                       0.900   0.900

     atomic species   valence    mass     pseudopotential
     Si                4.00    28.08600     Si( 1.00)

     48 Sym. Ops., with inversion, found (24 have fractional translation)



   Cartesian axes

     site n.     atom                  positions (alat units)
         1        Si     tau(   1) = (  -0.7500000   0.7500000   0.7500000  )
         2        Si     tau(   2) = (   0.0000000   0.0000000   0.0000000  )

     number of k points=    29
                       cart. coord. in units 2pi/alat
        k(    1) = (   0.0000000   0.0000000   0.0000000), wk =   0.0039062
        k(    2) = (  -0.1250000   0.1250000  -0.1250000), wk =   0.0312500
        k(    3) = (  -0.2500000   0.2500000  -0.2500000), wk =   0.0312500
        k(    4) = (  -0.3750000   0.3750000  -0.3750000), wk =   0.0312500
        k(    5) = (   0.5000000  -0.5000000   0.5000000), wk =   0.0156250
        k(    6) = (   0.0000000   0.2500000   0.0000000), wk =   0.0234375
        k(    7) = (  -0.1250000   0.3750000  -0.1250000), wk =   0.0937500
        k(    8) = (  -0.2500000   0.5000000  -0.2500000), wk =   0.0937500
        k(    9) = (   0.6250000  -0.3750000   0.6250000), wk =   0.0937500
        k(   10) = (   0.5000000  -0.2500000   0.5000000), wk =   0.0937500
        k(   11) = (   0.3750000  -0.1250000   0.3750000), wk =   0.0937500
        k(   12) = (   0.2500000   0.0000000   0.2500000), wk =   0.0468750
        k(   13) = (   0.0000000   0.5000000   0.0000000), wk =   0.0234375
        k(   14) = (  -0.1250000   0.6250000  -0.1250000), wk =   0.0937500
        k(   15) = (   0.7500000  -0.2500000   0.7500000), wk =   0.0937500
        k(   16) = (   0.6250000  -0.1250000   0.6250000), wk =   0.0937500
        k(   17) = (   0.5000000   0.0000000   0.5000000), wk =   0.0468750
        k(   18) = (   0.0000000   0.7500000   0.0000000), wk =   0.0234375
        k(   19) = (   0.8750000  -0.1250000   0.8750000), wk =   0.0937500
        k(   20) = (   0.7500000   0.0000000   0.7500000), wk =   0.0468750
        k(   21) = (   0.0000000  -1.0000000   0.0000000), wk =   0.0117188
        k(   22) = (  -0.2500000   0.5000000   0.0000000), wk =   0.0937500
        k(   23) = (   0.6250000  -0.3750000   0.8750000), wk =   0.1875000
        k(   24) = (   0.5000000  -0.2500000   0.7500000), wk =   0.0937500
        k(   25) = (   0.7500000  -0.2500000   1.0000000), wk =   0.0937500
        k(   26) = (   0.6250000  -0.1250000   0.8750000), wk =   0.1875000
        k(   27) = (   0.5000000   0.0000000   0.7500000), wk =   0.0937500
        k(   28) = (  -0.2500000  -1.0000000   0.0000000), wk =   0.0468750
        k(   29) = (  -0.5000000  -1.0000000   0.0000000), wk =   0.0234375

     Dense  grid:    20827 G-vectors     FFT dimensions: (  40,  40,  40)

     Estimated max dynamical RAM per process >       2.74 MB

     Estimated total dynamical RAM >     314.64 MB

     Initial potential from superposition of free atoms

     starting charge       7.9987, renormalised to       8.0000
     Starting wfcs are    8 randomized atomic wfcs

     total cpu time spent up to now is        0.7 secs

     per-process dynamical memory:    10.6 Mb

     Self-consistent Calculation

     iteration #  1     ecut=    60.00 Ry     beta= 0.70
     Davidson diagonalization with overlap
     ethr =  1.00E-02,  avg # of iterations =  2.0

     Threshold (ethr) on eigenvalues was too large:
     Diagonalizing with lowered threshold

     Davidson diagonalization with overlap
     ethr =  4.55E-04,  avg # of iterations =  1.2

     total cpu time spent up to now is        0.8 secs

     total energy              =     -19.16699487 Ry
     estimated scf accuracy    <       0.03896850 Ry

     iteration #  2     ecut=    60.00 Ry     beta= 0.70
     Davidson diagonalization with overlap
     ethr =  4.87E-04,  avg # of iterations =  1.0

     total cpu time spent up to now is        0.8 secs

     total energy              =     -19.16779217 Ry
     estimated scf accuracy    <       0.00247815 Ry

     iteration #  3     ecut=    60.00 Ry     beta= 0.70
     Davidson diagonalization with overlap
     ethr =  3.10E-05,  avg # of iterations =  1.8

     total cpu time spent up to now is        0.8 secs

     total energy              =     -19.16799096 Ry
     estimated scf accuracy    <       0.00002039 Ry

     iteration #  4     ecut=    60.00 Ry     beta= 0.70
     Davidson diagonalization with overlap
     ethr =  2.55E-07,  avg # of iterations =  6.6

     total cpu time spent up to now is        0.9 secs

     total energy              =     -19.16805839 Ry
     estimated scf accuracy    <       0.00000057 Ry

     iteration #  5     ecut=    60.00 Ry     beta= 0.70
     Davidson diagonalization with overlap
     ethr =  7.10E-09,  avg # of iterations =  5.4

     total cpu time spent up to now is        0.9 secs

     End of self-consistent calculation

          k = 0.0000 0.0000 0.0000 (  2637 PWs)   bands (ev):

    -6.4345   4.2199   4.2199   4.2199

          k =-0.1250 0.1250-0.1250 (  2655 PWs)   bands (ev):

    -6.2649   2.5837   3.9870   3.9870

          k =-0.2500 0.2500-0.2500 (  2632 PWs)   bands (ev):

    -5.7742   0.5726   3.5887   3.5887

          k =-0.3750 0.3750-0.3750 (  2605 PWs)   bands (ev):

    -5.0579  -1.1075   3.3018   3.3018

          k = 0.5000-0.5000 0.5000 (  2608 PWs)   bands (ev):

    -4.5818  -1.9114   3.2019   3.2019

          k = 0.0000 0.2500 0.0000 (  2637 PWs)   bands (ev):

    -6.2075   2.6069   3.5868   3.5868

          k =-0.1250 0.3750-0.1250 (  2613 PWs)   bands (ev):

    -5.8197   1.0553   3.1399   3.1597

          k =-0.2500 0.5000-0.2500 (  2609 PWs)   bands (ev):

    -5.1574  -0.6320   2.6181   2.9214

          k = 0.6250-0.3750 0.6250 (  2602 PWs)   bands (ev):

    -4.4958  -1.7921   2.2478   2.9248

          k = 0.5000-0.2500 0.5000 (  2601 PWs)   bands (ev):

    -4.6776  -1.5056   2.1241   3.1579

          k = 0.3750-0.1250 0.3750 (  2615 PWs)   bands (ev):

    -5.4051  -0.0958   2.3059   3.5580

          k = 0.2500 0.0000 0.2500 (  2619 PWs)   bands (ev):

    -5.9865   1.5206   2.9349   3.9558

          k = 0.0000 0.5000 0.0000 (  2610 PWs)   bands (ev):

    -5.5357   0.6164   2.6918   2.6918

          k =-0.1250 0.6250-0.1250 (  2606 PWs)   bands (ev):

    -4.9521  -0.5593   2.0488   2.4203

          k = 0.7500-0.2500 0.7500 (  2618 PWs)   bands (ev):

    -4.2181  -1.6992   1.3335   2.4130

          k = 0.6250-0.1250 0.6250 (  2603 PWs)   bands (ev):

    -4.0741  -1.8857   0.9764   2.6670

          k = 0.5000 0.0000 0.5000 (  2622 PWs)   bands (ev):

    -4.7613  -0.9574   1.2097   3.1161

          k = 0.0000 0.7500 0.0000 (  2606 PWs)   bands (ev):

    -4.4487  -1.2808   2.0887   2.0887

          k = 0.8750-0.1250 0.8750 (  2602 PWs)   bands (ev):

    -3.7178  -2.1902   1.4655   2.0213

          k = 0.7500 0.0000 0.7500 (  2600 PWs)   bands (ev):

    -3.4102  -2.4870   0.8097   2.2305

          k = 0.0000-1.0000 0.0000 (  2586 PWs)   bands (ev):

    -3.0021  -3.0021   1.8808   1.8808

          k =-0.2500 0.5000 0.0000 (  2617 PWs)   bands (ev):

    -5.3359   0.0442   2.0446   3.0347

          k = 0.6250-0.3750 0.8750 (  2616 PWs)   bands (ev):

    -4.6210  -1.2149   1.4891   2.6538

          k = 0.5000-0.2500 0.7500 (  2600 PWs)   bands (ev):

    -4.1271  -1.9353   1.3439   2.4808

          k = 0.7500-0.2500 1.0000 (  2608 PWs)   bands (ev):

    -4.2976  -1.4624   1.5150   2.0108

          k = 0.6250-0.1250 0.8750 (  2611 PWs)   bands (ev):

    -3.6120  -2.2539   0.9780   1.8541

          k = 0.5000 0.0000 0.7500 (  2617 PWs)   bands (ev):

    -3.8992  -1.9407   0.8502   2.1478

          k =-0.2500-1.0000 0.0000 (  2594 PWs)   bands (ev):

    -2.9585  -2.9585   1.4834   1.4834

          k =-0.5000-1.0000 0.0000 (  2608 PWs)   bands (ev):

    -2.9124  -2.9124   1.1695   1.1695

     highest occupied level (ev):     4.2199

!    total energy              =     -19.16805908 Ry
     estimated scf accuracy    <          8.3E-09 Ry

     The total energy is the sum of the following terms:
     one-electron contribution =       3.59122936 Ry
     hartree contribution      =       1.30776506 Ry
     xc contribution           =      -8.39454456 Ry
     ewald contribution        =     -15.67250893 Ry

     convergence has been achieved in   5 iterations

     Writing all to output data dir ./si-dia/si-dia.save/ :
     XML data file, charge density, pseudopotentials, collected wavefunctions

     init_run     :      0.36s CPU      0.42s WALL (       1 calls)
     electrons    :      0.16s CPU      0.21s WALL (       1 calls)

     Called by init_run:
     wfcinit      :      0.01s CPU      0.02s WALL (       1 calls)
     potinit      :      0.01s CPU      0.02s WALL (       1 calls)
     hinit0       :      0.32s CPU      0.33s WALL (       1 calls)

     Called by electrons:
     c_bands      :      0.10s CPU      0.11s WALL (       6 calls)
     sum_band     :      0.02s CPU      0.04s WALL (       6 calls)
     v_of_rho     :      0.02s CPU      0.03s WALL (       6 calls)
     newd         :      0.01s CPU      0.01s WALL (       6 calls)
     mix_rho      :      0.00s CPU      0.00s WALL (       6 calls)

     Called by c_bands:
     init_us_2    :      0.00s CPU      0.00s WALL (      52 calls)
     cegterg      :      0.08s CPU      0.09s WALL (      24 calls)

     Called by *egterg:
     cdiaghg      :      0.00s CPU      0.01s WALL (      98 calls)
     h_psi        :      0.07s CPU      0.08s WALL (     106 calls)
     s_psi        :      0.00s CPU      0.00s WALL (     106 calls)
     g_psi        :      0.00s CPU      0.00s WALL (      78 calls)

     Called by h_psi:
     h_psi:calbec :      0.01s CPU      0.01s WALL (     106 calls)
     vloc_psi     :      0.06s CPU      0.07s WALL (     106 calls)
     add_vuspsi   :      0.00s CPU      0.00s WALL (     106 calls)

     General routines
     calbec       :      0.01s CPU      0.01s WALL (     130 calls)
     fft          :      0.29s CPU      0.31s WALL (      67 calls)
     ffts         :      0.00s CPU      0.00s WALL (       6 calls)
     fftw         :      0.06s CPU      0.07s WALL (     818 calls)

     Parallel routines

     PWSCF        :      0.76s CPU      1.03s WALL


   This run was terminated on:  15:34:22   6Feb2026            

=------------------------------------------------------------------------------=
   JOB DONE.
=------------------------------------------------------------------------------=
