
     Program PWSCF v.7.3.1 starts on  9Feb2026 at 14:48:51 

     This program is part of the open-source Quantum ESPRESSO suite
     for quantum simulation of materials; please cite
         "P. Giannozzi et al., J. Phys.:Condens. Matter 21 395502 (2009);
         "P. Giannozzi et al., J. Phys.:Condens. Matter 29 465901 (2017);
         "P. Giannozzi et al., J. Chem. Phys. 152 154105 (2020);
          URL http://www.quantum-espresso.org", 
     in publications or presentations arising from this work. More details at
     http://www.quantum-espresso.org/quote

     Parallel version (MPI), running on   128 processors

     MPI processes distributed on     1 nodes
     241424 MiB available memory on the printing compute node when the environment starts

     Waiting for input...
     Reading input from standard input

     Current dimensions of program PWSCF are:
     Max number of different atomic species (ntypx) = 10
     Max number of k-points (npk) =  40000
     Max angular momentum in pseudopotentials (lmaxx) =  4

     K-points division:     npool     =       8
     R & G space division:  proc/nbgrp/npool/nimage =      16
     Subspace diagonalization in iterative solution of the eigenvalue problem:
     a serial algorithm will be used


     Parallelization info
     --------------------
     sticks:   dense  smooth     PW     G-vecs:    dense   smooth      PW
     Min          62      62     18                 1303     1303     215
     Max          63      63     19                 1306     1306     218
     Sum        1003    1003    301                20875    20875    3479

     Using Slab Decomposition



     bravais-lattice index     =            2
     lattice parameter (alat)  =      11.0090  a.u.
     unit-cell volume          =     333.5656 (a.u.)^3
     number of atoms/cell      =            2
     number of atomic types    =            1
     number of electrons       =         8.00
     number of Kohn-Sham states=            4
     kinetic-energy cutoff     =      60.0000  Ry
     charge density cutoff     =     240.0000  Ry
     scf convergence threshold =      1.0E-07
     mixing beta               =       0.7000
     number of iterations used =            8  plain     mixing
     Exchange-correlation=  SLA  PW   PBE  PBE
                           (   1   4   3   4   0   0   0)

     celldm(1)=  11.008980  celldm(2)=   0.000000  celldm(3)=   0.000000
     celldm(4)=   0.000000  celldm(5)=   0.000000  celldm(6)=   0.000000

     crystal axes: (cart. coord. in units of alat)
               a(1) = (  -0.500000   0.000000   0.500000 )  
               a(2) = (   0.000000   0.500000   0.500000 )  
               a(3) = (  -0.500000   0.500000   0.000000 )  

     reciprocal axes: (cart. coord. in units 2 pi/alat)
               b(1) = ( -1.000000 -1.000000  1.000000 )  
               b(2) = (  1.000000  1.000000  1.000000 )  
               b(3) = ( -1.000000  1.000000 -1.000000 )  


     PseudoPot. # 1 for Si read from file:
     ./Si.pbe-n-van.UPF
     MD5 check sum: 8a97496598b7338af554a5de8957bfee
     Pseudo is Ultrasoft + core correction, Zval =  4.0
     Generated by new atomic code, or converted to UPF format
     Using radial grid of  899 points,  6 beta functions with: 
                l(1) =   0
                l(2) =   0
                l(3) =   1
                l(4) =   1
                l(5) =   2
                l(6) =   2
     Q(r) pseudized with  8 coefficients,  rinner =    0.900   0.900   0.900
                                                       0.900   0.900

     atomic species   valence    mass     pseudopotential
     Si                4.00    28.08600     Si( 1.00)

     48 Sym. Ops., with inversion, found (24 have fractional translation)



   Cartesian axes

     site n.     atom                  positions (alat units)
         1        Si     tau(   1) = (  -0.7500000   0.7500000   0.7500000  )
         2        Si     tau(   2) = (   0.0000000   0.0000000   0.0000000  )

     number of k points=    29
                       cart. coord. in units 2pi/alat
        k(    1) = (   0.0000000   0.0000000   0.0000000), wk =   0.0039062
        k(    2) = (  -0.1250000   0.1250000  -0.1250000), wk =   0.0312500
        k(    3) = (  -0.2500000   0.2500000  -0.2500000), wk =   0.0312500
        k(    4) = (  -0.3750000   0.3750000  -0.3750000), wk =   0.0312500
        k(    5) = (   0.5000000  -0.5000000   0.5000000), wk =   0.0156250
        k(    6) = (   0.0000000   0.2500000   0.0000000), wk =   0.0234375
        k(    7) = (  -0.1250000   0.3750000  -0.1250000), wk =   0.0937500
        k(    8) = (  -0.2500000   0.5000000  -0.2500000), wk =   0.0937500
        k(    9) = (   0.6250000  -0.3750000   0.6250000), wk =   0.0937500
        k(   10) = (   0.5000000  -0.2500000   0.5000000), wk =   0.0937500
        k(   11) = (   0.3750000  -0.1250000   0.3750000), wk =   0.0937500
        k(   12) = (   0.2500000   0.0000000   0.2500000), wk =   0.0468750
        k(   13) = (   0.0000000   0.5000000   0.0000000), wk =   0.0234375
        k(   14) = (  -0.1250000   0.6250000  -0.1250000), wk =   0.0937500
        k(   15) = (   0.7500000  -0.2500000   0.7500000), wk =   0.0937500
        k(   16) = (   0.6250000  -0.1250000   0.6250000), wk =   0.0937500
        k(   17) = (   0.5000000   0.0000000   0.5000000), wk =   0.0468750
        k(   18) = (   0.0000000   0.7500000   0.0000000), wk =   0.0234375
        k(   19) = (   0.8750000  -0.1250000   0.8750000), wk =   0.0937500
        k(   20) = (   0.7500000   0.0000000   0.7500000), wk =   0.0468750
        k(   21) = (   0.0000000  -1.0000000   0.0000000), wk =   0.0117188
        k(   22) = (  -0.2500000   0.5000000   0.0000000), wk =   0.0937500
        k(   23) = (   0.6250000  -0.3750000   0.8750000), wk =   0.1875000
        k(   24) = (   0.5000000  -0.2500000   0.7500000), wk =   0.0937500
        k(   25) = (   0.7500000  -0.2500000   1.0000000), wk =   0.0937500
        k(   26) = (   0.6250000  -0.1250000   0.8750000), wk =   0.1875000
        k(   27) = (   0.5000000   0.0000000   0.7500000), wk =   0.0937500
        k(   28) = (  -0.2500000  -1.0000000   0.0000000), wk =   0.0468750
        k(   29) = (  -0.5000000  -1.0000000   0.0000000), wk =   0.0234375

     Dense  grid:    20875 G-vectors     FFT dimensions: (  40,  40,  40)

     Estimated max dynamical RAM per process >       2.74 MB

     Estimated total dynamical RAM >     315.14 MB

     Initial potential from superposition of free atoms

     starting charge       7.9987, renormalised to       8.0000
     Starting wfcs are    8 randomized atomic wfcs

     total cpu time spent up to now is        0.7 secs

     per-process dynamical memory:    10.2 Mb

     Self-consistent Calculation

     iteration #  1     ecut=    60.00 Ry     beta= 0.70
     Davidson diagonalization with overlap
     ethr =  1.00E-02,  avg # of iterations =  2.0

     Threshold (ethr) on eigenvalues was too large:
     Diagonalizing with lowered threshold

     Davidson diagonalization with overlap
     ethr =  4.53E-04,  avg # of iterations =  1.2

     total cpu time spent up to now is        0.8 secs

     total energy              =     -19.16631564 Ry
     estimated scf accuracy    <       0.03879326 Ry

     iteration #  2     ecut=    60.00 Ry     beta= 0.70
     Davidson diagonalization with overlap
     ethr =  4.85E-04,  avg # of iterations =  1.0

     total cpu time spent up to now is        0.8 secs

     total energy              =     -19.16710106 Ry
     estimated scf accuracy    <       0.00247432 Ry

     iteration #  3     ecut=    60.00 Ry     beta= 0.70
     Davidson diagonalization with overlap
     ethr =  3.09E-05,  avg # of iterations =  1.7

     total cpu time spent up to now is        0.8 secs

     total energy              =     -19.16729370 Ry
     estimated scf accuracy    <       0.00002020 Ry

     iteration #  4     ecut=    60.00 Ry     beta= 0.70
     Davidson diagonalization with overlap
     ethr =  2.53E-07,  avg # of iterations =  6.6

     total cpu time spent up to now is        0.9 secs

     total energy              =     -19.16736285 Ry
     estimated scf accuracy    <       0.00000065 Ry

     iteration #  5     ecut=    60.00 Ry     beta= 0.70
     Davidson diagonalization with overlap
     ethr =  8.07E-09,  avg # of iterations =  5.3

     total cpu time spent up to now is        0.9 secs

     End of self-consistent calculation

          k = 0.0000 0.0000 0.0000 (  2685 PWs)   bands (ev):

    -6.4426   4.1959   4.1959   4.1959

          k =-0.1250 0.1250-0.1250 (  2655 PWs)   bands (ev):

    -6.2735   2.5573   3.9637   3.9637

          k =-0.2500 0.2500-0.2500 (  2632 PWs)   bands (ev):

    -5.7841   0.5508   3.5663   3.5663

          k =-0.3750 0.3750-0.3750 (  2611 PWs)   bands (ev):

    -5.0700  -1.1249   3.2800   3.2800

          k = 0.5000-0.5000 0.5000 (  2608 PWs)   bands (ev):

    -4.5957  -1.9261   3.1803   3.1803

          k = 0.0000 0.2500 0.0000 (  2645 PWs)   bands (ev):

    -6.2162   2.5777   3.5649   3.5649

          k =-0.1250 0.3750-0.1250 (  2627 PWs)   bands (ev):

    -5.8294   1.0305   3.1182   3.1389

          k =-0.2500 0.5000-0.2500 (  2609 PWs)   bands (ev):

    -5.1690  -0.6518   2.5973   2.9010

          k = 0.6250-0.3750 0.6250 (  2618 PWs)   bands (ev):

    -4.5098  -1.8081   2.2278   2.9042

          k = 0.5000-0.2500 0.5000 (  2617 PWs)   bands (ev):

    -4.6909  -1.5227   2.1048   3.1365

          k = 0.3750-0.1250 0.3750 (  2622 PWs)   bands (ev):

    -5.4160  -0.1172   2.2869   3.5355

          k = 0.2500 0.0000 0.2500 (  2635 PWs)   bands (ev):

    -5.9958   1.4950   2.9151   3.9323

          k = 0.0000 0.5000 0.0000 (  2610 PWs)   bands (ev):

    -5.5462   0.5905   2.6723   2.6723

          k =-0.1250 0.6250-0.1250 (  2616 PWs)   bands (ev):

    -4.9641  -0.5821   2.0311   2.4014

          k = 0.7500-0.2500 0.7500 (  2626 PWs)   bands (ev):

    -4.2325  -1.7184   1.3176   2.3940

          k = 0.6250-0.1250 0.6250 (  2607 PWs)   bands (ev):

    -4.0891  -1.9040   0.9618   2.6472

          k = 0.5000 0.0000 0.5000 (  2622 PWs)   bands (ev):

    -4.7740  -0.9785   1.1949   3.0949

          k = 0.0000 0.7500 0.0000 (  2630 PWs)   bands (ev):

    -4.4620  -1.3023   2.0706   2.0706

          k = 0.8750-0.1250 0.8750 (  2608 PWs)   bands (ev):

    -3.7331  -2.2095   1.4498   2.0034

          k = 0.7500 0.0000 0.7500 (  2616 PWs)   bands (ev):

    -3.4270  -2.5051   0.7965   2.2119

          k = 0.0000-1.0000 0.0000 (  2586 PWs)   bands (ev):

    -3.0192  -3.0192   1.8632   1.8632

          k =-0.2500 0.5000 0.0000 (  2617 PWs)   bands (ev):

    -5.3469   0.0206   2.0272   3.0138

          k = 0.6250-0.3750 0.8750 (  2621 PWs)   bands (ev):

    -4.6342  -1.2349   1.4726   2.6342

          k = 0.5000-0.2500 0.7500 (  2620 PWs)   bands (ev):

    -4.1421  -1.9526   1.3273   2.4619

          k = 0.7500-0.2500 1.0000 (  2608 PWs)   bands (ev):

    -4.3115  -1.4834   1.4991   1.9935

          k = 0.6250-0.1250 0.8750 (  2618 PWs)   bands (ev):

    -3.6281  -2.2727   0.9640   1.8373

          k = 0.5000 0.0000 0.7500 (  2617 PWs)   bands (ev):

    -3.9146  -1.9602   0.8367   2.1300

          k =-0.2500-1.0000 0.0000 (  2610 PWs)   bands (ev):

    -2.9760  -2.9760   1.4677   1.4677

          k =-0.5000-1.0000 0.0000 (  2608 PWs)   bands (ev):

    -2.9303  -2.9303   1.1552   1.1552

     highest occupied level (ev):     4.1959

!    total energy              =     -19.16736356 Ry
     estimated scf accuracy    <       0.00000001 Ry

     The total energy is the sum of the following terms:
     one-electron contribution =       3.57179610 Ry
     hartree contribution      =       1.31045727 Ry
     xc contribution           =      -8.39171425 Ry
     ewald contribution        =     -15.65790268 Ry

     convergence has been achieved in   5 iterations

     Writing all to output data dir ./si-dia/si-dia.save/ :
     XML data file, charge density, pseudopotentials, collected wavefunctions

     init_run     :      0.38s CPU      0.42s WALL (       1 calls)
     electrons    :      0.14s CPU      0.22s WALL (       1 calls)

     Called by init_run:
     wfcinit      :      0.02s CPU      0.02s WALL (       1 calls)
     potinit      :      0.01s CPU      0.01s WALL (       1 calls)
     hinit0       :      0.33s CPU      0.34s WALL (       1 calls)

     Called by electrons:
     c_bands      :      0.08s CPU      0.11s WALL (       6 calls)
     sum_band     :      0.02s CPU      0.04s WALL (       6 calls)
     v_of_rho     :      0.02s CPU      0.02s WALL (       6 calls)
     newd         :      0.02s CPU      0.02s WALL (       6 calls)
     mix_rho      :      0.00s CPU      0.00s WALL (       6 calls)

     Called by c_bands:
     init_us_2    :      0.00s CPU      0.00s WALL (      52 calls)
     cegterg      :      0.07s CPU      0.09s WALL (      24 calls)

     Called by *egterg:
     cdiaghg      :      0.01s CPU      0.01s WALL (      98 calls)
     h_psi        :      0.07s CPU      0.08s WALL (     106 calls)
     s_psi        :      0.00s CPU      0.00s WALL (     106 calls)
     g_psi        :      0.00s CPU      0.00s WALL (      78 calls)

     Called by h_psi:
     h_psi:calbec :      0.01s CPU      0.01s WALL (     106 calls)
     vloc_psi     :      0.06s CPU      0.07s WALL (     106 calls)
     add_vuspsi   :      0.00s CPU      0.00s WALL (     106 calls)

     General routines
     calbec       :      0.01s CPU      0.01s WALL (     130 calls)
     fft          :      0.31s CPU      0.31s WALL (      67 calls)
     ffts         :      0.00s CPU      0.00s WALL (       6 calls)
     fftw         :      0.06s CPU      0.07s WALL (     810 calls)

     Parallel routines

     PWSCF        :      0.74s CPU      1.04s WALL


   This run was terminated on:  14:48:52   9Feb2026            

=------------------------------------------------------------------------------=
   JOB DONE.
=------------------------------------------------------------------------------=
