
     Program PWSCF v.7.3.1 starts on  6Feb2026 at 15:34:25 

     This program is part of the open-source Quantum ESPRESSO suite
     for quantum simulation of materials; please cite
         "P. Giannozzi et al., J. Phys.:Condens. Matter 21 395502 (2009);
         "P. Giannozzi et al., J. Phys.:Condens. Matter 29 465901 (2017);
         "P. Giannozzi et al., J. Chem. Phys. 152 154105 (2020);
          URL http://www.quantum-espresso.org", 
     in publications or presentations arising from this work. More details at
     http://www.quantum-espresso.org/quote

     Parallel version (MPI), running on   128 processors

     MPI processes distributed on     1 nodes
     241382 MiB available memory on the printing compute node when the environment starts

     Waiting for input...
     Reading input from standard input

     Current dimensions of program PWSCF are:
     Max number of different atomic species (ntypx) = 10
     Max number of k-points (npk) =  40000
     Max angular momentum in pseudopotentials (lmaxx) =  4

     K-points division:     npool     =       8
     R & G space division:  proc/nbgrp/npool/nimage =      16
     Subspace diagonalization in iterative solution of the eigenvalue problem:
     a serial algorithm will be used


     Parallelization info
     --------------------
     sticks:   dense  smooth     PW     G-vecs:    dense   smooth      PW
     Min          62      62     18                 1303     1303     215
     Max          63      63     19                 1306     1306     218
     Sum        1003    1003    301                20875    20875    3479

     Using Slab Decomposition



     bravais-lattice index     =            2
     lattice parameter (alat)  =      11.0192  a.u.
     unit-cell volume          =     334.4991 (a.u.)^3
     number of atoms/cell      =            2
     number of atomic types    =            1
     number of electrons       =         8.00
     number of Kohn-Sham states=            4
     kinetic-energy cutoff     =      60.0000  Ry
     charge density cutoff     =     240.0000  Ry
     scf convergence threshold =      1.0E-07
     mixing beta               =       0.7000
     number of iterations used =            8  plain     mixing
     Exchange-correlation=  SLA  PW   PBE  PBE
                           (   1   4   3   4   0   0   0)

     celldm(1)=  11.019240  celldm(2)=   0.000000  celldm(3)=   0.000000
     celldm(4)=   0.000000  celldm(5)=   0.000000  celldm(6)=   0.000000

     crystal axes: (cart. coord. in units of alat)
               a(1) = (  -0.500000   0.000000   0.500000 )  
               a(2) = (   0.000000   0.500000   0.500000 )  
               a(3) = (  -0.500000   0.500000   0.000000 )  

     reciprocal axes: (cart. coord. in units 2 pi/alat)
               b(1) = ( -1.000000 -1.000000  1.000000 )  
               b(2) = (  1.000000  1.000000  1.000000 )  
               b(3) = ( -1.000000  1.000000 -1.000000 )  


     PseudoPot. # 1 for Si read from file:
     ./Si.pbe-n-van.UPF
     MD5 check sum: 8a97496598b7338af554a5de8957bfee
     Pseudo is Ultrasoft + core correction, Zval =  4.0
     Generated by new atomic code, or converted to UPF format
     Using radial grid of  899 points,  6 beta functions with: 
                l(1) =   0
                l(2) =   0
                l(3) =   1
                l(4) =   1
                l(5) =   2
                l(6) =   2
     Q(r) pseudized with  8 coefficients,  rinner =    0.900   0.900   0.900
                                                       0.900   0.900

     atomic species   valence    mass     pseudopotential
     Si                4.00    28.08600     Si( 1.00)

     48 Sym. Ops., with inversion, found (24 have fractional translation)



   Cartesian axes

     site n.     atom                  positions (alat units)
         1        Si     tau(   1) = (  -0.7500000   0.7500000   0.7500000  )
         2        Si     tau(   2) = (   0.0000000   0.0000000   0.0000000  )

     number of k points=    29
                       cart. coord. in units 2pi/alat
        k(    1) = (   0.0000000   0.0000000   0.0000000), wk =   0.0039062
        k(    2) = (  -0.1250000   0.1250000  -0.1250000), wk =   0.0312500
        k(    3) = (  -0.2500000   0.2500000  -0.2500000), wk =   0.0312500
        k(    4) = (  -0.3750000   0.3750000  -0.3750000), wk =   0.0312500
        k(    5) = (   0.5000000  -0.5000000   0.5000000), wk =   0.0156250
        k(    6) = (   0.0000000   0.2500000   0.0000000), wk =   0.0234375
        k(    7) = (  -0.1250000   0.3750000  -0.1250000), wk =   0.0937500
        k(    8) = (  -0.2500000   0.5000000  -0.2500000), wk =   0.0937500
        k(    9) = (   0.6250000  -0.3750000   0.6250000), wk =   0.0937500
        k(   10) = (   0.5000000  -0.2500000   0.5000000), wk =   0.0937500
        k(   11) = (   0.3750000  -0.1250000   0.3750000), wk =   0.0937500
        k(   12) = (   0.2500000   0.0000000   0.2500000), wk =   0.0468750
        k(   13) = (   0.0000000   0.5000000   0.0000000), wk =   0.0234375
        k(   14) = (  -0.1250000   0.6250000  -0.1250000), wk =   0.0937500
        k(   15) = (   0.7500000  -0.2500000   0.7500000), wk =   0.0937500
        k(   16) = (   0.6250000  -0.1250000   0.6250000), wk =   0.0937500
        k(   17) = (   0.5000000   0.0000000   0.5000000), wk =   0.0468750
        k(   18) = (   0.0000000   0.7500000   0.0000000), wk =   0.0234375
        k(   19) = (   0.8750000  -0.1250000   0.8750000), wk =   0.0937500
        k(   20) = (   0.7500000   0.0000000   0.7500000), wk =   0.0468750
        k(   21) = (   0.0000000  -1.0000000   0.0000000), wk =   0.0117188
        k(   22) = (  -0.2500000   0.5000000   0.0000000), wk =   0.0937500
        k(   23) = (   0.6250000  -0.3750000   0.8750000), wk =   0.1875000
        k(   24) = (   0.5000000  -0.2500000   0.7500000), wk =   0.0937500
        k(   25) = (   0.7500000  -0.2500000   1.0000000), wk =   0.0937500
        k(   26) = (   0.6250000  -0.1250000   0.8750000), wk =   0.1875000
        k(   27) = (   0.5000000   0.0000000   0.7500000), wk =   0.0937500
        k(   28) = (  -0.2500000  -1.0000000   0.0000000), wk =   0.0468750
        k(   29) = (  -0.5000000  -1.0000000   0.0000000), wk =   0.0234375

     Dense  grid:    20875 G-vectors     FFT dimensions: (  40,  40,  40)

     Estimated max dynamical RAM per process >       2.74 MB

     Estimated total dynamical RAM >     315.25 MB

     Initial potential from superposition of free atoms

     starting charge       7.9987, renormalised to       8.0000
     Starting wfcs are    8 randomized atomic wfcs

     total cpu time spent up to now is        0.7 secs

     per-process dynamical memory:    10.1 Mb

     Self-consistent Calculation

     iteration #  1     ecut=    60.00 Ry     beta= 0.70
     Davidson diagonalization with overlap
     ethr =  1.00E-02,  avg # of iterations =  2.0

     Threshold (ethr) on eigenvalues was too large:
     Diagonalizing with lowered threshold

     Davidson diagonalization with overlap
     ethr =  4.51E-04,  avg # of iterations =  1.2

     total cpu time spent up to now is        0.8 secs

     total energy              =     -19.16562497 Ry
     estimated scf accuracy    <       0.03862554 Ry

     iteration #  2     ecut=    60.00 Ry     beta= 0.70
     Davidson diagonalization with overlap
     ethr =  4.83E-04,  avg # of iterations =  1.0

     total cpu time spent up to now is        0.8 secs

     total energy              =     -19.16640103 Ry
     estimated scf accuracy    <       0.00247082 Ry

     iteration #  3     ecut=    60.00 Ry     beta= 0.70
     Davidson diagonalization with overlap
     ethr =  3.09E-05,  avg # of iterations =  1.6

     total cpu time spent up to now is        0.8 secs

     total energy              =     -19.16658806 Ry
     estimated scf accuracy    <       0.00001999 Ry

     iteration #  4     ecut=    60.00 Ry     beta= 0.70
     Davidson diagonalization with overlap
     ethr =  2.50E-07,  avg # of iterations =  6.7

     total cpu time spent up to now is        0.9 secs

     total energy              =     -19.16666025 Ry
     estimated scf accuracy    <       0.00000063 Ry

     iteration #  5     ecut=    60.00 Ry     beta= 0.70
     Davidson diagonalization with overlap
     ethr =  7.84E-09,  avg # of iterations =  5.4

     total cpu time spent up to now is        0.9 secs

     End of self-consistent calculation

          k = 0.0000 0.0000 0.0000 (  2685 PWs)   bands (ev):

    -6.4507   4.1720   4.1720   4.1720

          k =-0.1250 0.1250-0.1250 (  2661 PWs)   bands (ev):

    -6.2821   2.5309   3.9404   3.9404

          k =-0.2500 0.2500-0.2500 (  2632 PWs)   bands (ev):

    -5.7940   0.5290   3.5440   3.5440

          k =-0.3750 0.3750-0.3750 (  2611 PWs)   bands (ev):

    -5.0820  -1.1423   3.2583   3.2583

          k = 0.5000-0.5000 0.5000 (  2608 PWs)   bands (ev):

    -4.6096  -1.9408   3.1587   3.1587

          k = 0.0000 0.2500 0.0000 (  2645 PWs)   bands (ev):

    -6.2249   2.5485   3.5431   3.5431

          k =-0.1250 0.3750-0.1250 (  2631 PWs)   bands (ev):

    -5.8392   1.0058   3.0965   3.1181

          k =-0.2500 0.5000-0.2500 (  2630 PWs)   bands (ev):

    -5.1806  -0.6716   2.5764   2.8806

          k = 0.6250-0.3750 0.6250 (  2618 PWs)   bands (ev):

    -4.5238  -1.8241   2.2078   2.8836

          k = 0.5000-0.2500 0.5000 (  2617 PWs)   bands (ev):

    -4.7041  -1.5397   2.0855   3.1151

          k = 0.3750-0.1250 0.3750 (  2626 PWs)   bands (ev):

    -5.4269  -0.1386   2.2680   3.5130

          k = 0.2500 0.0000 0.2500 (  2635 PWs)   bands (ev):

    -6.0051   1.4693   2.8953   3.9088

          k = 0.0000 0.5000 0.0000 (  2650 PWs)   bands (ev):

    -5.5566   0.5646   2.6528   2.6528

          k =-0.1250 0.6250-0.1250 (  2618 PWs)   bands (ev):

    -4.9761  -0.6048   2.0133   2.3825

          k = 0.7500-0.2500 0.7500 (  2626 PWs)   bands (ev):

    -4.2468  -1.7375   1.3018   2.3750

          k = 0.6250-0.1250 0.6250 (  2615 PWs)   bands (ev):

    -4.1041  -1.9223   0.9472   2.6274

          k = 0.5000 0.0000 0.5000 (  2642 PWs)   bands (ev):

    -4.7868  -0.9995   1.1800   3.0738

          k = 0.0000 0.7500 0.0000 (  2630 PWs)   bands (ev):

    -4.4753  -1.3238   2.0526   2.0526

          k = 0.8750-0.1250 0.8750 (  2618 PWs)   bands (ev):

    -3.7485  -2.2287   1.4341   1.9854

          k = 0.7500 0.0000 0.7500 (  2616 PWs)   bands (ev):

    -3.4438  -2.5232   0.7833   2.1934

          k = 0.0000-1.0000 0.0000 (  2586 PWs)   bands (ev):

    -3.0363  -3.0363   1.8456   1.8456

          k =-0.2500 0.5000 0.0000 (  2623 PWs)   bands (ev):

    -5.3579  -0.0029   2.0098   2.9929

          k = 0.6250-0.3750 0.8750 (  2627 PWs)   bands (ev):

    -4.6473  -1.2548   1.4561   2.6147

          k = 0.5000-0.2500 0.7500 (  2620 PWs)   bands (ev):

    -4.1571  -1.9699   1.3107   2.4430

          k = 0.7500-0.2500 1.0000 (  2608 PWs)   bands (ev):

    -4.3253  -1.5044   1.4832   1.9762

          k = 0.6250-0.1250 0.8750 (  2621 PWs)   bands (ev):

    -3.6442  -2.2916   0.9500   1.8206

          k = 0.5000 0.0000 0.7500 (  2627 PWs)   bands (ev):

    -3.9299  -1.9796   0.8232   2.1122

          k =-0.2500-1.0000 0.0000 (  2610 PWs)   bands (ev):

    -2.9934  -2.9934   1.4520   1.4520

          k =-0.5000-1.0000 0.0000 (  2608 PWs)   bands (ev):

    -2.9481  -2.9481   1.1409   1.1409

     highest occupied level (ev):     4.1720

!    total energy              =     -19.16666097 Ry
     estimated scf accuracy    <       0.00000001 Ry

     The total energy is the sum of the following terms:
     one-electron contribution =       3.55240171 Ry
     hartree contribution      =       1.31315731 Ry
     xc contribution           =      -8.38889636 Ry
     ewald contribution        =     -15.64332363 Ry

     convergence has been achieved in   5 iterations

     Writing all to output data dir ./si-dia/si-dia.save/ :
     XML data file, charge density, pseudopotentials, collected wavefunctions

     init_run     :      0.35s CPU      0.42s WALL (       1 calls)
     electrons    :      0.16s CPU      0.21s WALL (       1 calls)

     Called by init_run:
     wfcinit      :      0.01s CPU      0.02s WALL (       1 calls)
     potinit      :      0.01s CPU      0.02s WALL (       1 calls)
     hinit0       :      0.33s CPU      0.34s WALL (       1 calls)

     Called by electrons:
     c_bands      :      0.09s CPU      0.11s WALL (       6 calls)
     sum_band     :      0.03s CPU      0.04s WALL (       6 calls)
     v_of_rho     :      0.02s CPU      0.03s WALL (       6 calls)
     newd         :      0.01s CPU      0.01s WALL (       6 calls)
     mix_rho      :      0.00s CPU      0.00s WALL (       6 calls)

     Called by c_bands:
     init_us_2    :      0.00s CPU      0.00s WALL (      52 calls)
     cegterg      :      0.08s CPU      0.09s WALL (      24 calls)

     Called by *egterg:
     cdiaghg      :      0.00s CPU      0.01s WALL (     101 calls)
     h_psi        :      0.07s CPU      0.08s WALL (     109 calls)
     s_psi        :      0.00s CPU      0.00s WALL (     109 calls)
     g_psi        :      0.00s CPU      0.00s WALL (      81 calls)

     Called by h_psi:
     h_psi:calbec :      0.01s CPU      0.01s WALL (     109 calls)
     vloc_psi     :      0.06s CPU      0.07s WALL (     109 calls)
     add_vuspsi   :      0.00s CPU      0.00s WALL (     109 calls)

     General routines
     calbec       :      0.01s CPU      0.01s WALL (     133 calls)
     fft          :      0.30s CPU      0.31s WALL (      67 calls)
     ffts         :      0.00s CPU      0.00s WALL (       6 calls)
     fftw         :      0.06s CPU      0.07s WALL (     828 calls)

     Parallel routines

     PWSCF        :      0.72s CPU      1.02s WALL


   This run was terminated on:  15:34:26   6Feb2026            

=------------------------------------------------------------------------------=
   JOB DONE.
=------------------------------------------------------------------------------=
