
     Program PWSCF v.7.3.1 starts on  9Feb2026 at 14:49: 0 

     This program is part of the open-source Quantum ESPRESSO suite
     for quantum simulation of materials; please cite
         "P. Giannozzi et al., J. Phys.:Condens. Matter 21 395502 (2009);
         "P. Giannozzi et al., J. Phys.:Condens. Matter 29 465901 (2017);
         "P. Giannozzi et al., J. Chem. Phys. 152 154105 (2020);
          URL http://www.quantum-espresso.org", 
     in publications or presentations arising from this work. More details at
     http://www.quantum-espresso.org/quote

     Parallel version (MPI), running on   128 processors

     MPI processes distributed on     1 nodes
     241397 MiB available memory on the printing compute node when the environment starts

     Waiting for input...
     Reading input from standard input

     Current dimensions of program PWSCF are:
     Max number of different atomic species (ntypx) = 10
     Max number of k-points (npk) =  40000
     Max angular momentum in pseudopotentials (lmaxx) =  4

     K-points division:     npool     =       8
     R & G space division:  proc/nbgrp/npool/nimage =      16
     Subspace diagonalization in iterative solution of the eigenvalue problem:
     a serial algorithm will be used


     Parallelization info
     --------------------
     sticks:   dense  smooth     PW     G-vecs:    dense   smooth      PW
     Min          63      63     18                 1312     1312     215
     Max          64      64     19                 1313     1313     218
     Sum        1015    1015    301                20995    20995    3479

     Using Slab Decomposition



     bravais-lattice index     =            2
     lattice parameter (alat)  =      11.0295  a.u.
     unit-cell volume          =     335.4343 (a.u.)^3
     number of atoms/cell      =            2
     number of atomic types    =            1
     number of electrons       =         8.00
     number of Kohn-Sham states=            4
     kinetic-energy cutoff     =      60.0000  Ry
     charge density cutoff     =     240.0000  Ry
     scf convergence threshold =      1.0E-07
     mixing beta               =       0.7000
     number of iterations used =            8  plain     mixing
     Exchange-correlation=  SLA  PW   PBE  PBE
                           (   1   4   3   4   0   0   0)

     celldm(1)=  11.029500  celldm(2)=   0.000000  celldm(3)=   0.000000
     celldm(4)=   0.000000  celldm(5)=   0.000000  celldm(6)=   0.000000

     crystal axes: (cart. coord. in units of alat)
               a(1) = (  -0.500000   0.000000   0.500000 )  
               a(2) = (   0.000000   0.500000   0.500000 )  
               a(3) = (  -0.500000   0.500000   0.000000 )  

     reciprocal axes: (cart. coord. in units 2 pi/alat)
               b(1) = ( -1.000000 -1.000000  1.000000 )  
               b(2) = (  1.000000  1.000000  1.000000 )  
               b(3) = ( -1.000000  1.000000 -1.000000 )  


     PseudoPot. # 1 for Si read from file:
     ./Si.pbe-n-van.UPF
     MD5 check sum: 8a97496598b7338af554a5de8957bfee
     Pseudo is Ultrasoft + core correction, Zval =  4.0
     Generated by new atomic code, or converted to UPF format
     Using radial grid of  899 points,  6 beta functions with: 
                l(1) =   0
                l(2) =   0
                l(3) =   1
                l(4) =   1
                l(5) =   2
                l(6) =   2
     Q(r) pseudized with  8 coefficients,  rinner =    0.900   0.900   0.900
                                                       0.900   0.900

     atomic species   valence    mass     pseudopotential
     Si                4.00    28.08600     Si( 1.00)

     48 Sym. Ops., with inversion, found (24 have fractional translation)



   Cartesian axes

     site n.     atom                  positions (alat units)
         1        Si     tau(   1) = (  -0.7500000   0.7500000   0.7500000  )
         2        Si     tau(   2) = (   0.0000000   0.0000000   0.0000000  )

     number of k points=    29
                       cart. coord. in units 2pi/alat
        k(    1) = (   0.0000000   0.0000000   0.0000000), wk =   0.0039062
        k(    2) = (  -0.1250000   0.1250000  -0.1250000), wk =   0.0312500
        k(    3) = (  -0.2500000   0.2500000  -0.2500000), wk =   0.0312500
        k(    4) = (  -0.3750000   0.3750000  -0.3750000), wk =   0.0312500
        k(    5) = (   0.5000000  -0.5000000   0.5000000), wk =   0.0156250
        k(    6) = (   0.0000000   0.2500000   0.0000000), wk =   0.0234375
        k(    7) = (  -0.1250000   0.3750000  -0.1250000), wk =   0.0937500
        k(    8) = (  -0.2500000   0.5000000  -0.2500000), wk =   0.0937500
        k(    9) = (   0.6250000  -0.3750000   0.6250000), wk =   0.0937500
        k(   10) = (   0.5000000  -0.2500000   0.5000000), wk =   0.0937500
        k(   11) = (   0.3750000  -0.1250000   0.3750000), wk =   0.0937500
        k(   12) = (   0.2500000   0.0000000   0.2500000), wk =   0.0468750
        k(   13) = (   0.0000000   0.5000000   0.0000000), wk =   0.0234375
        k(   14) = (  -0.1250000   0.6250000  -0.1250000), wk =   0.0937500
        k(   15) = (   0.7500000  -0.2500000   0.7500000), wk =   0.0937500
        k(   16) = (   0.6250000  -0.1250000   0.6250000), wk =   0.0937500
        k(   17) = (   0.5000000   0.0000000   0.5000000), wk =   0.0468750
        k(   18) = (   0.0000000   0.7500000   0.0000000), wk =   0.0234375
        k(   19) = (   0.8750000  -0.1250000   0.8750000), wk =   0.0937500
        k(   20) = (   0.7500000   0.0000000   0.7500000), wk =   0.0468750
        k(   21) = (   0.0000000  -1.0000000   0.0000000), wk =   0.0117188
        k(   22) = (  -0.2500000   0.5000000   0.0000000), wk =   0.0937500
        k(   23) = (   0.6250000  -0.3750000   0.8750000), wk =   0.1875000
        k(   24) = (   0.5000000  -0.2500000   0.7500000), wk =   0.0937500
        k(   25) = (   0.7500000  -0.2500000   1.0000000), wk =   0.0937500
        k(   26) = (   0.6250000  -0.1250000   0.8750000), wk =   0.1875000
        k(   27) = (   0.5000000   0.0000000   0.7500000), wk =   0.0937500
        k(   28) = (  -0.2500000  -1.0000000   0.0000000), wk =   0.0468750
        k(   29) = (  -0.5000000  -1.0000000   0.0000000), wk =   0.0234375

     Dense  grid:    20995 G-vectors     FFT dimensions: (  40,  40,  40)

     Estimated max dynamical RAM per process >       2.75 MB

     Estimated total dynamical RAM >     315.81 MB

     Initial potential from superposition of free atoms

     starting charge       7.9987, renormalised to       8.0000
     Starting wfcs are    8 randomized atomic wfcs

     total cpu time spent up to now is        0.7 secs

     per-process dynamical memory:    10.3 Mb

     Self-consistent Calculation

     iteration #  1     ecut=    60.00 Ry     beta= 0.70
     Davidson diagonalization with overlap
     ethr =  1.00E-02,  avg # of iterations =  2.0

     Threshold (ethr) on eigenvalues was too large:
     Diagonalizing with lowered threshold

     Davidson diagonalization with overlap
     ethr =  4.50E-04,  avg # of iterations =  1.3

     total cpu time spent up to now is        0.8 secs

     total energy              =     -19.16491799 Ry
     estimated scf accuracy    <       0.03845318 Ry

     iteration #  2     ecut=    60.00 Ry     beta= 0.70
     Davidson diagonalization with overlap
     ethr =  4.81E-04,  avg # of iterations =  1.0

     total cpu time spent up to now is        0.8 secs

     total energy              =     -19.16569030 Ry
     estimated scf accuracy    <       0.00247019 Ry

     iteration #  3     ecut=    60.00 Ry     beta= 0.70
     Davidson diagonalization with overlap
     ethr =  3.09E-05,  avg # of iterations =  1.6

     total cpu time spent up to now is        0.8 secs

     total energy              =     -19.16587683 Ry
     estimated scf accuracy    <       0.00001954 Ry

     iteration #  4     ecut=    60.00 Ry     beta= 0.70
     Davidson diagonalization with overlap
     ethr =  2.44E-07,  avg # of iterations =  6.8

     total cpu time spent up to now is        0.9 secs

     total energy              =     -19.16595076 Ry
     estimated scf accuracy    <       0.00000069 Ry

     iteration #  5     ecut=    60.00 Ry     beta= 0.70
     Davidson diagonalization with overlap
     ethr =  8.64E-09,  avg # of iterations =  5.1

     total cpu time spent up to now is        0.9 secs

     End of self-consistent calculation

          k = 0.0000 0.0000 0.0000 (  2685 PWs)   bands (ev):

    -6.4589   4.1481   4.1481   4.1481

          k =-0.1250 0.1250-0.1250 (  2670 PWs)   bands (ev):

    -6.2906   2.5046   3.9173   3.9173

          k =-0.2500 0.2500-0.2500 (  2644 PWs)   bands (ev):

    -5.8038   0.5072   3.5218   3.5218

          k =-0.3750 0.3750-0.3750 (  2617 PWs)   bands (ev):

    -5.0941  -1.1596   3.2366   3.2366

          k = 0.5000-0.5000 0.5000 (  2638 PWs)   bands (ev):

    -4.6235  -1.9555   3.1372   3.1372

          k = 0.0000 0.2500 0.0000 (  2657 PWs)   bands (ev):

    -6.2336   2.5194   3.5213   3.5213

          k =-0.1250 0.3750-0.1250 (  2639 PWs)   bands (ev):

    -5.8489   0.9811   3.0749   3.0974

          k =-0.2500 0.5000-0.2500 (  2630 PWs)   bands (ev):

    -5.1922  -0.6914   2.5556   2.8604

          k = 0.6250-0.3750 0.6250 (  2628 PWs)   bands (ev):

    -4.5377  -1.8401   2.1879   2.8631

          k = 0.5000-0.2500 0.5000 (  2623 PWs)   bands (ev):

    -4.7174  -1.5567   2.0663   3.0939

          k = 0.3750-0.1250 0.3750 (  2632 PWs)   bands (ev):

    -5.4378  -0.1599   2.2491   3.4906

          k = 0.2500 0.0000 0.2500 (  2635 PWs)   bands (ev):

    -6.0144   1.4438   2.8756   3.8854

          k = 0.0000 0.5000 0.0000 (  2650 PWs)   bands (ev):

    -5.5670   0.5387   2.6333   2.6333

          k =-0.1250 0.6250-0.1250 (  2626 PWs)   bands (ev):

    -4.9881  -0.6275   1.9956   2.3636

          k = 0.7500-0.2500 0.7500 (  2634 PWs)   bands (ev):

    -4.2611  -1.7565   1.2860   2.3560

          k = 0.6250-0.1250 0.6250 (  2621 PWs)   bands (ev):

    -4.1191  -1.9406   0.9327   2.6077

          k = 0.5000 0.0000 0.5000 (  2642 PWs)   bands (ev):

    -4.7995  -1.0205   1.1652   3.0528

          k = 0.0000 0.7500 0.0000 (  2630 PWs)   bands (ev):

    -4.4885  -1.3453   2.0346   2.0346

          k = 0.8750-0.1250 0.8750 (  2626 PWs)   bands (ev):

    -3.7638  -2.2479   1.4185   1.9675

          k = 0.7500 0.0000 0.7500 (  2616 PWs)   bands (ev):

    -3.4605  -2.5412   0.7701   2.1749

          k = 0.0000-1.0000 0.0000 (  2586 PWs)   bands (ev):

    -3.0533  -3.0533   1.8281   1.8281

          k =-0.2500 0.5000 0.0000 (  2639 PWs)   bands (ev):

    -5.3689  -0.0264   1.9925   2.9721

          k = 0.6250-0.3750 0.8750 (  2634 PWs)   bands (ev):

    -4.6605  -1.2747   1.4397   2.5953

          k = 0.5000-0.2500 0.7500 (  2636 PWs)   bands (ev):

    -4.1721  -1.9872   1.2943   2.4242

          k = 0.7500-0.2500 1.0000 (  2648 PWs)   bands (ev):

    -4.3391  -1.5254   1.4673   1.9589

          k = 0.6250-0.1250 0.8750 (  2631 PWs)   bands (ev):

    -3.6603  -2.3104   0.9361   1.8038

          k = 0.5000 0.0000 0.7500 (  2638 PWs)   bands (ev):

    -3.9452  -1.9990   0.8097   2.0946

          k =-0.2500-1.0000 0.0000 (  2616 PWs)   bands (ev):

    -3.0108  -3.0108   1.4364   1.4364

          k =-0.5000-1.0000 0.0000 (  2608 PWs)   bands (ev):

    -2.9659  -2.9659   1.1267   1.1267

     highest occupied level (ev):     4.1481

!    total energy              =     -19.16595142 Ry
     estimated scf accuracy    <       0.00000002 Ry

     The total energy is the sum of the following terms:
     one-electron contribution =       3.53305345 Ry
     hartree contribution      =       1.31585215 Ry
     xc contribution           =      -8.38608532 Ry
     ewald contribution        =     -15.62877170 Ry

     convergence has been achieved in   5 iterations

     Writing all to output data dir ./si-dia/si-dia.save/ :
     XML data file, charge density, pseudopotentials, collected wavefunctions

     init_run     :      0.38s CPU      0.41s WALL (       1 calls)
     electrons    :      0.16s CPU      0.23s WALL (       1 calls)

     Called by init_run:
     wfcinit      :      0.01s CPU      0.02s WALL (       1 calls)
     potinit      :      0.02s CPU      0.02s WALL (       1 calls)
     hinit0       :      0.33s CPU      0.34s WALL (       1 calls)

     Called by electrons:
     c_bands      :      0.09s CPU      0.11s WALL (       6 calls)
     sum_band     :      0.03s CPU      0.04s WALL (       6 calls)
     v_of_rho     :      0.03s CPU      0.03s WALL (       6 calls)
     newd         :      0.00s CPU      0.01s WALL (       6 calls)
     mix_rho      :      0.00s CPU      0.00s WALL (       6 calls)

     Called by c_bands:
     init_us_2    :      0.00s CPU      0.00s WALL (      52 calls)
     cegterg      :      0.07s CPU      0.09s WALL (      24 calls)

     Called by *egterg:
     cdiaghg      :      0.00s CPU      0.01s WALL (      99 calls)
     h_psi        :      0.06s CPU      0.08s WALL (     107 calls)
     s_psi        :      0.00s CPU      0.00s WALL (     107 calls)
     g_psi        :      0.00s CPU      0.00s WALL (      79 calls)

     Called by h_psi:
     h_psi:calbec :      0.01s CPU      0.01s WALL (     107 calls)
     vloc_psi     :      0.05s CPU      0.07s WALL (     107 calls)
     add_vuspsi   :      0.00s CPU      0.00s WALL (     107 calls)

     General routines
     calbec       :      0.01s CPU      0.01s WALL (     131 calls)
     fft          :      0.31s CPU      0.31s WALL (      67 calls)
     ffts         :      0.00s CPU      0.00s WALL (       6 calls)
     fftw         :      0.05s CPU      0.07s WALL (     820 calls)

     Parallel routines

     PWSCF        :      0.76s CPU      1.02s WALL


   This run was terminated on:  14:49: 1   9Feb2026            

=------------------------------------------------------------------------------=
   JOB DONE.
=------------------------------------------------------------------------------=
