
     Program PWSCF v.7.3.1 starts on  6Feb2026 at 15:34:29 

     This program is part of the open-source Quantum ESPRESSO suite
     for quantum simulation of materials; please cite
         "P. Giannozzi et al., J. Phys.:Condens. Matter 21 395502 (2009);
         "P. Giannozzi et al., J. Phys.:Condens. Matter 29 465901 (2017);
         "P. Giannozzi et al., J. Chem. Phys. 152 154105 (2020);
          URL http://www.quantum-espresso.org", 
     in publications or presentations arising from this work. More details at
     http://www.quantum-espresso.org/quote

     Parallel version (MPI), running on   128 processors

     MPI processes distributed on     1 nodes
     241374 MiB available memory on the printing compute node when the environment starts

     Waiting for input...
     Reading input from standard input

     Current dimensions of program PWSCF are:
     Max number of different atomic species (ntypx) = 10
     Max number of k-points (npk) =  40000
     Max angular momentum in pseudopotentials (lmaxx) =  4

     K-points division:     npool     =       8
     R & G space division:  proc/nbgrp/npool/nimage =      16
     Subspace diagonalization in iterative solution of the eigenvalue problem:
     a serial algorithm will be used


     Parallelization info
     --------------------
     sticks:   dense  smooth     PW     G-vecs:    dense   smooth      PW
     Min          63      63     18                 1324     1324     215
     Max          65      65     19                 1326     1326     218
     Sum        1015    1015    301                21187    21187    3479

     Using Slab Decomposition



     bravais-lattice index     =            2
     lattice parameter (alat)  =      11.0398  a.u.
     unit-cell volume          =     336.3713 (a.u.)^3
     number of atoms/cell      =            2
     number of atomic types    =            1
     number of electrons       =         8.00
     number of Kohn-Sham states=            4
     kinetic-energy cutoff     =      60.0000  Ry
     charge density cutoff     =     240.0000  Ry
     scf convergence threshold =      1.0E-07
     mixing beta               =       0.7000
     number of iterations used =            8  plain     mixing
     Exchange-correlation=  SLA  PW   PBE  PBE
                           (   1   4   3   4   0   0   0)

     celldm(1)=  11.039760  celldm(2)=   0.000000  celldm(3)=   0.000000
     celldm(4)=   0.000000  celldm(5)=   0.000000  celldm(6)=   0.000000

     crystal axes: (cart. coord. in units of alat)
               a(1) = (  -0.500000   0.000000   0.500000 )  
               a(2) = (   0.000000   0.500000   0.500000 )  
               a(3) = (  -0.500000   0.500000   0.000000 )  

     reciprocal axes: (cart. coord. in units 2 pi/alat)
               b(1) = ( -1.000000 -1.000000  1.000000 )  
               b(2) = (  1.000000  1.000000  1.000000 )  
               b(3) = ( -1.000000  1.000000 -1.000000 )  


     PseudoPot. # 1 for Si read from file:
     ./Si.pbe-n-van.UPF
     MD5 check sum: 8a97496598b7338af554a5de8957bfee
     Pseudo is Ultrasoft + core correction, Zval =  4.0
     Generated by new atomic code, or converted to UPF format
     Using radial grid of  899 points,  6 beta functions with: 
                l(1) =   0
                l(2) =   0
                l(3) =   1
                l(4) =   1
                l(5) =   2
                l(6) =   2
     Q(r) pseudized with  8 coefficients,  rinner =    0.900   0.900   0.900
                                                       0.900   0.900

     atomic species   valence    mass     pseudopotential
     Si                4.00    28.08600     Si( 1.00)

     48 Sym. Ops., with inversion, found (24 have fractional translation)



   Cartesian axes

     site n.     atom                  positions (alat units)
         1        Si     tau(   1) = (  -0.7500000   0.7500000   0.7500000  )
         2        Si     tau(   2) = (   0.0000000   0.0000000   0.0000000  )

     number of k points=    29
                       cart. coord. in units 2pi/alat
        k(    1) = (   0.0000000   0.0000000   0.0000000), wk =   0.0039062
        k(    2) = (  -0.1250000   0.1250000  -0.1250000), wk =   0.0312500
        k(    3) = (  -0.2500000   0.2500000  -0.2500000), wk =   0.0312500
        k(    4) = (  -0.3750000   0.3750000  -0.3750000), wk =   0.0312500
        k(    5) = (   0.5000000  -0.5000000   0.5000000), wk =   0.0156250
        k(    6) = (   0.0000000   0.2500000   0.0000000), wk =   0.0234375
        k(    7) = (  -0.1250000   0.3750000  -0.1250000), wk =   0.0937500
        k(    8) = (  -0.2500000   0.5000000  -0.2500000), wk =   0.0937500
        k(    9) = (   0.6250000  -0.3750000   0.6250000), wk =   0.0937500
        k(   10) = (   0.5000000  -0.2500000   0.5000000), wk =   0.0937500
        k(   11) = (   0.3750000  -0.1250000   0.3750000), wk =   0.0937500
        k(   12) = (   0.2500000   0.0000000   0.2500000), wk =   0.0468750
        k(   13) = (   0.0000000   0.5000000   0.0000000), wk =   0.0234375
        k(   14) = (  -0.1250000   0.6250000  -0.1250000), wk =   0.0937500
        k(   15) = (   0.7500000  -0.2500000   0.7500000), wk =   0.0937500
        k(   16) = (   0.6250000  -0.1250000   0.6250000), wk =   0.0937500
        k(   17) = (   0.5000000   0.0000000   0.5000000), wk =   0.0468750
        k(   18) = (   0.0000000   0.7500000   0.0000000), wk =   0.0234375
        k(   19) = (   0.8750000  -0.1250000   0.8750000), wk =   0.0937500
        k(   20) = (   0.7500000   0.0000000   0.7500000), wk =   0.0468750
        k(   21) = (   0.0000000  -1.0000000   0.0000000), wk =   0.0117188
        k(   22) = (  -0.2500000   0.5000000   0.0000000), wk =   0.0937500
        k(   23) = (   0.6250000  -0.3750000   0.8750000), wk =   0.1875000
        k(   24) = (   0.5000000  -0.2500000   0.7500000), wk =   0.0937500
        k(   25) = (   0.7500000  -0.2500000   1.0000000), wk =   0.0937500
        k(   26) = (   0.6250000  -0.1250000   0.8750000), wk =   0.1875000
        k(   27) = (   0.5000000   0.0000000   0.7500000), wk =   0.0937500
        k(   28) = (  -0.2500000  -1.0000000   0.0000000), wk =   0.0468750
        k(   29) = (  -0.5000000  -1.0000000   0.0000000), wk =   0.0234375

     Dense  grid:    21187 G-vectors     FFT dimensions: (  40,  40,  40)

     Estimated max dynamical RAM per process >       2.76 MB

     Estimated total dynamical RAM >     316.59 MB

     Initial potential from superposition of free atoms

     starting charge       7.9987, renormalised to       8.0000
     Starting wfcs are    8 randomized atomic wfcs

     total cpu time spent up to now is        0.7 secs

     per-process dynamical memory:    10.1 Mb

     Self-consistent Calculation

     iteration #  1     ecut=    60.00 Ry     beta= 0.70
     Davidson diagonalization with overlap
     ethr =  1.00E-02,  avg # of iterations =  2.0

     Threshold (ethr) on eigenvalues was too large:
     Diagonalizing with lowered threshold

     Davidson diagonalization with overlap
     ethr =  4.47E-04,  avg # of iterations =  1.3

     total cpu time spent up to now is        0.8 secs

     total energy              =     -19.16421600 Ry
     estimated scf accuracy    <       0.03824927 Ry

     iteration #  2     ecut=    60.00 Ry     beta= 0.70
     Davidson diagonalization with overlap
     ethr =  4.78E-04,  avg # of iterations =  1.0

     total cpu time spent up to now is        0.8 secs

     total energy              =     -19.16497534 Ry
     estimated scf accuracy    <       0.00247046 Ry

     iteration #  3     ecut=    60.00 Ry     beta= 0.70
     Davidson diagonalization with overlap
     ethr =  3.09E-05,  avg # of iterations =  1.6

     total cpu time spent up to now is        0.8 secs

     total energy              =     -19.16516179 Ry
     estimated scf accuracy    <       0.00001941 Ry

     iteration #  4     ecut=    60.00 Ry     beta= 0.70
     Davidson diagonalization with overlap
     ethr =  2.43E-07,  avg # of iterations =  6.7

     total cpu time spent up to now is        0.9 secs

     total energy              =     -19.16523441 Ry
     estimated scf accuracy    <       0.00000067 Ry

     iteration #  5     ecut=    60.00 Ry     beta= 0.70
     Davidson diagonalization with overlap
     ethr =  8.38E-09,  avg # of iterations =  5.1

     total cpu time spent up to now is        0.9 secs

     End of self-consistent calculation

          k = 0.0000 0.0000 0.0000 (  2685 PWs)   bands (ev):

    -6.4670   4.1243   4.1243   4.1243

          k =-0.1250 0.1250-0.1250 (  2676 PWs)   bands (ev):

    -6.2991   2.4782   3.8942   3.8942

          k =-0.2500 0.2500-0.2500 (  2650 PWs)   bands (ev):

    -5.8137   0.4854   3.4996   3.4996

          k =-0.3750 0.3750-0.3750 (  2629 PWs)   bands (ev):

    -5.1061  -1.1770   3.2150   3.2150

          k = 0.5000-0.5000 0.5000 (  2638 PWs)   bands (ev):

    -4.6374  -1.9702   3.1157   3.1157

          k = 0.0000 0.2500 0.0000 (  2673 PWs)   bands (ev):

    -6.2423   2.4902   3.4996   3.4996

          k =-0.1250 0.3750-0.1250 (  2649 PWs)   bands (ev):

    -5.8586   0.9564   3.0534   3.0767

          k =-0.2500 0.5000-0.2500 (  2630 PWs)   bands (ev):

    -5.2038  -0.7111   2.5349   2.8401

          k = 0.6250-0.3750 0.6250 (  2638 PWs)   bands (ev):

    -4.5517  -1.8561   2.1681   2.8426

          k = 0.5000-0.2500 0.5000 (  2641 PWs)   bands (ev):

    -4.7306  -1.5737   2.0471   3.0727

          k = 0.3750-0.1250 0.3750 (  2640 PWs)   bands (ev):

    -5.4487  -0.1813   2.2303   3.4683

          k = 0.2500 0.0000 0.2500 (  2643 PWs)   bands (ev):

    -6.0236   1.4182   2.8559   3.8620

          k = 0.0000 0.5000 0.0000 (  2650 PWs)   bands (ev):

    -5.5774   0.5129   2.6140   2.6140

          k =-0.1250 0.6250-0.1250 (  2642 PWs)   bands (ev):

    -5.0001  -0.6502   1.9780   2.3449

          k = 0.7500-0.2500 0.7500 (  2645 PWs)   bands (ev):

    -4.2754  -1.7756   1.2703   2.3371

          k = 0.6250-0.1250 0.6250 (  2629 PWs)   bands (ev):

    -4.1340  -1.9588   0.9182   2.5880

          k = 0.5000 0.0000 0.5000 (  2642 PWs)   bands (ev):

    -4.8122  -1.0414   1.1505   3.0318

          k = 0.0000 0.7500 0.0000 (  2646 PWs)   bands (ev):

    -4.5018  -1.3667   2.0166   2.0166

          k = 0.8750-0.1250 0.8750 (  2632 PWs)   bands (ev):

    -3.7790  -2.2671   1.4029   1.9497

          k = 0.7500 0.0000 0.7500 (  2624 PWs)   bands (ev):

    -3.4772  -2.5592   0.7570   2.1565

          k = 0.0000-1.0000 0.0000 (  2650 PWs)   bands (ev):

    -3.0704  -3.0704   1.8106   1.8106

          k =-0.2500 0.5000 0.0000 (  2639 PWs)   bands (ev):

    -5.3799  -0.0499   1.9752   2.9513

          k = 0.6250-0.3750 0.8750 (  2640 PWs)   bands (ev):

    -4.6736  -1.2946   1.4234   2.5759

          k = 0.5000-0.2500 0.7500 (  2636 PWs)   bands (ev):

    -4.1870  -2.0045   1.2778   2.4055

          k = 0.7500-0.2500 1.0000 (  2648 PWs)   bands (ev):

    -4.3529  -1.5463   1.4515   1.9417

          k = 0.6250-0.1250 0.8750 (  2635 PWs)   bands (ev):

    -3.6763  -2.3291   0.9222   1.7872

          k = 0.5000 0.0000 0.7500 (  2638 PWs)   bands (ev):

    -3.9604  -2.0184   0.7963   2.0769

          k =-0.2500-1.0000 0.0000 (  2636 PWs)   bands (ev):

    -3.0282  -3.0282   1.4208   1.4208

          k =-0.5000-1.0000 0.0000 (  2608 PWs)   bands (ev):

    -2.9836  -2.9836   1.1125   1.1125

     highest occupied level (ev):     4.1243

!    total energy              =     -19.16523502 Ry
     estimated scf accuracy    <       0.00000001 Ry

     The total energy is the sum of the following terms:
     one-electron contribution =       3.51374207 Ry
     hartree contribution      =       1.31855893 Ry
     xc contribution           =      -8.38328919 Ry
     ewald contribution        =     -15.61424682 Ry

     convergence has been achieved in   5 iterations

     Writing all to output data dir ./si-dia/si-dia.save/ :
     XML data file, charge density, pseudopotentials, collected wavefunctions

     init_run     :      0.39s CPU      0.42s WALL (       1 calls)
     electrons    :      0.15s CPU      0.21s WALL (       1 calls)

     Called by init_run:
     wfcinit      :      0.02s CPU      0.02s WALL (       1 calls)
     potinit      :      0.02s CPU      0.03s WALL (       1 calls)
     hinit0       :      0.32s CPU      0.33s WALL (       1 calls)

     Called by electrons:
     c_bands      :      0.08s CPU      0.11s WALL (       6 calls)
     sum_band     :      0.03s CPU      0.04s WALL (       6 calls)
     v_of_rho     :      0.02s CPU      0.03s WALL (       6 calls)
     newd         :      0.01s CPU      0.01s WALL (       6 calls)
     mix_rho      :      0.00s CPU      0.00s WALL (       6 calls)

     Called by c_bands:
     init_us_2    :      0.00s CPU      0.00s WALL (      52 calls)
     cegterg      :      0.07s CPU      0.09s WALL (      24 calls)

     Called by *egterg:
     cdiaghg      :      0.00s CPU      0.01s WALL (      99 calls)
     h_psi        :      0.07s CPU      0.09s WALL (     107 calls)
     s_psi        :      0.00s CPU      0.00s WALL (     107 calls)
     g_psi        :      0.00s CPU      0.00s WALL (      79 calls)

     Called by h_psi:
     h_psi:calbec :      0.01s CPU      0.01s WALL (     107 calls)
     vloc_psi     :      0.06s CPU      0.07s WALL (     107 calls)
     add_vuspsi   :      0.00s CPU      0.00s WALL (     107 calls)

     General routines
     calbec       :      0.01s CPU      0.01s WALL (     131 calls)
     fft          :      0.31s CPU      0.31s WALL (      67 calls)
     ffts         :      0.00s CPU      0.00s WALL (       6 calls)
     fftw         :      0.07s CPU      0.08s WALL (     818 calls)

     Parallel routines

     PWSCF        :      0.76s CPU      1.00s WALL


   This run was terminated on:  15:34:30   6Feb2026            

=------------------------------------------------------------------------------=
   JOB DONE.
=------------------------------------------------------------------------------=
