
     Program PWSCF v.7.3.1 starts on  9Feb2026 at 14:49: 5 

     This program is part of the open-source Quantum ESPRESSO suite
     for quantum simulation of materials; please cite
         "P. Giannozzi et al., J. Phys.:Condens. Matter 21 395502 (2009);
         "P. Giannozzi et al., J. Phys.:Condens. Matter 29 465901 (2017);
         "P. Giannozzi et al., J. Chem. Phys. 152 154105 (2020);
          URL http://www.quantum-espresso.org", 
     in publications or presentations arising from this work. More details at
     http://www.quantum-espresso.org/quote

     Parallel version (MPI), running on   128 processors

     MPI processes distributed on     1 nodes
     241400 MiB available memory on the printing compute node when the environment starts

     Waiting for input...
     Reading input from standard input

     Current dimensions of program PWSCF are:
     Max number of different atomic species (ntypx) = 10
     Max number of k-points (npk) =  40000
     Max angular momentum in pseudopotentials (lmaxx) =  4

     K-points division:     npool     =       8
     R & G space division:  proc/nbgrp/npool/nimage =      16
     Subspace diagonalization in iterative solution of the eigenvalue problem:
     a serial algorithm will be used


     Parallelization info
     --------------------
     sticks:   dense  smooth     PW     G-vecs:    dense   smooth      PW
     Min          63      63     18                 1324     1324     215
     Max          65      65     19                 1326     1326     218
     Sum        1015    1015    301                21187    21187    3479

     Using Slab Decomposition



     bravais-lattice index     =            2
     lattice parameter (alat)  =      11.0500  a.u.
     unit-cell volume          =     337.3100 (a.u.)^3
     number of atoms/cell      =            2
     number of atomic types    =            1
     number of electrons       =         8.00
     number of Kohn-Sham states=            4
     kinetic-energy cutoff     =      60.0000  Ry
     charge density cutoff     =     240.0000  Ry
     scf convergence threshold =      1.0E-07
     mixing beta               =       0.7000
     number of iterations used =            8  plain     mixing
     Exchange-correlation=  SLA  PW   PBE  PBE
                           (   1   4   3   4   0   0   0)

     celldm(1)=  11.050020  celldm(2)=   0.000000  celldm(3)=   0.000000
     celldm(4)=   0.000000  celldm(5)=   0.000000  celldm(6)=   0.000000

     crystal axes: (cart. coord. in units of alat)
               a(1) = (  -0.500000   0.000000   0.500000 )  
               a(2) = (   0.000000   0.500000   0.500000 )  
               a(3) = (  -0.500000   0.500000   0.000000 )  

     reciprocal axes: (cart. coord. in units 2 pi/alat)
               b(1) = ( -1.000000 -1.000000  1.000000 )  
               b(2) = (  1.000000  1.000000  1.000000 )  
               b(3) = ( -1.000000  1.000000 -1.000000 )  


     PseudoPot. # 1 for Si read from file:
     ./Si.pbe-n-van.UPF
     MD5 check sum: 8a97496598b7338af554a5de8957bfee
     Pseudo is Ultrasoft + core correction, Zval =  4.0
     Generated by new atomic code, or converted to UPF format
     Using radial grid of  899 points,  6 beta functions with: 
                l(1) =   0
                l(2) =   0
                l(3) =   1
                l(4) =   1
                l(5) =   2
                l(6) =   2
     Q(r) pseudized with  8 coefficients,  rinner =    0.900   0.900   0.900
                                                       0.900   0.900

     atomic species   valence    mass     pseudopotential
     Si                4.00    28.08600     Si( 1.00)

     48 Sym. Ops., with inversion, found (24 have fractional translation)



   Cartesian axes

     site n.     atom                  positions (alat units)
         1        Si     tau(   1) = (  -0.7500000   0.7500000   0.7500000  )
         2        Si     tau(   2) = (   0.0000000   0.0000000   0.0000000  )

     number of k points=    29
                       cart. coord. in units 2pi/alat
        k(    1) = (   0.0000000   0.0000000   0.0000000), wk =   0.0039062
        k(    2) = (  -0.1250000   0.1250000  -0.1250000), wk =   0.0312500
        k(    3) = (  -0.2500000   0.2500000  -0.2500000), wk =   0.0312500
        k(    4) = (  -0.3750000   0.3750000  -0.3750000), wk =   0.0312500
        k(    5) = (   0.5000000  -0.5000000   0.5000000), wk =   0.0156250
        k(    6) = (   0.0000000   0.2500000   0.0000000), wk =   0.0234375
        k(    7) = (  -0.1250000   0.3750000  -0.1250000), wk =   0.0937500
        k(    8) = (  -0.2500000   0.5000000  -0.2500000), wk =   0.0937500
        k(    9) = (   0.6250000  -0.3750000   0.6250000), wk =   0.0937500
        k(   10) = (   0.5000000  -0.2500000   0.5000000), wk =   0.0937500
        k(   11) = (   0.3750000  -0.1250000   0.3750000), wk =   0.0937500
        k(   12) = (   0.2500000   0.0000000   0.2500000), wk =   0.0468750
        k(   13) = (   0.0000000   0.5000000   0.0000000), wk =   0.0234375
        k(   14) = (  -0.1250000   0.6250000  -0.1250000), wk =   0.0937500
        k(   15) = (   0.7500000  -0.2500000   0.7500000), wk =   0.0937500
        k(   16) = (   0.6250000  -0.1250000   0.6250000), wk =   0.0937500
        k(   17) = (   0.5000000   0.0000000   0.5000000), wk =   0.0468750
        k(   18) = (   0.0000000   0.7500000   0.0000000), wk =   0.0234375
        k(   19) = (   0.8750000  -0.1250000   0.8750000), wk =   0.0937500
        k(   20) = (   0.7500000   0.0000000   0.7500000), wk =   0.0468750
        k(   21) = (   0.0000000  -1.0000000   0.0000000), wk =   0.0117188
        k(   22) = (  -0.2500000   0.5000000   0.0000000), wk =   0.0937500
        k(   23) = (   0.6250000  -0.3750000   0.8750000), wk =   0.1875000
        k(   24) = (   0.5000000  -0.2500000   0.7500000), wk =   0.0937500
        k(   25) = (   0.7500000  -0.2500000   1.0000000), wk =   0.0937500
        k(   26) = (   0.6250000  -0.1250000   0.8750000), wk =   0.1875000
        k(   27) = (   0.5000000   0.0000000   0.7500000), wk =   0.0937500
        k(   28) = (  -0.2500000  -1.0000000   0.0000000), wk =   0.0468750
        k(   29) = (  -0.5000000  -1.0000000   0.0000000), wk =   0.0234375

     Dense  grid:    21187 G-vectors     FFT dimensions: (  40,  40,  40)

     Estimated max dynamical RAM per process >       2.76 MB

     Estimated total dynamical RAM >     316.59 MB

     Initial potential from superposition of free atoms

     starting charge       7.9987, renormalised to       8.0000
     Starting wfcs are    8 randomized atomic wfcs

     total cpu time spent up to now is        0.7 secs

     per-process dynamical memory:    10.5 Mb

     Self-consistent Calculation

     iteration #  1     ecut=    60.00 Ry     beta= 0.70
     Davidson diagonalization with overlap
     ethr =  1.00E-02,  avg # of iterations =  2.0

     Threshold (ethr) on eigenvalues was too large:
     Diagonalizing with lowered threshold

     Davidson diagonalization with overlap
     ethr =  4.44E-04,  avg # of iterations =  1.2

     total cpu time spent up to now is        0.8 secs

     total energy              =     -19.16351001 Ry
     estimated scf accuracy    <       0.03809595 Ry

     iteration #  2     ecut=    60.00 Ry     beta= 0.70
     Davidson diagonalization with overlap
     ethr =  4.76E-04,  avg # of iterations =  1.0

     total cpu time spent up to now is        0.8 secs

     total energy              =     -19.16425579 Ry
     estimated scf accuracy    <       0.00246354 Ry

     iteration #  3     ecut=    60.00 Ry     beta= 0.70
     Davidson diagonalization with overlap
     ethr =  3.08E-05,  avg # of iterations =  1.5

     total cpu time spent up to now is        0.8 secs

     total energy              =     -19.16443852 Ry
     estimated scf accuracy    <       0.00001908 Ry

     iteration #  4     ecut=    60.00 Ry     beta= 0.70
     Davidson diagonalization with overlap
     ethr =  2.38E-07,  avg # of iterations =  6.7

     total cpu time spent up to now is        0.9 secs

     total energy              =     -19.16451110 Ry
     estimated scf accuracy    <       0.00000073 Ry

     iteration #  5     ecut=    60.00 Ry     beta= 0.70
     Davidson diagonalization with overlap
     ethr =  9.16E-09,  avg # of iterations =  4.9

     total cpu time spent up to now is        0.9 secs

     End of self-consistent calculation

          k = 0.0000 0.0000 0.0000 (  2685 PWs)   bands (ev):

    -6.4750   4.1006   4.1006   4.1006

          k =-0.1250 0.1250-0.1250 (  2685 PWs)   bands (ev):

    -6.3076   2.4520   3.8712   3.8712

          k =-0.2500 0.2500-0.2500 (  2650 PWs)   bands (ev):

    -5.8235   0.4636   3.4775   3.4775

          k =-0.3750 0.3750-0.3750 (  2638 PWs)   bands (ev):

    -5.1180  -1.1942   3.1935   3.1935

          k = 0.5000-0.5000 0.5000 (  2638 PWs)   bands (ev):

    -4.6512  -1.9849   3.0944   3.0944

          k = 0.0000 0.2500 0.0000 (  2689 PWs)   bands (ev):

    -6.2509   2.4612   3.4780   3.4780

          k =-0.1250 0.3750-0.1250 (  2651 PWs)   bands (ev):

    -5.8682   0.9318   3.0320   3.0562

          k =-0.2500 0.5000-0.2500 (  2673 PWs)   bands (ev):

    -5.2153  -0.7308   2.5143   2.8200

          k = 0.6250-0.3750 0.6250 (  2642 PWs)   bands (ev):

    -4.5655  -1.8720   2.1484   2.8223

          k = 0.5000-0.2500 0.5000 (  2654 PWs)   bands (ev):

    -4.7437  -1.5906   2.0281   3.0516

          k = 0.3750-0.1250 0.3750 (  2647 PWs)   bands (ev):

    -5.4595  -0.2025   2.2116   3.4461

          k = 0.2500 0.0000 0.2500 (  2643 PWs)   bands (ev):

    -6.0328   1.3927   2.8363   3.8388

          k = 0.0000 0.5000 0.0000 (  2650 PWs)   bands (ev):

    -5.5878   0.4872   2.5947   2.5947

          k =-0.1250 0.6250-0.1250 (  2648 PWs)   bands (ev):

    -5.0120  -0.6727   1.9605   2.3262

          k = 0.7500-0.2500 0.7500 (  2645 PWs)   bands (ev):

    -4.2896  -1.7946   1.2547   2.3184

          k = 0.6250-0.1250 0.6250 (  2644 PWs)   bands (ev):

    -4.1489  -1.9770   0.9038   2.5685

          k = 0.5000 0.0000 0.5000 (  2650 PWs)   bands (ev):

    -4.8248  -1.0623   1.1358   3.0109

          k = 0.0000 0.7500 0.0000 (  2658 PWs)   bands (ev):

    -4.5149  -1.3880   1.9988   1.9988

          k = 0.8750-0.1250 0.8750 (  2644 PWs)   bands (ev):

    -3.7942  -2.2861   1.3874   1.9320

          k = 0.7500 0.0000 0.7500 (  2624 PWs)   bands (ev):

    -3.4938  -2.5771   0.7439   2.1382

          k = 0.0000-1.0000 0.0000 (  2650 PWs)   bands (ev):

    -3.0873  -3.0873   1.7933   1.7933

          k =-0.2500 0.5000 0.0000 (  2645 PWs)   bands (ev):

    -5.3908  -0.0732   1.9581   2.9307

          k = 0.6250-0.3750 0.8750 (  2648 PWs)   bands (ev):

    -4.6866  -1.3143   1.4071   2.5566

          k = 0.5000-0.2500 0.7500 (  2636 PWs)   bands (ev):

    -4.2018  -2.0217   1.2615   2.3869

          k = 0.7500-0.2500 1.0000 (  2648 PWs)   bands (ev):

    -4.3666  -1.5671   1.4358   1.9246

          k = 0.6250-0.1250 0.8750 (  2640 PWs)   bands (ev):

    -3.6922  -2.3478   0.9084   1.7706

          k = 0.5000 0.0000 0.7500 (  2642 PWs)   bands (ev):

    -3.9756  -2.0377   0.7829   2.0594

          k =-0.2500-1.0000 0.0000 (  2648 PWs)   bands (ev):

    -3.0454  -3.0454   1.4053   1.4053

          k =-0.5000-1.0000 0.0000 (  2656 PWs)   bands (ev):

    -3.0013  -3.0013   1.0983   1.0983

     highest occupied level (ev):     4.1006

!    total energy              =     -19.16451172 Ry
     estimated scf accuracy    <       0.00000002 Ry

     The total energy is the sum of the following terms:
     one-electron contribution =       3.49447214 Ry
     hartree contribution      =       1.32126796 Ry
     xc contribution           =      -8.38050291 Ry
     ewald contribution        =     -15.59974891 Ry

     convergence has been achieved in   5 iterations

     Writing all to output data dir ./si-dia/si-dia.save/ :
     XML data file, charge density, pseudopotentials, collected wavefunctions

     init_run     :      0.36s CPU      0.42s WALL (       1 calls)
     electrons    :      0.17s CPU      0.22s WALL (       1 calls)

     Called by init_run:
     wfcinit      :      0.01s CPU      0.01s WALL (       1 calls)
     potinit      :      0.01s CPU      0.02s WALL (       1 calls)
     hinit0       :      0.32s CPU      0.34s WALL (       1 calls)

     Called by electrons:
     c_bands      :      0.10s CPU      0.12s WALL (       6 calls)
     sum_band     :      0.03s CPU      0.04s WALL (       6 calls)
     v_of_rho     :      0.03s CPU      0.03s WALL (       6 calls)
     newd         :      0.01s CPU      0.01s WALL (       6 calls)
     mix_rho      :      0.00s CPU      0.00s WALL (       6 calls)

     Called by c_bands:
     init_us_2    :      0.00s CPU      0.00s WALL (      52 calls)
     cegterg      :      0.08s CPU      0.08s WALL (      24 calls)

     Called by *egterg:
     cdiaghg      :      0.01s CPU      0.01s WALL (      95 calls)
     h_psi        :      0.07s CPU      0.07s WALL (     103 calls)
     s_psi        :      0.00s CPU      0.00s WALL (     103 calls)
     g_psi        :      0.00s CPU      0.00s WALL (      75 calls)

     Called by h_psi:
     h_psi:calbec :      0.01s CPU      0.01s WALL (     103 calls)
     vloc_psi     :      0.06s CPU      0.06s WALL (     103 calls)
     add_vuspsi   :      0.00s CPU      0.00s WALL (     103 calls)

     General routines
     calbec       :      0.01s CPU      0.01s WALL (     127 calls)
     fft          :      0.30s CPU      0.31s WALL (      67 calls)
     ffts         :      0.00s CPU      0.00s WALL (       6 calls)
     fftw         :      0.06s CPU      0.07s WALL (     800 calls)

     Parallel routines

     PWSCF        :      0.78s CPU      1.10s WALL


   This run was terminated on:  14:49: 6   9Feb2026            

=------------------------------------------------------------------------------=
   JOB DONE.
=------------------------------------------------------------------------------=
