
     Program PWSCF v.7.3.1 starts on  9Feb2026 at 14:49:22 

     This program is part of the open-source Quantum ESPRESSO suite
     for quantum simulation of materials; please cite
         "P. Giannozzi et al., J. Phys.:Condens. Matter 21 395502 (2009);
         "P. Giannozzi et al., J. Phys.:Condens. Matter 29 465901 (2017);
         "P. Giannozzi et al., J. Chem. Phys. 152 154105 (2020);
          URL http://www.quantum-espresso.org", 
     in publications or presentations arising from this work. More details at
     http://www.quantum-espresso.org/quote

     Parallel version (MPI), running on   128 processors

     MPI processes distributed on     1 nodes
     241459 MiB available memory on the printing compute node when the environment starts

     Waiting for input...
     Reading input from standard input

     Current dimensions of program PWSCF are:
     Max number of different atomic species (ntypx) = 10
     Max number of k-points (npk) =  40000
     Max angular momentum in pseudopotentials (lmaxx) =  4

     K-points division:     npool     =       8
     R & G space division:  proc/nbgrp/npool/nimage =      16
     Subspace diagonalization in iterative solution of the eigenvalue problem:
     a serial algorithm will be used


     Parallelization info
     --------------------
     sticks:   dense  smooth     PW     G-vecs:    dense   smooth      PW
     Min          64      64     19                 1349     1349     220
     Max          65      65     21                 1352     1352     221
     Sum        1027    1027    313                21595    21595    3527

     Using Slab Decomposition



     bravais-lattice index     =            2
     lattice parameter (alat)  =      11.1321  a.u.
     unit-cell volume          =     344.8826 (a.u.)^3
     number of atoms/cell      =            2
     number of atomic types    =            1
     number of electrons       =         8.00
     number of Kohn-Sham states=            4
     kinetic-energy cutoff     =      60.0000  Ry
     charge density cutoff     =     240.0000  Ry
     scf convergence threshold =      1.0E-07
     mixing beta               =       0.7000
     number of iterations used =            8  plain     mixing
     Exchange-correlation=  SLA  PW   PBE  PBE
                           (   1   4   3   4   0   0   0)

     celldm(1)=  11.132100  celldm(2)=   0.000000  celldm(3)=   0.000000
     celldm(4)=   0.000000  celldm(5)=   0.000000  celldm(6)=   0.000000

     crystal axes: (cart. coord. in units of alat)
               a(1) = (  -0.500000   0.000000   0.500000 )  
               a(2) = (   0.000000   0.500000   0.500000 )  
               a(3) = (  -0.500000   0.500000   0.000000 )  

     reciprocal axes: (cart. coord. in units 2 pi/alat)
               b(1) = ( -1.000000 -1.000000  1.000000 )  
               b(2) = (  1.000000  1.000000  1.000000 )  
               b(3) = ( -1.000000  1.000000 -1.000000 )  


     PseudoPot. # 1 for Si read from file:
     ./Si.pbe-n-van.UPF
     MD5 check sum: 8a97496598b7338af554a5de8957bfee
     Pseudo is Ultrasoft + core correction, Zval =  4.0
     Generated by new atomic code, or converted to UPF format
     Using radial grid of  899 points,  6 beta functions with: 
                l(1) =   0
                l(2) =   0
                l(3) =   1
                l(4) =   1
                l(5) =   2
                l(6) =   2
     Q(r) pseudized with  8 coefficients,  rinner =    0.900   0.900   0.900
                                                       0.900   0.900

     atomic species   valence    mass     pseudopotential
     Si                4.00    28.08600     Si( 1.00)

     48 Sym. Ops., with inversion, found (24 have fractional translation)



   Cartesian axes

     site n.     atom                  positions (alat units)
         1        Si     tau(   1) = (  -0.7500000   0.7500000   0.7500000  )
         2        Si     tau(   2) = (   0.0000000   0.0000000   0.0000000  )

     number of k points=    29
                       cart. coord. in units 2pi/alat
        k(    1) = (   0.0000000   0.0000000   0.0000000), wk =   0.0039062
        k(    2) = (  -0.1250000   0.1250000  -0.1250000), wk =   0.0312500
        k(    3) = (  -0.2500000   0.2500000  -0.2500000), wk =   0.0312500
        k(    4) = (  -0.3750000   0.3750000  -0.3750000), wk =   0.0312500
        k(    5) = (   0.5000000  -0.5000000   0.5000000), wk =   0.0156250
        k(    6) = (   0.0000000   0.2500000   0.0000000), wk =   0.0234375
        k(    7) = (  -0.1250000   0.3750000  -0.1250000), wk =   0.0937500
        k(    8) = (  -0.2500000   0.5000000  -0.2500000), wk =   0.0937500
        k(    9) = (   0.6250000  -0.3750000   0.6250000), wk =   0.0937500
        k(   10) = (   0.5000000  -0.2500000   0.5000000), wk =   0.0937500
        k(   11) = (   0.3750000  -0.1250000   0.3750000), wk =   0.0937500
        k(   12) = (   0.2500000   0.0000000   0.2500000), wk =   0.0468750
        k(   13) = (   0.0000000   0.5000000   0.0000000), wk =   0.0234375
        k(   14) = (  -0.1250000   0.6250000  -0.1250000), wk =   0.0937500
        k(   15) = (   0.7500000  -0.2500000   0.7500000), wk =   0.0937500
        k(   16) = (   0.6250000  -0.1250000   0.6250000), wk =   0.0937500
        k(   17) = (   0.5000000   0.0000000   0.5000000), wk =   0.0468750
        k(   18) = (   0.0000000   0.7500000   0.0000000), wk =   0.0234375
        k(   19) = (   0.8750000  -0.1250000   0.8750000), wk =   0.0937500
        k(   20) = (   0.7500000   0.0000000   0.7500000), wk =   0.0468750
        k(   21) = (   0.0000000  -1.0000000   0.0000000), wk =   0.0117188
        k(   22) = (  -0.2500000   0.5000000   0.0000000), wk =   0.0937500
        k(   23) = (   0.6250000  -0.3750000   0.8750000), wk =   0.1875000
        k(   24) = (   0.5000000  -0.2500000   0.7500000), wk =   0.0937500
        k(   25) = (   0.7500000  -0.2500000   1.0000000), wk =   0.0937500
        k(   26) = (   0.6250000  -0.1250000   0.8750000), wk =   0.1875000
        k(   27) = (   0.5000000   0.0000000   0.7500000), wk =   0.0937500
        k(   28) = (  -0.2500000  -1.0000000   0.0000000), wk =   0.0468750
        k(   29) = (  -0.5000000  -1.0000000   0.0000000), wk =   0.0234375

     Dense  grid:    21595 G-vectors     FFT dimensions: (  40,  40,  40)

     Estimated max dynamical RAM per process >       2.78 MB

     Estimated total dynamical RAM >     318.85 MB

     Initial potential from superposition of free atoms

     starting charge       7.9987, renormalised to       8.0000
     Starting wfcs are    8 randomized atomic wfcs

     total cpu time spent up to now is        0.7 secs

     per-process dynamical memory:    10.2 Mb

     Self-consistent Calculation

     iteration #  1     ecut=    60.00 Ry     beta= 0.70
     Davidson diagonalization with overlap
     ethr =  1.00E-02,  avg # of iterations =  2.0

     Threshold (ethr) on eigenvalues was too large:
     Diagonalizing with lowered threshold

     Davidson diagonalization with overlap
     ethr =  4.28E-04,  avg # of iterations =  1.3

     total cpu time spent up to now is        0.8 secs

     total energy              =     -19.15760285 Ry
     estimated scf accuracy    <       0.03663206 Ry

     iteration #  2     ecut=    60.00 Ry     beta= 0.70
     Davidson diagonalization with overlap
     ethr =  4.58E-04,  avg # of iterations =  1.0

     total cpu time spent up to now is        0.8 secs

     total energy              =     -19.15825640 Ry
     estimated scf accuracy    <       0.00245226 Ry

     iteration #  3     ecut=    60.00 Ry     beta= 0.70
     Davidson diagonalization with overlap
     ethr =  3.07E-05,  avg # of iterations =  1.2

     total cpu time spent up to now is        0.8 secs

     total energy              =     -19.15841242 Ry
     estimated scf accuracy    <       0.00001725 Ry

     iteration #  4     ecut=    60.00 Ry     beta= 0.70
     Davidson diagonalization with overlap
     ethr =  2.16E-07,  avg # of iterations =  6.9

     total cpu time spent up to now is        0.9 secs

     total energy              =     -19.15849034 Ry
     estimated scf accuracy    <       0.00000079 Ry

     iteration #  5     ecut=    60.00 Ry     beta= 0.70
     Davidson diagonalization with overlap
     ethr =  9.87E-09,  avg # of iterations =  4.7

     total cpu time spent up to now is        0.9 secs

     End of self-consistent calculation

          k = 0.0000 0.0000 0.0000 (  2733 PWs)   bands (ev):

    -6.5385   3.9141   3.9141   3.9141

          k =-0.1250 0.1250-0.1250 (  2710 PWs)   bands (ev):

    -6.3745   2.2424   3.6900   3.6900

          k =-0.2500 0.2500-0.2500 (  2710 PWs)   bands (ev):

    -5.9007   0.2911   3.3038   3.3038

          k =-0.3750 0.3750-0.3750 (  2707 PWs)   bands (ev):

    -5.2123  -1.3313   3.0242   3.0242

          k = 0.5000-0.5000 0.5000 (  2692 PWs)   bands (ev):

    -4.7598  -2.1013   2.9265   2.9265

          k = 0.0000 0.2500 0.0000 (  2705 PWs)   bands (ev):

    -6.3189   2.2301   3.3077   3.3077

          k =-0.1250 0.3750-0.1250 (  2709 PWs)   bands (ev):

    -5.9442   0.7363   2.8635   2.8943

          k =-0.2500 0.5000-0.2500 (  2694 PWs)   bands (ev):

    -5.3062  -0.8869   2.3524   2.6614

          k = 0.6250-0.3750 0.6250 (  2706 PWs)   bands (ev):

    -4.6746  -1.9986   1.9933   2.6621

          k = 0.5000-0.2500 0.5000 (  2704 PWs)   bands (ev):

    -4.8473  -1.7250   1.8784   2.8855

          k = 0.3750-0.1250 0.3750 (  2705 PWs)   bands (ev):

    -5.5446  -0.3712   2.0644   3.2713

          k = 0.2500 0.0000 0.2500 (  2721 PWs)   bands (ev):

    -6.1054   1.1902   2.6822   3.6559

          k = 0.0000 0.5000 0.0000 (  2706 PWs)   bands (ev):

    -5.6694   0.2838   2.4429   2.4429

          k =-0.1250 0.6250-0.1250 (  2713 PWs)   bands (ev):

    -5.1060  -0.8513   1.8224   2.1791

          k = 0.7500-0.2500 0.7500 (  2708 PWs)   bands (ev):

    -4.4017  -1.9447   1.1317   2.1704

          k = 0.6250-0.1250 0.6250 (  2709 PWs)   bands (ev):

    -4.2662  -2.1209   0.7905   2.4145

          k = 0.5000 0.0000 0.5000 (  2700 PWs)   bands (ev):

    -4.9245  -1.2274   1.0202   2.8466

          k = 0.0000 0.7500 0.0000 (  2722 PWs)   bands (ev):

    -4.6188  -1.5565   1.8583   1.8583

          k = 0.8750-0.1250 0.8750 (  2711 PWs)   bands (ev):

    -3.9142  -2.4368   1.2654   1.7924

          k = 0.7500 0.0000 0.7500 (  2702 PWs)   bands (ev):

    -3.6249  -2.7187   0.6410   1.9940

          k = 0.0000-1.0000 0.0000 (  2698 PWs)   bands (ev):

    -3.2210  -3.2210   1.6565   1.6565

          k =-0.2500 0.5000 0.0000 (  2714 PWs)   bands (ev):

    -5.4770  -0.2582   1.8229   2.7682

          k = 0.6250-0.3750 0.8750 (  2711 PWs)   bands (ev):

    -4.7895  -1.4711   1.2793   2.4048

          k = 0.5000-0.2500 0.7500 (  2710 PWs)   bands (ev):

    -4.3188  -2.1581   1.1331   2.2400

          k = 0.7500-0.2500 1.0000 (  2707 PWs)   bands (ev):

    -4.4749  -1.7316   1.3120   1.7898

          k = 0.6250-0.1250 0.8750 (  2700 PWs)   bands (ev):

    -3.8179  -2.4953   0.7995   1.6400

          k = 0.5000 0.0000 0.7500 (  2709 PWs)   bands (ev):

    -4.0952  -2.1903   0.6776   1.9212

          k =-0.2500-1.0000 0.0000 (  2708 PWs)   bands (ev):

    -3.1818  -3.1818   1.2830   1.2830

          k =-0.5000-1.0000 0.0000 (  2720 PWs)   bands (ev):

    -3.1407  -3.1407   0.9868   0.9868

     highest occupied level (ev):     3.9141

!    total energy              =     -19.15849091 Ry
     estimated scf accuracy    <       0.00000002 Ry

     The total energy is the sum of the following terms:
     one-electron contribution =       3.34180884 Ry
     hartree contribution      =       1.34296666 Ry
     xc contribution           =      -8.35853870 Ry
     ewald contribution        =     -15.48472772 Ry

     convergence has been achieved in   5 iterations

     Writing all to output data dir ./si-dia/si-dia.save/ :
     XML data file, charge density, pseudopotentials, collected wavefunctions

     init_run     :      0.38s CPU      0.42s WALL (       1 calls)
     electrons    :      0.16s CPU      0.21s WALL (       1 calls)

     Called by init_run:
     wfcinit      :      0.02s CPU      0.03s WALL (       1 calls)
     potinit      :      0.01s CPU      0.02s WALL (       1 calls)
     hinit0       :      0.32s CPU      0.34s WALL (       1 calls)

     Called by electrons:
     c_bands      :      0.09s CPU      0.11s WALL (       6 calls)
     sum_band     :      0.03s CPU      0.04s WALL (       6 calls)
     v_of_rho     :      0.02s CPU      0.03s WALL (       6 calls)
     newd         :      0.01s CPU      0.01s WALL (       6 calls)
     mix_rho      :      0.00s CPU      0.00s WALL (       6 calls)

     Called by c_bands:
     init_us_2    :      0.00s CPU      0.00s WALL (      52 calls)
     cegterg      :      0.07s CPU      0.08s WALL (      24 calls)

     Called by *egterg:
     cdiaghg      :      0.00s CPU      0.01s WALL (      91 calls)
     h_psi        :      0.07s CPU      0.08s WALL (      99 calls)
     s_psi        :      0.00s CPU      0.00s WALL (      99 calls)
     g_psi        :      0.00s CPU      0.00s WALL (      71 calls)

     Called by h_psi:
     h_psi:calbec :      0.01s CPU      0.01s WALL (      99 calls)
     vloc_psi     :      0.06s CPU      0.07s WALL (      99 calls)
     add_vuspsi   :      0.00s CPU      0.00s WALL (      99 calls)

     General routines
     calbec       :      0.01s CPU      0.01s WALL (     123 calls)
     fft          :      0.31s CPU      0.31s WALL (      67 calls)
     ffts         :      0.00s CPU      0.00s WALL (       6 calls)
     fftw         :      0.07s CPU      0.08s WALL (     782 calls)

     Parallel routines

     PWSCF        :      0.78s CPU      1.05s WALL


   This run was terminated on:  14:49:23   9Feb2026            

=------------------------------------------------------------------------------=
   JOB DONE.
=------------------------------------------------------------------------------=
