
     Program PWSCF v.7.3.1 starts on  9Feb2026 at 14:49:27 

     This program is part of the open-source Quantum ESPRESSO suite
     for quantum simulation of materials; please cite
         "P. Giannozzi et al., J. Phys.:Condens. Matter 21 395502 (2009);
         "P. Giannozzi et al., J. Phys.:Condens. Matter 29 465901 (2017);
         "P. Giannozzi et al., J. Chem. Phys. 152 154105 (2020);
          URL http://www.quantum-espresso.org", 
     in publications or presentations arising from this work. More details at
     http://www.quantum-espresso.org/quote

     Parallel version (MPI), running on   128 processors

     MPI processes distributed on     1 nodes
     241432 MiB available memory on the printing compute node when the environment starts

     Waiting for input...
     Reading input from standard input

     Current dimensions of program PWSCF are:
     Max number of different atomic species (ntypx) = 10
     Max number of k-points (npk) =  40000
     Max angular momentum in pseudopotentials (lmaxx) =  4

     K-points division:     npool     =       8
     R & G space division:  proc/nbgrp/npool/nimage =      16
     Subspace diagonalization in iterative solution of the eigenvalue problem:
     a serial algorithm will be used


     Parallelization info
     --------------------
     sticks:   dense  smooth     PW     G-vecs:    dense   smooth      PW
     Min          64      64     19                 1378     1378     220
     Max          65      65     21                 1381     1381     221
     Sum        1039    1039    313                22075    22075    3527

     Using Slab Decomposition



     bravais-lattice index     =            2
     lattice parameter (alat)  =      11.1526  a.u.
     unit-cell volume          =     346.7933 (a.u.)^3
     number of atoms/cell      =            2
     number of atomic types    =            1
     number of electrons       =         8.00
     number of Kohn-Sham states=            4
     kinetic-energy cutoff     =      60.0000  Ry
     charge density cutoff     =     240.0000  Ry
     scf convergence threshold =      1.0E-07
     mixing beta               =       0.7000
     number of iterations used =            8  plain     mixing
     Exchange-correlation=  SLA  PW   PBE  PBE
                           (   1   4   3   4   0   0   0)

     celldm(1)=  11.152620  celldm(2)=   0.000000  celldm(3)=   0.000000
     celldm(4)=   0.000000  celldm(5)=   0.000000  celldm(6)=   0.000000

     crystal axes: (cart. coord. in units of alat)
               a(1) = (  -0.500000   0.000000   0.500000 )  
               a(2) = (   0.000000   0.500000   0.500000 )  
               a(3) = (  -0.500000   0.500000   0.000000 )  

     reciprocal axes: (cart. coord. in units 2 pi/alat)
               b(1) = ( -1.000000 -1.000000  1.000000 )  
               b(2) = (  1.000000  1.000000  1.000000 )  
               b(3) = ( -1.000000  1.000000 -1.000000 )  


     PseudoPot. # 1 for Si read from file:
     ./Si.pbe-n-van.UPF
     MD5 check sum: 8a97496598b7338af554a5de8957bfee
     Pseudo is Ultrasoft + core correction, Zval =  4.0
     Generated by new atomic code, or converted to UPF format
     Using radial grid of  899 points,  6 beta functions with: 
                l(1) =   0
                l(2) =   0
                l(3) =   1
                l(4) =   1
                l(5) =   2
                l(6) =   2
     Q(r) pseudized with  8 coefficients,  rinner =    0.900   0.900   0.900
                                                       0.900   0.900

     atomic species   valence    mass     pseudopotential
     Si                4.00    28.08600     Si( 1.00)

     48 Sym. Ops., with inversion, found (24 have fractional translation)



   Cartesian axes

     site n.     atom                  positions (alat units)
         1        Si     tau(   1) = (  -0.7500000   0.7500000   0.7500000  )
         2        Si     tau(   2) = (   0.0000000   0.0000000   0.0000000  )

     number of k points=    29
                       cart. coord. in units 2pi/alat
        k(    1) = (   0.0000000   0.0000000   0.0000000), wk =   0.0039062
        k(    2) = (  -0.1250000   0.1250000  -0.1250000), wk =   0.0312500
        k(    3) = (  -0.2500000   0.2500000  -0.2500000), wk =   0.0312500
        k(    4) = (  -0.3750000   0.3750000  -0.3750000), wk =   0.0312500
        k(    5) = (   0.5000000  -0.5000000   0.5000000), wk =   0.0156250
        k(    6) = (   0.0000000   0.2500000   0.0000000), wk =   0.0234375
        k(    7) = (  -0.1250000   0.3750000  -0.1250000), wk =   0.0937500
        k(    8) = (  -0.2500000   0.5000000  -0.2500000), wk =   0.0937500
        k(    9) = (   0.6250000  -0.3750000   0.6250000), wk =   0.0937500
        k(   10) = (   0.5000000  -0.2500000   0.5000000), wk =   0.0937500
        k(   11) = (   0.3750000  -0.1250000   0.3750000), wk =   0.0937500
        k(   12) = (   0.2500000   0.0000000   0.2500000), wk =   0.0468750
        k(   13) = (   0.0000000   0.5000000   0.0000000), wk =   0.0234375
        k(   14) = (  -0.1250000   0.6250000  -0.1250000), wk =   0.0937500
        k(   15) = (   0.7500000  -0.2500000   0.7500000), wk =   0.0937500
        k(   16) = (   0.6250000  -0.1250000   0.6250000), wk =   0.0937500
        k(   17) = (   0.5000000   0.0000000   0.5000000), wk =   0.0468750
        k(   18) = (   0.0000000   0.7500000   0.0000000), wk =   0.0234375
        k(   19) = (   0.8750000  -0.1250000   0.8750000), wk =   0.0937500
        k(   20) = (   0.7500000   0.0000000   0.7500000), wk =   0.0468750
        k(   21) = (   0.0000000  -1.0000000   0.0000000), wk =   0.0117188
        k(   22) = (  -0.2500000   0.5000000   0.0000000), wk =   0.0937500
        k(   23) = (   0.6250000  -0.3750000   0.8750000), wk =   0.1875000
        k(   24) = (   0.5000000  -0.2500000   0.7500000), wk =   0.0937500
        k(   25) = (   0.7500000  -0.2500000   1.0000000), wk =   0.0937500
        k(   26) = (   0.6250000  -0.1250000   0.8750000), wk =   0.1875000
        k(   27) = (   0.5000000   0.0000000   0.7500000), wk =   0.0937500
        k(   28) = (  -0.2500000  -1.0000000   0.0000000), wk =   0.0468750
        k(   29) = (  -0.5000000  -1.0000000   0.0000000), wk =   0.0234375

     Dense  grid:    22075 G-vectors     FFT dimensions: (  40,  40,  40)

     Estimated max dynamical RAM per process >       2.80 MB

     Estimated total dynamical RAM >     321.23 MB

     Initial potential from superposition of free atoms

     starting charge       7.9987, renormalised to       8.0000
     Starting wfcs are    8 randomized atomic wfcs

     total cpu time spent up to now is        0.7 secs

     per-process dynamical memory:    10.6 Mb

     Self-consistent Calculation

     iteration #  1     ecut=    60.00 Ry     beta= 0.70
     Davidson diagonalization with overlap
     ethr =  1.00E-02,  avg # of iterations =  2.0

     Threshold (ethr) on eigenvalues was too large:
     Diagonalizing with lowered threshold

     Davidson diagonalization with overlap
     ethr =  4.24E-04,  avg # of iterations =  1.3

     total cpu time spent up to now is        0.8 secs

     total energy              =     -19.15604737 Ry
     estimated scf accuracy    <       0.03627231 Ry

     iteration #  2     ecut=    60.00 Ry     beta= 0.70
     Davidson diagonalization with overlap
     ethr =  4.53E-04,  avg # of iterations =  1.0

     total cpu time spent up to now is        0.8 secs

     total energy              =     -19.15668785 Ry
     estimated scf accuracy    <       0.00245035 Ry

     iteration #  3     ecut=    60.00 Ry     beta= 0.70
     Davidson diagonalization with overlap
     ethr =  3.06E-05,  avg # of iterations =  1.3

     total cpu time spent up to now is        0.8 secs

     total energy              =     -19.15684641 Ry
     estimated scf accuracy    <       0.00001682 Ry

     iteration #  4     ecut=    60.00 Ry     beta= 0.70
     Davidson diagonalization with overlap
     ethr =  2.10E-07,  avg # of iterations =  7.0

     total cpu time spent up to now is        0.9 secs

     total energy              =     -19.15692324 Ry
     estimated scf accuracy    <       0.00000076 Ry

     iteration #  5     ecut=    60.00 Ry     beta= 0.70
     Davidson diagonalization with overlap
     ethr =  9.55E-09,  avg # of iterations =  4.7

     total cpu time spent up to now is        0.9 secs

     End of self-consistent calculation

          k = 0.0000 0.0000 0.0000 (  2733 PWs)   bands (ev):

    -6.5541   3.8683   3.8683   3.8683

          k =-0.1250 0.1250-0.1250 (  2713 PWs)   bands (ev):

    -6.3910   2.1902   3.6455   3.6455

          k =-0.2500 0.2500-0.2500 (  2716 PWs)   bands (ev):

    -5.9197   0.2482   3.2612   3.2612

          k =-0.3750 0.3750-0.3750 (  2734 PWs)   bands (ev):

    -5.2355  -1.3653   2.9826   2.9826

          k = 0.5000-0.5000 0.5000 (  2764 PWs)   bands (ev):

    -4.7865  -2.1302   2.8853   2.8853

          k = 0.0000 0.2500 0.0000 (  2721 PWs)   bands (ev):

    -6.3357   2.1727   3.2659   3.2659

          k =-0.1250 0.3750-0.1250 (  2725 PWs)   bands (ev):

    -5.9629   0.6879   2.8222   2.8546

          k =-0.2500 0.5000-0.2500 (  2718 PWs)   bands (ev):

    -5.3285  -0.9256   2.3127   2.6225

          k = 0.6250-0.3750 0.6250 (  2725 PWs)   bands (ev):

    -4.7015  -2.0300   1.9553   2.6228

          k = 0.5000-0.2500 0.5000 (  2716 PWs)   bands (ev):

    -4.8728  -1.7584   1.8416   2.8448

          k = 0.3750-0.1250 0.3750 (  2715 PWs)   bands (ev):

    -5.5656  -0.4130   2.0283   3.2284

          k = 0.2500 0.0000 0.2500 (  2721 PWs)   bands (ev):

    -6.1233   1.1399   2.6443   3.6109

          k = 0.0000 0.5000 0.0000 (  2706 PWs)   bands (ev):

    -5.6894   0.2335   2.4056   2.4056

          k =-0.1250 0.6250-0.1250 (  2729 PWs)   bands (ev):

    -5.1291  -0.8954   1.7886   2.1430

          k = 0.7500-0.2500 0.7500 (  2713 PWs)   bands (ev):

    -4.4293  -1.9819   1.1016   2.1341

          k = 0.6250-0.1250 0.6250 (  2713 PWs)   bands (ev):

    -4.2950  -2.1565   0.7627   2.3767

          k = 0.5000 0.0000 0.5000 (  2720 PWs)   bands (ev):

    -4.9490  -1.2682   0.9919   2.8062

          k = 0.0000 0.7500 0.0000 (  2730 PWs)   bands (ev):

    -4.6443  -1.5981   1.8238   1.8238

          k = 0.8750-0.1250 0.8750 (  2718 PWs)   bands (ev):

    -3.9437  -2.4739   1.2354   1.7582

          k = 0.7500 0.0000 0.7500 (  2702 PWs)   bands (ev):

    -3.6572  -2.7537   0.6158   1.9586

          k = 0.0000-1.0000 0.0000 (  2762 PWs)   bands (ev):

    -3.2539  -3.2539   1.6230   1.6230

          k =-0.2500 0.5000 0.0000 (  2724 PWs)   bands (ev):

    -5.4983  -0.3040   1.7897   2.7283

          k = 0.6250-0.3750 0.8750 (  2721 PWs)   bands (ev):

    -4.8148  -1.5099   1.2479   2.3675

          k = 0.5000-0.2500 0.7500 (  2724 PWs)   bands (ev):

    -4.3476  -2.1918   1.1017   2.2039

          k = 0.7500-0.2500 1.0000 (  2719 PWs)   bands (ev):

    -4.5015  -1.7721   1.2817   1.7566

          k = 0.6250-0.1250 0.8750 (  2720 PWs)   bands (ev):

    -3.8488  -2.5317   0.7728   1.6079

          k = 0.5000 0.0000 0.7500 (  2715 PWs)   bands (ev):

    -4.1246  -2.2279   0.6517   1.8872

          k =-0.2500-1.0000 0.0000 (  2720 PWs)   bands (ev):

    -3.2154  -3.2154   1.2530   1.2530

          k =-0.5000-1.0000 0.0000 (  2720 PWs)   bands (ev):

    -3.1750  -3.1750   0.9594   0.9594

     highest occupied level (ev):     3.8683

!    total energy              =     -19.15692380 Ry
     estimated scf accuracy    <       0.00000003 Ry

     The total energy is the sum of the following terms:
     one-electron contribution =       3.30405153 Ry
     hartree contribution      =       1.34840060 Ry
     xc contribution           =      -8.35313897 Ry
     ewald contribution        =     -15.45623696 Ry

     convergence has been achieved in   5 iterations

     Writing all to output data dir ./si-dia/si-dia.save/ :
     XML data file, charge density, pseudopotentials, collected wavefunctions

     init_run     :      0.38s CPU      0.42s WALL (       1 calls)
     electrons    :      0.16s CPU      0.21s WALL (       1 calls)

     Called by init_run:
     wfcinit      :      0.02s CPU      0.02s WALL (       1 calls)
     potinit      :      0.01s CPU      0.02s WALL (       1 calls)
     hinit0       :      0.32s CPU      0.33s WALL (       1 calls)

     Called by electrons:
     c_bands      :      0.10s CPU      0.11s WALL (       6 calls)
     sum_band     :      0.03s CPU      0.04s WALL (       6 calls)
     v_of_rho     :      0.02s CPU      0.03s WALL (       6 calls)
     newd         :      0.01s CPU      0.02s WALL (       6 calls)
     mix_rho      :      0.00s CPU      0.00s WALL (       6 calls)

     Called by c_bands:
     init_us_2    :      0.00s CPU      0.00s WALL (      52 calls)
     cegterg      :      0.08s CPU      0.08s WALL (      24 calls)

     Called by *egterg:
     cdiaghg      :      0.00s CPU      0.01s WALL (      93 calls)
     h_psi        :      0.07s CPU      0.08s WALL (     101 calls)
     s_psi        :      0.00s CPU      0.00s WALL (     101 calls)
     g_psi        :      0.00s CPU      0.00s WALL (      73 calls)

     Called by h_psi:
     h_psi:calbec :      0.01s CPU      0.01s WALL (     101 calls)
     vloc_psi     :      0.06s CPU      0.07s WALL (     101 calls)
     add_vuspsi   :      0.00s CPU      0.00s WALL (     101 calls)

     General routines
     calbec       :      0.01s CPU      0.01s WALL (     125 calls)
     fft          :      0.31s CPU      0.31s WALL (      67 calls)
     ffts         :      0.00s CPU      0.00s WALL (       6 calls)
     fftw         :      0.06s CPU      0.07s WALL (     790 calls)

     Parallel routines

     PWSCF        :      0.77s CPU      1.06s WALL


   This run was terminated on:  14:49:28   9Feb2026            

=------------------------------------------------------------------------------=
   JOB DONE.
=------------------------------------------------------------------------------=
