
     Program PWSCF v.7.3.1 starts on  6Feb2026 at 15:35:16 

     This program is part of the open-source Quantum ESPRESSO suite
     for quantum simulation of materials; please cite
         "P. Giannozzi et al., J. Phys.:Condens. Matter 21 395502 (2009);
         "P. Giannozzi et al., J. Phys.:Condens. Matter 29 465901 (2017);
         "P. Giannozzi et al., J. Chem. Phys. 152 154105 (2020);
          URL http://www.quantum-espresso.org", 
     in publications or presentations arising from this work. More details at
     http://www.quantum-espresso.org/quote

     Parallel version (MPI), running on   128 processors

     MPI processes distributed on     1 nodes
     241413 MiB available memory on the printing compute node when the environment starts

     Waiting for input...
     Reading input from standard input

     Current dimensions of program PWSCF are:
     Max number of different atomic species (ntypx) = 10
     Max number of k-points (npk) =  40000
     Max angular momentum in pseudopotentials (lmaxx) =  4

     K-points division:     npool     =       8
     R & G space division:  proc/nbgrp/npool/nimage =      16
     Subspace diagonalization in iterative solution of the eigenvalue problem:
     a serial algorithm will be used


     Parallelization info
     --------------------
     sticks:   dense  smooth     PW     G-vecs:    dense   smooth      PW
     Min          64      64     19                 1380     1380     220
     Max          65      65     21                 1384     1384     221
     Sum        1039    1039    313                22123    22123    3527

     Using Slab Decomposition



     bravais-lattice index     =            2
     lattice parameter (alat)  =      11.1834  a.u.
     unit-cell volume          =     349.6726 (a.u.)^3
     number of atoms/cell      =            2
     number of atomic types    =            1
     number of electrons       =         8.00
     number of Kohn-Sham states=            4
     kinetic-energy cutoff     =      60.0000  Ry
     charge density cutoff     =     240.0000  Ry
     scf convergence threshold =      1.0E-07
     mixing beta               =       0.7000
     number of iterations used =            8  plain     mixing
     Exchange-correlation=  SLA  PW   PBE  PBE
                           (   1   4   3   4   0   0   0)

     celldm(1)=  11.183400  celldm(2)=   0.000000  celldm(3)=   0.000000
     celldm(4)=   0.000000  celldm(5)=   0.000000  celldm(6)=   0.000000

     crystal axes: (cart. coord. in units of alat)
               a(1) = (  -0.500000   0.000000   0.500000 )  
               a(2) = (   0.000000   0.500000   0.500000 )  
               a(3) = (  -0.500000   0.500000   0.000000 )  

     reciprocal axes: (cart. coord. in units 2 pi/alat)
               b(1) = ( -1.000000 -1.000000  1.000000 )  
               b(2) = (  1.000000  1.000000  1.000000 )  
               b(3) = ( -1.000000  1.000000 -1.000000 )  


     PseudoPot. # 1 for Si read from file:
     ./Si.pbe-n-van.UPF
     MD5 check sum: 8a97496598b7338af554a5de8957bfee
     Pseudo is Ultrasoft + core correction, Zval =  4.0
     Generated by new atomic code, or converted to UPF format
     Using radial grid of  899 points,  6 beta functions with: 
                l(1) =   0
                l(2) =   0
                l(3) =   1
                l(4) =   1
                l(5) =   2
                l(6) =   2
     Q(r) pseudized with  8 coefficients,  rinner =    0.900   0.900   0.900
                                                       0.900   0.900

     atomic species   valence    mass     pseudopotential
     Si                4.00    28.08600     Si( 1.00)

     48 Sym. Ops., with inversion, found (24 have fractional translation)



   Cartesian axes

     site n.     atom                  positions (alat units)
         1        Si     tau(   1) = (  -0.7500000   0.7500000   0.7500000  )
         2        Si     tau(   2) = (   0.0000000   0.0000000   0.0000000  )

     number of k points=    29
                       cart. coord. in units 2pi/alat
        k(    1) = (   0.0000000   0.0000000   0.0000000), wk =   0.0039062
        k(    2) = (  -0.1250000   0.1250000  -0.1250000), wk =   0.0312500
        k(    3) = (  -0.2500000   0.2500000  -0.2500000), wk =   0.0312500
        k(    4) = (  -0.3750000   0.3750000  -0.3750000), wk =   0.0312500
        k(    5) = (   0.5000000  -0.5000000   0.5000000), wk =   0.0156250
        k(    6) = (   0.0000000   0.2500000   0.0000000), wk =   0.0234375
        k(    7) = (  -0.1250000   0.3750000  -0.1250000), wk =   0.0937500
        k(    8) = (  -0.2500000   0.5000000  -0.2500000), wk =   0.0937500
        k(    9) = (   0.6250000  -0.3750000   0.6250000), wk =   0.0937500
        k(   10) = (   0.5000000  -0.2500000   0.5000000), wk =   0.0937500
        k(   11) = (   0.3750000  -0.1250000   0.3750000), wk =   0.0937500
        k(   12) = (   0.2500000   0.0000000   0.2500000), wk =   0.0468750
        k(   13) = (   0.0000000   0.5000000   0.0000000), wk =   0.0234375
        k(   14) = (  -0.1250000   0.6250000  -0.1250000), wk =   0.0937500
        k(   15) = (   0.7500000  -0.2500000   0.7500000), wk =   0.0937500
        k(   16) = (   0.6250000  -0.1250000   0.6250000), wk =   0.0937500
        k(   17) = (   0.5000000   0.0000000   0.5000000), wk =   0.0468750
        k(   18) = (   0.0000000   0.7500000   0.0000000), wk =   0.0234375
        k(   19) = (   0.8750000  -0.1250000   0.8750000), wk =   0.0937500
        k(   20) = (   0.7500000   0.0000000   0.7500000), wk =   0.0468750
        k(   21) = (   0.0000000  -1.0000000   0.0000000), wk =   0.0117188
        k(   22) = (  -0.2500000   0.5000000   0.0000000), wk =   0.0937500
        k(   23) = (   0.6250000  -0.3750000   0.8750000), wk =   0.1875000
        k(   24) = (   0.5000000  -0.2500000   0.7500000), wk =   0.0937500
        k(   25) = (   0.7500000  -0.2500000   1.0000000), wk =   0.0937500
        k(   26) = (   0.6250000  -0.1250000   0.8750000), wk =   0.1875000
        k(   27) = (   0.5000000   0.0000000   0.7500000), wk =   0.0937500
        k(   28) = (  -0.2500000  -1.0000000   0.0000000), wk =   0.0468750
        k(   29) = (  -0.5000000  -1.0000000   0.0000000), wk =   0.0234375

     Dense  grid:    22123 G-vectors     FFT dimensions: (  40,  40,  40)

     Estimated max dynamical RAM per process >       2.81 MB

     Estimated total dynamical RAM >     321.45 MB

     Initial potential from superposition of free atoms

     starting charge       7.9987, renormalised to       8.0000
     Starting wfcs are    8 randomized atomic wfcs

     total cpu time spent up to now is        0.7 secs

     per-process dynamical memory:    10.2 Mb

     Self-consistent Calculation

     iteration #  1     ecut=    60.00 Ry     beta= 0.70
     Davidson diagonalization with overlap
     ethr =  1.00E-02,  avg # of iterations =  2.0

     Threshold (ethr) on eigenvalues was too large:
     Diagonalizing with lowered threshold

     Davidson diagonalization with overlap
     ethr =  4.18E-04,  avg # of iterations =  1.3

     total cpu time spent up to now is        0.8 secs

     total energy              =     -19.15369713 Ry
     estimated scf accuracy    <       0.03578554 Ry

     iteration #  2     ecut=    60.00 Ry     beta= 0.70
     Davidson diagonalization with overlap
     ethr =  4.47E-04,  avg # of iterations =  1.0

     total cpu time spent up to now is        0.8 secs

     total energy              =     -19.15430320 Ry
     estimated scf accuracy    <       0.00243817 Ry

     iteration #  3     ecut=    60.00 Ry     beta= 0.70
     Davidson diagonalization with overlap
     ethr =  3.05E-05,  avg # of iterations =  1.2

     total cpu time spent up to now is        0.8 secs

     total energy              =     -19.15445272 Ry
     estimated scf accuracy    <       0.00001620 Ry

     iteration #  4     ecut=    60.00 Ry     beta= 0.70
     Davidson diagonalization with overlap
     ethr =  2.03E-07,  avg # of iterations =  7.0

     total cpu time spent up to now is        0.9 secs

     total energy              =     -19.15452862 Ry
     estimated scf accuracy    <       0.00000077 Ry

     iteration #  5     ecut=    60.00 Ry     beta= 0.70
     Davidson diagonalization with overlap
     ethr =  9.61E-09,  avg # of iterations =  4.6

     total cpu time spent up to now is        0.9 secs

     End of self-consistent calculation

          k = 0.0000 0.0000 0.0000 (  2733 PWs)   bands (ev):

    -6.5773   3.8002   3.8002   3.8002

          k =-0.1250 0.1250-0.1250 (  2728 PWs)   bands (ev):

    -6.4154   2.1120   3.5794   3.5794

          k =-0.2500 0.2500-0.2500 (  2743 PWs)   bands (ev):

    -5.9480   0.1843   3.1978   3.1978

          k =-0.3750 0.3750-0.3750 (  2740 PWs)   bands (ev):

    -5.2700  -1.4160   2.9208   2.9208

          k = 0.5000-0.5000 0.5000 (  2764 PWs)   bands (ev):

    -4.8262  -2.1734   2.8240   2.8240

          k = 0.0000 0.2500 0.0000 (  2750 PWs)   bands (ev):

    -6.3606   2.0870   3.2037   3.2037

          k =-0.1250 0.3750-0.1250 (  2746 PWs)   bands (ev):

    -5.9907   0.6155   2.7608   2.7955

          k =-0.2500 0.5000-0.2500 (  2742 PWs)   bands (ev):

    -5.3618  -0.9834   2.2537   2.5646

          k = 0.6250-0.3750 0.6250 (  2751 PWs)   bands (ev):

    -4.7414  -2.0769   1.8988   2.5643

          k = 0.5000-0.2500 0.5000 (  2762 PWs)   bands (ev):

    -4.9107  -1.8081   1.7871   2.7842

          k = 0.3750-0.1250 0.3750 (  2744 PWs)   bands (ev):

    -5.5968  -0.4754   1.9747   3.1647

          k = 0.2500 0.0000 0.2500 (  2745 PWs)   bands (ev):

    -6.1499   1.0649   2.5880   3.5442

          k = 0.0000 0.5000 0.0000 (  2706 PWs)   bands (ev):

    -5.7193   0.1586   2.3502   2.3502

          k =-0.1250 0.6250-0.1250 (  2751 PWs)   bands (ev):

    -5.1636  -0.9611   1.7382   2.0893

          k = 0.7500-0.2500 0.7500 (  2734 PWs)   bands (ev):

    -4.4704  -2.0372   1.0568   2.0802

          k = 0.6250-0.1250 0.6250 (  2736 PWs)   bands (ev):

    -4.3380  -2.2096   0.7215   2.3205

          k = 0.5000 0.0000 0.5000 (  2742 PWs)   bands (ev):

    -4.9855  -1.3290   0.9497   2.7463

          k = 0.0000 0.7500 0.0000 (  2766 PWs)   bands (ev):

    -4.6824  -1.6600   1.7725   1.7725

          k = 0.8750-0.1250 0.8750 (  2748 PWs)   bands (ev):

    -3.9877  -2.5292   1.1909   1.7073

          k = 0.7500 0.0000 0.7500 (  2726 PWs)   bands (ev):

    -3.7052  -2.8057   0.5782   1.9059

          k = 0.0000-1.0000 0.0000 (  2778 PWs)   bands (ev):

    -3.3030  -3.3030   1.5731   1.5731

          k =-0.2500 0.5000 0.0000 (  2748 PWs)   bands (ev):

    -5.5299  -0.3722   1.7403   2.6690

          k = 0.6250-0.3750 0.8750 (  2741 PWs)   bands (ev):

    -4.8525  -1.5677   1.2014   2.3121

          k = 0.5000-0.2500 0.7500 (  2752 PWs)   bands (ev):

    -4.3904  -2.2423   1.0551   2.1503

          k = 0.7500-0.2500 1.0000 (  2739 PWs)   bands (ev):

    -4.5412  -1.8325   1.2365   1.7074

          k = 0.6250-0.1250 0.8750 (  2741 PWs)   bands (ev):

    -3.8948  -2.5858   0.7331   1.5602

          k = 0.5000 0.0000 0.7500 (  2736 PWs)   bands (ev):

    -4.1685  -2.2839   0.6133   1.8368

          k =-0.2500-1.0000 0.0000 (  2752 PWs)   bands (ev):

    -3.2655  -3.2655   1.2084   1.2084

          k =-0.5000-1.0000 0.0000 (  2740 PWs)   bands (ev):

    -3.2261  -3.2261   0.9186   0.9186

     highest occupied level (ev):     3.8002

!    total energy              =     -19.15452917 Ry
     estimated scf accuracy    <       0.00000003 Ry

     The total energy is the sum of the following terms:
     one-electron contribution =       3.24770295 Ry
     hartree contribution      =       1.35658350 Ry
     xc contribution           =      -8.34511876 Ry
     ewald contribution        =     -15.41369686 Ry

     convergence has been achieved in   5 iterations

     Writing all to output data dir ./si-dia/si-dia.save/ :
     XML data file, charge density, pseudopotentials, collected wavefunctions

     init_run     :      0.38s CPU      0.43s WALL (       1 calls)
     electrons    :      0.15s CPU      0.21s WALL (       1 calls)

     Called by init_run:
     wfcinit      :      0.02s CPU      0.02s WALL (       1 calls)
     potinit      :      0.01s CPU      0.03s WALL (       1 calls)
     hinit0       :      0.32s CPU      0.34s WALL (       1 calls)

     Called by electrons:
     c_bands      :      0.09s CPU      0.11s WALL (       6 calls)
     sum_band     :      0.02s CPU      0.04s WALL (       6 calls)
     v_of_rho     :      0.02s CPU      0.03s WALL (       6 calls)
     newd         :      0.01s CPU      0.01s WALL (       6 calls)
     mix_rho      :      0.00s CPU      0.00s WALL (       6 calls)

     Called by c_bands:
     init_us_2    :      0.00s CPU      0.00s WALL (      52 calls)
     cegterg      :      0.08s CPU      0.08s WALL (      24 calls)

     Called by *egterg:
     cdiaghg      :      0.01s CPU      0.01s WALL (      94 calls)
     h_psi        :      0.07s CPU      0.08s WALL (     102 calls)
     s_psi        :      0.00s CPU      0.00s WALL (     102 calls)
     g_psi        :      0.00s CPU      0.00s WALL (      74 calls)

     Called by h_psi:
     h_psi:calbec :      0.01s CPU      0.01s WALL (     102 calls)
     vloc_psi     :      0.06s CPU      0.07s WALL (     102 calls)
     add_vuspsi   :      0.00s CPU      0.00s WALL (     102 calls)

     General routines
     calbec       :      0.01s CPU      0.01s WALL (     126 calls)
     fft          :      0.30s CPU      0.31s WALL (      67 calls)
     ffts         :      0.00s CPU      0.00s WALL (       6 calls)
     fftw         :      0.06s CPU      0.07s WALL (     790 calls)

     Parallel routines

     PWSCF        :      0.76s CPU      1.04s WALL


   This run was terminated on:  15:35:17   6Feb2026            

=------------------------------------------------------------------------------=
   JOB DONE.
=------------------------------------------------------------------------------=
