
     Program PWSCF v.7.3.1 starts on  6Feb2026 at 15:35:38 

     This program is part of the open-source Quantum ESPRESSO suite
     for quantum simulation of materials; please cite
         "P. Giannozzi et al., J. Phys.:Condens. Matter 21 395502 (2009);
         "P. Giannozzi et al., J. Phys.:Condens. Matter 29 465901 (2017);
         "P. Giannozzi et al., J. Chem. Phys. 152 154105 (2020);
          URL http://www.quantum-espresso.org", 
     in publications or presentations arising from this work. More details at
     http://www.quantum-espresso.org/quote

     Parallel version (MPI), running on   128 processors

     MPI processes distributed on     1 nodes
     241387 MiB available memory on the printing compute node when the environment starts

     Waiting for input...
     Reading input from standard input

     Current dimensions of program PWSCF are:
     Max number of different atomic species (ntypx) = 10
     Max number of k-points (npk) =  40000
     Max angular momentum in pseudopotentials (lmaxx) =  4

     K-points division:     npool     =       8
     R & G space division:  proc/nbgrp/npool/nimage =      16
     Subspace diagonalization in iterative solution of the eigenvalue problem:
     a serial algorithm will be used


     Parallelization info
     --------------------
     sticks:   dense  smooth     PW     G-vecs:    dense   smooth      PW
     Min          65      65     19                 1400     1400     230
     Max          66      66     20                 1402     1402     232
     Sum        1045    1045    313                22419    22419    3695

     Using Slab Decomposition



     bravais-lattice index     =            2
     lattice parameter (alat)  =      11.2860  a.u.
     unit-cell volume          =     359.3852 (a.u.)^3
     number of atoms/cell      =            2
     number of atomic types    =            1
     number of electrons       =         8.00
     number of Kohn-Sham states=            4
     kinetic-energy cutoff     =      60.0000  Ry
     charge density cutoff     =     240.0000  Ry
     scf convergence threshold =      1.0E-07
     mixing beta               =       0.7000
     number of iterations used =            8  plain     mixing
     Exchange-correlation=  SLA  PW   PBE  PBE
                           (   1   4   3   4   0   0   0)

     celldm(1)=  11.286000  celldm(2)=   0.000000  celldm(3)=   0.000000
     celldm(4)=   0.000000  celldm(5)=   0.000000  celldm(6)=   0.000000

     crystal axes: (cart. coord. in units of alat)
               a(1) = (  -0.500000   0.000000   0.500000 )  
               a(2) = (   0.000000   0.500000   0.500000 )  
               a(3) = (  -0.500000   0.500000   0.000000 )  

     reciprocal axes: (cart. coord. in units 2 pi/alat)
               b(1) = ( -1.000000 -1.000000  1.000000 )  
               b(2) = (  1.000000  1.000000  1.000000 )  
               b(3) = ( -1.000000  1.000000 -1.000000 )  


     PseudoPot. # 1 for Si read from file:
     ./Si.pbe-n-van.UPF
     MD5 check sum: 8a97496598b7338af554a5de8957bfee
     Pseudo is Ultrasoft + core correction, Zval =  4.0
     Generated by new atomic code, or converted to UPF format
     Using radial grid of  899 points,  6 beta functions with: 
                l(1) =   0
                l(2) =   0
                l(3) =   1
                l(4) =   1
                l(5) =   2
                l(6) =   2
     Q(r) pseudized with  8 coefficients,  rinner =    0.900   0.900   0.900
                                                       0.900   0.900

     atomic species   valence    mass     pseudopotential
     Si                4.00    28.08600     Si( 1.00)

     48 Sym. Ops., with inversion, found (24 have fractional translation)



   Cartesian axes

     site n.     atom                  positions (alat units)
         1        Si     tau(   1) = (  -0.7500000   0.7500000   0.7500000  )
         2        Si     tau(   2) = (   0.0000000   0.0000000   0.0000000  )

     number of k points=    29
                       cart. coord. in units 2pi/alat
        k(    1) = (   0.0000000   0.0000000   0.0000000), wk =   0.0039062
        k(    2) = (  -0.1250000   0.1250000  -0.1250000), wk =   0.0312500
        k(    3) = (  -0.2500000   0.2500000  -0.2500000), wk =   0.0312500
        k(    4) = (  -0.3750000   0.3750000  -0.3750000), wk =   0.0312500
        k(    5) = (   0.5000000  -0.5000000   0.5000000), wk =   0.0156250
        k(    6) = (   0.0000000   0.2500000   0.0000000), wk =   0.0234375
        k(    7) = (  -0.1250000   0.3750000  -0.1250000), wk =   0.0937500
        k(    8) = (  -0.2500000   0.5000000  -0.2500000), wk =   0.0937500
        k(    9) = (   0.6250000  -0.3750000   0.6250000), wk =   0.0937500
        k(   10) = (   0.5000000  -0.2500000   0.5000000), wk =   0.0937500
        k(   11) = (   0.3750000  -0.1250000   0.3750000), wk =   0.0937500
        k(   12) = (   0.2500000   0.0000000   0.2500000), wk =   0.0468750
        k(   13) = (   0.0000000   0.5000000   0.0000000), wk =   0.0234375
        k(   14) = (  -0.1250000   0.6250000  -0.1250000), wk =   0.0937500
        k(   15) = (   0.7500000  -0.2500000   0.7500000), wk =   0.0937500
        k(   16) = (   0.6250000  -0.1250000   0.6250000), wk =   0.0937500
        k(   17) = (   0.5000000   0.0000000   0.5000000), wk =   0.0468750
        k(   18) = (   0.0000000   0.7500000   0.0000000), wk =   0.0234375
        k(   19) = (   0.8750000  -0.1250000   0.8750000), wk =   0.0937500
        k(   20) = (   0.7500000   0.0000000   0.7500000), wk =   0.0468750
        k(   21) = (   0.0000000  -1.0000000   0.0000000), wk =   0.0117188
        k(   22) = (  -0.2500000   0.5000000   0.0000000), wk =   0.0937500
        k(   23) = (   0.6250000  -0.3750000   0.8750000), wk =   0.1875000
        k(   24) = (   0.5000000  -0.2500000   0.7500000), wk =   0.0937500
        k(   25) = (   0.7500000  -0.2500000   1.0000000), wk =   0.0937500
        k(   26) = (   0.6250000  -0.1250000   0.8750000), wk =   0.1875000
        k(   27) = (   0.5000000   0.0000000   0.7500000), wk =   0.0937500
        k(   28) = (  -0.2500000  -1.0000000   0.0000000), wk =   0.0468750
        k(   29) = (  -0.5000000  -1.0000000   0.0000000), wk =   0.0234375

     Dense  grid:    22419 G-vectors     FFT dimensions: (  40,  40,  40)

     Estimated max dynamical RAM per process >       2.83 MB

     Estimated total dynamical RAM >     323.59 MB

     Initial potential from superposition of free atoms

     starting charge       7.9987, renormalised to       8.0000
     Starting wfcs are    8 randomized atomic wfcs

     total cpu time spent up to now is        0.7 secs

     per-process dynamical memory:    10.2 Mb

     Self-consistent Calculation

     iteration #  1     ecut=    60.00 Ry     beta= 0.70
     Davidson diagonalization with overlap
     ethr =  1.00E-02,  avg # of iterations =  1.9

     Threshold (ethr) on eigenvalues was too large:
     Diagonalizing with lowered threshold

     Davidson diagonalization with overlap
     ethr =  3.96E-04,  avg # of iterations =  1.6

     total cpu time spent up to now is        0.8 secs

     total energy              =     -19.14546705 Ry
     estimated scf accuracy    <       0.03412796 Ry

     iteration #  2     ecut=    60.00 Ry     beta= 0.70
     Davidson diagonalization with overlap
     ethr =  4.27E-04,  avg # of iterations =  1.0

     total cpu time spent up to now is        0.8 secs

     total energy              =     -19.14598565 Ry
     estimated scf accuracy    <       0.00240947 Ry

     iteration #  3     ecut=    60.00 Ry     beta= 0.70
     Davidson diagonalization with overlap
     ethr =  3.01E-05,  avg # of iterations =  1.3

     total cpu time spent up to now is        0.8 secs

     total energy              =     -19.14612372 Ry
     estimated scf accuracy    <       0.00001480 Ry

     iteration #  4     ecut=    60.00 Ry     beta= 0.70
     Davidson diagonalization with overlap
     ethr =  1.85E-07,  avg # of iterations =  7.0

     total cpu time spent up to now is        0.9 secs

     total energy              =     -19.14619322 Ry
     estimated scf accuracy    <       0.00000056 Ry

     iteration #  5     ecut=    60.00 Ry     beta= 0.70
     Davidson diagonalization with overlap
     ethr =  7.04E-09,  avg # of iterations =  5.1

     total cpu time spent up to now is        0.9 secs

     End of self-consistent calculation

          k = 0.0000 0.0000 0.0000 (  2741 PWs)   bands (ev):

    -6.6531   3.5783   3.5783   3.5783

          k =-0.1250 0.1250-0.1250 (  2800 PWs)   bands (ev):

    -6.4953   1.8523   3.3639   3.3639

          k =-0.2500 0.2500-0.2500 (  2809 PWs)   bands (ev):

    -6.0403  -0.0269   2.9913   2.9913

          k =-0.3750 0.3750-0.3750 (  2821 PWs)   bands (ev):

    -5.3827  -1.5833   2.7198   2.7198

          k = 0.5000-0.5000 0.5000 (  2824 PWs)   bands (ev):

    -4.9556  -2.3160   2.6247   2.6247

          k = 0.0000 0.2500 0.0000 (  2798 PWs)   bands (ev):

    -6.4418   1.8034   3.0010   3.0010

          k =-0.1250 0.3750-0.1250 (  2810 PWs)   bands (ev):

    -6.0816   0.3767   2.5613   2.6030

          k =-0.2500 0.5000-0.2500 (  2821 PWs)   bands (ev):

    -5.4705  -1.1737   2.0620   2.3763

          k = 0.6250-0.3750 0.6250 (  2824 PWs)   bands (ev):

    -4.8716  -2.2316   1.7153   2.3741

          k = 0.5000-0.2500 0.5000 (  2829 PWs)   bands (ev):

    -5.0345  -1.9722   1.6098   2.5870

          k = 0.3750-0.1250 0.3750 (  2830 PWs)   bands (ev):

    -5.6987  -0.6810   1.8003   2.9571

          k = 0.2500 0.0000 0.2500 (  2818 PWs)   bands (ev):

    -6.2366   0.8172   2.4046   3.3268

          k = 0.0000 0.5000 0.0000 (  2826 PWs)   bands (ev):

    -5.8170  -0.0873   2.1698   2.1698

          k =-0.1250 0.6250-0.1250 (  2812 PWs)   bands (ev):

    -5.2761  -1.1767   1.5744   1.9147

          k = 0.7500-0.2500 0.7500 (  2816 PWs)   bands (ev):

    -4.6045  -2.2188   0.9114   1.9046

          k = 0.6250-0.1250 0.6250 (  2819 PWs)   bands (ev):

    -4.4780  -2.3839   0.5875   2.1376

          k = 0.5000 0.0000 0.5000 (  2840 PWs)   bands (ev):

    -5.1047  -1.5285   0.8125   2.5511

          k = 0.0000 0.7500 0.0000 (  2822 PWs)   bands (ev):

    -4.8069  -1.8626   1.6058   1.6058

          k = 0.8750-0.1250 0.8750 (  2827 PWs)   bands (ev):

    -4.1315  -2.7100   1.0457   1.5416

          k = 0.7500 0.0000 0.7500 (  2838 PWs)   bands (ev):

    -3.8618  -2.9759   0.4556   1.7348

          k = 0.0000-1.0000 0.0000 (  2794 PWs)   bands (ev):

    -3.4635  -3.4635   1.4109   1.4109

          k =-0.2500 0.5000 0.0000 (  2817 PWs)   bands (ev):

    -5.6330  -0.5962   1.5797   2.4760

          k = 0.6250-0.3750 0.8750 (  2820 PWs)   bands (ev):

    -4.9756  -1.7577   1.0502   2.1316

          k = 0.5000-0.2500 0.7500 (  2826 PWs)   bands (ev):

    -4.5301  -2.4082   0.9037   1.9756

          k = 0.7500-0.2500 1.0000 (  2804 PWs)   bands (ev):

    -4.6709  -2.0302   1.0895   1.5470

          k = 0.6250-0.1250 0.8750 (  2819 PWs)   bands (ev):

    -4.0452  -2.7631   0.6037   1.4048

          k = 0.5000 0.0000 0.7500 (  2820 PWs)   bands (ev):

    -4.3115  -2.4674   0.4881   1.6724

          k =-0.2500-1.0000 0.0000 (  2834 PWs)   bands (ev):

    -3.4290  -3.4290   1.0630   1.0630

          k =-0.5000-1.0000 0.0000 (  2832 PWs)   bands (ev):

    -3.3929  -3.3929   0.7858   0.7858

     highest occupied level (ev):     3.5783

!    total energy              =     -19.14619375 Ry
     estimated scf accuracy    <       0.00000002 Ry

     The total energy is the sum of the following terms:
     one-electron contribution =       3.06238502 Ry
     hartree contribution      =       1.38398075 Ry
     xc contribution           =      -8.31898717 Ry
     ewald contribution        =     -15.27357234 Ry

     convergence has been achieved in   5 iterations

     Writing all to output data dir ./si-dia/si-dia.save/ :
     XML data file, charge density, pseudopotentials, collected wavefunctions

     init_run     :      0.37s CPU      0.42s WALL (       1 calls)
     electrons    :      0.17s CPU      0.22s WALL (       1 calls)

     Called by init_run:
     wfcinit      :      0.02s CPU      0.02s WALL (       1 calls)
     potinit      :      0.02s CPU      0.02s WALL (       1 calls)
     hinit0       :      0.31s CPU      0.33s WALL (       1 calls)

     Called by electrons:
     c_bands      :      0.09s CPU      0.12s WALL (       6 calls)
     sum_band     :      0.03s CPU      0.04s WALL (       6 calls)
     v_of_rho     :      0.03s CPU      0.03s WALL (       6 calls)
     newd         :      0.01s CPU      0.01s WALL (       6 calls)
     mix_rho      :      0.00s CPU      0.00s WALL (       6 calls)

     Called by c_bands:
     init_us_2    :      0.00s CPU      0.00s WALL (      52 calls)
     cegterg      :      0.08s CPU      0.10s WALL (      24 calls)

     Called by *egterg:
     cdiaghg      :      0.00s CPU      0.01s WALL (     110 calls)
     h_psi        :      0.07s CPU      0.09s WALL (     118 calls)
     s_psi        :      0.00s CPU      0.00s WALL (     118 calls)
     g_psi        :      0.00s CPU      0.00s WALL (      90 calls)

     Called by h_psi:
     h_psi:calbec :      0.01s CPU      0.01s WALL (     118 calls)
     vloc_psi     :      0.06s CPU      0.07s WALL (     118 calls)
     add_vuspsi   :      0.00s CPU      0.00s WALL (     118 calls)

     General routines
     calbec       :      0.01s CPU      0.01s WALL (     142 calls)
     fft          :      0.31s CPU      0.31s WALL (      67 calls)
     ffts         :      0.00s CPU      0.00s WALL (       6 calls)
     fftw         :      0.06s CPU      0.08s WALL (     842 calls)

     Parallel routines

     PWSCF        :      0.76s CPU      1.01s WALL


   This run was terminated on:  15:35:39   6Feb2026            

=------------------------------------------------------------------------------=
   JOB DONE.
=------------------------------------------------------------------------------=
