
     Program PWSCF v.7.3.1 starts on  9Feb2026 at 14:42:22 

     This program is part of the open-source Quantum ESPRESSO suite
     for quantum simulation of materials; please cite
         "P. Giannozzi et al., J. Phys.:Condens. Matter 21 395502 (2009);
         "P. Giannozzi et al., J. Phys.:Condens. Matter 29 465901 (2017);
         "P. Giannozzi et al., J. Chem. Phys. 152 154105 (2020);
          URL http://www.quantum-espresso.org", 
     in publications or presentations arising from this work. More details at
     http://www.quantum-espresso.org/quote

     Parallel version (MPI), running on   128 processors

     MPI processes distributed on     1 nodes
     241442 MiB available memory on the printing compute node when the environment starts

     Waiting for input...
     Reading input from standard input

     Current dimensions of program PWSCF are:
     Max number of different atomic species (ntypx) = 10
     Max number of k-points (npk) =  40000
     Max angular momentum in pseudopotentials (lmaxx) =  4

     K-points division:     npool     =       8
     R & G space division:  proc/nbgrp/npool/nimage =      16
     Subspace diagonalization in iterative solution of the eigenvalue problem:
     a serial algorithm will be used


     Parallelization info
     --------------------
     sticks:   dense  smooth     PW     G-vecs:    dense   smooth      PW
     Min          45      45     13                  805      805     133
     Max          46      46     15                  807      807     134
     Sum         733     733    223                12891    12891    2133

     Using Slab Decomposition



     bravais-lattice index     =            2
     lattice parameter (alat)  =       9.3469  a.u.
     unit-cell volume          =     204.1443 (a.u.)^3
     number of atoms/cell      =            2
     number of atomic types    =            1
     number of electrons       =         8.00
     number of Kohn-Sham states=            4
     kinetic-energy cutoff     =      60.0000  Ry
     charge density cutoff     =     240.0000  Ry
     scf convergence threshold =      1.0E-07
     mixing beta               =       0.7000
     number of iterations used =            8  plain     mixing
     Exchange-correlation=  SLA  PW   PBE  PBE
                           (   1   4   3   4   0   0   0)

     celldm(1)=   9.346860  celldm(2)=   0.000000  celldm(3)=   0.000000
     celldm(4)=   0.000000  celldm(5)=   0.000000  celldm(6)=   0.000000

     crystal axes: (cart. coord. in units of alat)
               a(1) = (  -0.500000   0.000000   0.500000 )  
               a(2) = (   0.000000   0.500000   0.500000 )  
               a(3) = (  -0.500000   0.500000   0.000000 )  

     reciprocal axes: (cart. coord. in units 2 pi/alat)
               b(1) = ( -1.000000 -1.000000  1.000000 )  
               b(2) = (  1.000000  1.000000  1.000000 )  
               b(3) = ( -1.000000  1.000000 -1.000000 )  


     PseudoPot. # 1 for Si read from file:
     ./Si.pbe-n-van.UPF
     MD5 check sum: 8a97496598b7338af554a5de8957bfee
     Pseudo is Ultrasoft + core correction, Zval =  4.0
     Generated by new atomic code, or converted to UPF format
     Using radial grid of  899 points,  6 beta functions with: 
                l(1) =   0
                l(2) =   0
                l(3) =   1
                l(4) =   1
                l(5) =   2
                l(6) =   2
     Q(r) pseudized with  8 coefficients,  rinner =    0.900   0.900   0.900
                                                       0.900   0.900

     atomic species   valence    mass     pseudopotential
     Si                4.00    28.08600     Si( 1.00)

     48 Sym. Ops., with inversion, found (24 have fractional translation)



   Cartesian axes

     site n.     atom                  positions (alat units)
         1        Si     tau(   1) = (  -0.7500000   0.7500000   0.7500000  )
         2        Si     tau(   2) = (   0.0000000   0.0000000   0.0000000  )

     number of k points=    29
                       cart. coord. in units 2pi/alat
        k(    1) = (   0.0000000   0.0000000   0.0000000), wk =   0.0039062
        k(    2) = (  -0.1250000   0.1250000  -0.1250000), wk =   0.0312500
        k(    3) = (  -0.2500000   0.2500000  -0.2500000), wk =   0.0312500
        k(    4) = (  -0.3750000   0.3750000  -0.3750000), wk =   0.0312500
        k(    5) = (   0.5000000  -0.5000000   0.5000000), wk =   0.0156250
        k(    6) = (   0.0000000   0.2500000   0.0000000), wk =   0.0234375
        k(    7) = (  -0.1250000   0.3750000  -0.1250000), wk =   0.0937500
        k(    8) = (  -0.2500000   0.5000000  -0.2500000), wk =   0.0937500
        k(    9) = (   0.6250000  -0.3750000   0.6250000), wk =   0.0937500
        k(   10) = (   0.5000000  -0.2500000   0.5000000), wk =   0.0937500
        k(   11) = (   0.3750000  -0.1250000   0.3750000), wk =   0.0937500
        k(   12) = (   0.2500000   0.0000000   0.2500000), wk =   0.0468750
        k(   13) = (   0.0000000   0.5000000   0.0000000), wk =   0.0234375
        k(   14) = (  -0.1250000   0.6250000  -0.1250000), wk =   0.0937500
        k(   15) = (   0.7500000  -0.2500000   0.7500000), wk =   0.0937500
        k(   16) = (   0.6250000  -0.1250000   0.6250000), wk =   0.0937500
        k(   17) = (   0.5000000   0.0000000   0.5000000), wk =   0.0468750
        k(   18) = (   0.0000000   0.7500000   0.0000000), wk =   0.0234375
        k(   19) = (   0.8750000  -0.1250000   0.8750000), wk =   0.0937500
        k(   20) = (   0.7500000   0.0000000   0.7500000), wk =   0.0468750
        k(   21) = (   0.0000000  -1.0000000   0.0000000), wk =   0.0117188
        k(   22) = (  -0.2500000   0.5000000   0.0000000), wk =   0.0937500
        k(   23) = (   0.6250000  -0.3750000   0.8750000), wk =   0.1875000
        k(   24) = (   0.5000000  -0.2500000   0.7500000), wk =   0.0937500
        k(   25) = (   0.7500000  -0.2500000   1.0000000), wk =   0.0937500
        k(   26) = (   0.6250000  -0.1250000   0.8750000), wk =   0.1875000
        k(   27) = (   0.5000000   0.0000000   0.7500000), wk =   0.0937500
        k(   28) = (  -0.2500000  -1.0000000   0.0000000), wk =   0.0468750
        k(   29) = (  -0.5000000  -1.0000000   0.0000000), wk =   0.0234375

     Dense  grid:    12891 G-vectors     FFT dimensions: (  36,  36,  36)

     Estimated max dynamical RAM per process >       2.23 MB

     Estimated total dynamical RAM >     263.28 MB

     Initial potential from superposition of free atoms

     starting charge       7.9987, renormalised to       8.0000
     Starting wfcs are    8 randomized atomic wfcs

     total cpu time spent up to now is        0.7 secs

     per-process dynamical memory:     9.9 Mb

     Self-consistent Calculation

     iteration #  1     ecut=    60.00 Ry     beta= 0.70
     Davidson diagonalization with overlap
     ethr =  1.00E-02,  avg # of iterations =  2.0

     total cpu time spent up to now is        0.7 secs

     total energy              =     -19.09296328 Ry
     estimated scf accuracy    <       0.08056684 Ry

     iteration #  2     ecut=    60.00 Ry     beta= 0.70
     Davidson diagonalization with overlap
     ethr =  1.01E-03,  avg # of iterations =  1.2

     total cpu time spent up to now is        0.7 secs

     total energy              =     -19.09792227 Ry
     estimated scf accuracy    <       0.00266563 Ry

     iteration #  3     ecut=    60.00 Ry     beta= 0.70
     Davidson diagonalization with overlap
     ethr =  3.33E-05,  avg # of iterations =  2.8

     total cpu time spent up to now is        0.8 secs

     total energy              =     -19.09890330 Ry
     estimated scf accuracy    <       0.00005351 Ry

     iteration #  4     ecut=    60.00 Ry     beta= 0.70
     Davidson diagonalization with overlap
     ethr =  6.69E-07,  avg # of iterations =  5.3

     total cpu time spent up to now is        0.8 secs

     total energy              =     -19.09897353 Ry
     estimated scf accuracy    <       0.00000063 Ry

     iteration #  5     ecut=    60.00 Ry     beta= 0.70
     Davidson diagonalization with overlap
     ethr =  7.83E-09,  avg # of iterations =  5.9

     total cpu time spent up to now is        0.8 secs

     End of self-consistent calculation

          k = 0.0000 0.0000 0.0000 (  1639 PWs)   bands (ev):

    -4.6157   9.5258   9.5258   9.5258

          k =-0.1250 0.1250-0.1250 (  1588 PWs)   bands (ev):

    -4.3579   7.7061   9.1446   9.1446

          k =-0.2500 0.2500-0.2500 (  1603 PWs)   bands (ev):

    -3.5990   4.9110   8.5731   8.5731

          k =-0.3750 0.3750-0.3750 (  1607 PWs)   bands (ev):

    -2.4196   2.3838   8.2009   8.2009

          k = 0.5000-0.5000 0.5000 (  1622 PWs)   bands (ev):

    -1.4732   0.9749   8.0783   8.0783

          k = 0.0000 0.2500 0.0000 (  1587 PWs)   bands (ev):

    -4.2715   8.3633   8.4231   8.4231

          k =-0.1250 0.3750-0.1250 (  1602 PWs)   bands (ev):

    -3.6771   5.9045   7.7844   8.0972

          k =-0.2500 0.5000-0.2500 (  1598 PWs)   bands (ev):

    -2.6209   3.3108   7.3789   7.4811

          k = 0.6250-0.3750 0.6250 (  1599 PWs)   bands (ev):

    -1.4037   1.3520   6.7984   7.5517

          k = 0.5000-0.2500 0.5000 (  1600 PWs)   bands (ev):

    -1.7703   1.8727   6.5130   7.9606

          k = 0.3750-0.1250 0.3750 (  1595 PWs)   bands (ev):

    -3.0206   4.1509   6.6091   8.6050

          k = 0.2500 0.0000 0.2500 (  1592 PWs)   bands (ev):

    -3.9319   6.6014   7.3250   9.2168

          k = 0.0000 0.5000 0.0000 (  1612 PWs)   bands (ev):

    -3.2495   5.9863   7.0505   7.0505

          k =-0.1250 0.6250-0.1250 (  1611 PWs)   bands (ev):

    -2.3415   4.1484   6.0778   6.6642

          k = 0.7500-0.2500 0.7500 (  1609 PWs)   bands (ev):

    -1.0948   2.1813   5.0075   6.6888

          k = 0.6250-0.1250 0.6250 (  1597 PWs)   bands (ev):

    -0.7688   1.7753   4.3877   7.1141

          k = 0.5000 0.0000 0.5000 (  1604 PWs)   bands (ev):

    -1.9873   3.3866   4.5722   7.8556

          k = 0.0000 0.7500 0.0000 (  1608 PWs)   bands (ev):

    -1.5858   3.2674   6.1630   6.1630

          k = 0.8750-0.1250 0.8750 (  1606 PWs)   bands (ev):

    -0.4211   1.9194   4.9575   6.0752

          k = 0.7500 0.0000 0.7500 (  1608 PWs)   bands (ev):

     0.2873   1.3380   3.7174   6.4101

          k = 0.0000-1.0000 0.0000 (  1588 PWs)   bands (ev):

     0.6411   0.6411   5.8609   5.8609

          k =-0.2500 0.5000 0.0000 (  1594 PWs)   bands (ev):

    -2.9269   4.8511   5.9390   7.7302

          k = 0.6250-0.3750 0.8750 (  1602 PWs)   bands (ev):

    -1.7581   2.7955   5.3306   6.9985

          k = 0.5000-0.2500 0.7500 (  1584 PWs)   bands (ev):

    -0.8048   1.4434   5.2551   6.6574

          k = 0.7500-0.2500 1.0000 (  1613 PWs)   bands (ev):

    -1.3066   3.0083   5.0958   5.8297

          k = 0.6250-0.1250 0.8750 (  1606 PWs)   bands (ev):

    -0.0960   1.7284   4.1285   5.5654

          k = 0.5000 0.0000 0.7500 (  1596 PWs)   bands (ev):

    -0.5557   2.1790   3.8848   6.0861

          k =-0.2500-1.0000 0.0000 (  1614 PWs)   bands (ev):

     0.7950   0.7950   4.9784   4.9784

          k =-0.5000-1.0000 0.0000 (  1604 PWs)   bands (ev):

     0.9806   0.9806   4.3078   4.3078

     highest occupied level (ev):     9.5258

!    total energy              =     -19.09897540 Ry
     estimated scf accuracy    <       0.00000003 Ry

     The total energy is the sum of the following terms:
     one-electron contribution =       7.45409956 Ry
     hartree contribution      =       0.88363977 Ry
     xc contribution           =      -8.99442102 Ry
     ewald contribution        =     -18.44229372 Ry

     convergence has been achieved in   5 iterations

     Writing all to output data dir ./si-dia/si-dia.save/ :
     XML data file, charge density, pseudopotentials, collected wavefunctions

     init_run     :      0.35s CPU      0.38s WALL (       1 calls)
     electrons    :      0.13s CPU      0.18s WALL (       1 calls)

     Called by init_run:
     wfcinit      :      0.02s CPU      0.02s WALL (       1 calls)
     potinit      :      0.02s CPU      0.02s WALL (       1 calls)
     hinit0       :      0.29s CPU      0.30s WALL (       1 calls)

     Called by electrons:
     c_bands      :      0.08s CPU      0.09s WALL (       5 calls)
     sum_band     :      0.02s CPU      0.03s WALL (       5 calls)
     v_of_rho     :      0.02s CPU      0.02s WALL (       6 calls)
     newd         :      0.01s CPU      0.01s WALL (       6 calls)
     mix_rho      :      0.00s CPU      0.00s WALL (       5 calls)

     Called by c_bands:
     init_us_2    :      0.00s CPU      0.00s WALL (      44 calls)
     cegterg      :      0.07s CPU      0.08s WALL (      20 calls)

     Called by *egterg:
     cdiaghg      :      0.00s CPU      0.01s WALL (      94 calls)
     h_psi        :      0.07s CPU      0.07s WALL (      98 calls)
     s_psi        :      0.00s CPU      0.00s WALL (      98 calls)
     g_psi        :      0.00s CPU      0.00s WALL (      74 calls)

     Called by h_psi:
     h_psi:calbec :      0.01s CPU      0.01s WALL (      98 calls)
     vloc_psi     :      0.06s CPU      0.06s WALL (      98 calls)
     add_vuspsi   :      0.00s CPU      0.00s WALL (      98 calls)

     General routines
     calbec       :      0.01s CPU      0.01s WALL (     118 calls)
     fft          :      0.26s CPU      0.27s WALL (      66 calls)
     ffts         :      0.00s CPU      0.00s WALL (       5 calls)
     fftw         :      0.06s CPU      0.06s WALL (     784 calls)

     Parallel routines

     PWSCF        :      0.70s CPU      0.97s WALL


   This run was terminated on:  14:42:23   9Feb2026            

=------------------------------------------------------------------------------=
   JOB DONE.
=------------------------------------------------------------------------------=
