
     Program PWSCF v.7.3.1 starts on  9Feb2026 at 14:42:27 

     This program is part of the open-source Quantum ESPRESSO suite
     for quantum simulation of materials; please cite
         "P. Giannozzi et al., J. Phys.:Condens. Matter 21 395502 (2009);
         "P. Giannozzi et al., J. Phys.:Condens. Matter 29 465901 (2017);
         "P. Giannozzi et al., J. Chem. Phys. 152 154105 (2020);
          URL http://www.quantum-espresso.org", 
     in publications or presentations arising from this work. More details at
     http://www.quantum-espresso.org/quote

     Parallel version (MPI), running on   128 processors

     MPI processes distributed on     1 nodes
     241451 MiB available memory on the printing compute node when the environment starts

     Waiting for input...
     Reading input from standard input

     Current dimensions of program PWSCF are:
     Max number of different atomic species (ntypx) = 10
     Max number of k-points (npk) =  40000
     Max angular momentum in pseudopotentials (lmaxx) =  4

     K-points division:     npool     =       8
     R & G space division:  proc/nbgrp/npool/nimage =      16
     Subspace diagonalization in iterative solution of the eigenvalue problem:
     a serial algorithm will be used


     Parallelization info
     --------------------
     sticks:   dense  smooth     PW     G-vecs:    dense   smooth      PW
     Min          45      45     13                  808      808     137
     Max          46      46     14                  810      810     142
     Sum         733     733    223                12939    12939    2229

     Using Slab Decomposition



     bravais-lattice index     =            2
     lattice parameter (alat)  =       9.3674  a.u.
     unit-cell volume          =     205.4918 (a.u.)^3
     number of atoms/cell      =            2
     number of atomic types    =            1
     number of electrons       =         8.00
     number of Kohn-Sham states=            4
     kinetic-energy cutoff     =      60.0000  Ry
     charge density cutoff     =     240.0000  Ry
     scf convergence threshold =      1.0E-07
     mixing beta               =       0.7000
     number of iterations used =            8  plain     mixing
     Exchange-correlation=  SLA  PW   PBE  PBE
                           (   1   4   3   4   0   0   0)

     celldm(1)=   9.367380  celldm(2)=   0.000000  celldm(3)=   0.000000
     celldm(4)=   0.000000  celldm(5)=   0.000000  celldm(6)=   0.000000

     crystal axes: (cart. coord. in units of alat)
               a(1) = (  -0.500000   0.000000   0.500000 )  
               a(2) = (   0.000000   0.500000   0.500000 )  
               a(3) = (  -0.500000   0.500000   0.000000 )  

     reciprocal axes: (cart. coord. in units 2 pi/alat)
               b(1) = ( -1.000000 -1.000000  1.000000 )  
               b(2) = (  1.000000  1.000000  1.000000 )  
               b(3) = ( -1.000000  1.000000 -1.000000 )  


     PseudoPot. # 1 for Si read from file:
     ./Si.pbe-n-van.UPF
     MD5 check sum: 8a97496598b7338af554a5de8957bfee
     Pseudo is Ultrasoft + core correction, Zval =  4.0
     Generated by new atomic code, or converted to UPF format
     Using radial grid of  899 points,  6 beta functions with: 
                l(1) =   0
                l(2) =   0
                l(3) =   1
                l(4) =   1
                l(5) =   2
                l(6) =   2
     Q(r) pseudized with  8 coefficients,  rinner =    0.900   0.900   0.900
                                                       0.900   0.900

     atomic species   valence    mass     pseudopotential
     Si                4.00    28.08600     Si( 1.00)

     48 Sym. Ops., with inversion, found (24 have fractional translation)



   Cartesian axes

     site n.     atom                  positions (alat units)
         1        Si     tau(   1) = (  -0.7500000   0.7500000   0.7500000  )
         2        Si     tau(   2) = (   0.0000000   0.0000000   0.0000000  )

     number of k points=    29
                       cart. coord. in units 2pi/alat
        k(    1) = (   0.0000000   0.0000000   0.0000000), wk =   0.0039062
        k(    2) = (  -0.1250000   0.1250000  -0.1250000), wk =   0.0312500
        k(    3) = (  -0.2500000   0.2500000  -0.2500000), wk =   0.0312500
        k(    4) = (  -0.3750000   0.3750000  -0.3750000), wk =   0.0312500
        k(    5) = (   0.5000000  -0.5000000   0.5000000), wk =   0.0156250
        k(    6) = (   0.0000000   0.2500000   0.0000000), wk =   0.0234375
        k(    7) = (  -0.1250000   0.3750000  -0.1250000), wk =   0.0937500
        k(    8) = (  -0.2500000   0.5000000  -0.2500000), wk =   0.0937500
        k(    9) = (   0.6250000  -0.3750000   0.6250000), wk =   0.0937500
        k(   10) = (   0.5000000  -0.2500000   0.5000000), wk =   0.0937500
        k(   11) = (   0.3750000  -0.1250000   0.3750000), wk =   0.0937500
        k(   12) = (   0.2500000   0.0000000   0.2500000), wk =   0.0468750
        k(   13) = (   0.0000000   0.5000000   0.0000000), wk =   0.0234375
        k(   14) = (  -0.1250000   0.6250000  -0.1250000), wk =   0.0937500
        k(   15) = (   0.7500000  -0.2500000   0.7500000), wk =   0.0937500
        k(   16) = (   0.6250000  -0.1250000   0.6250000), wk =   0.0937500
        k(   17) = (   0.5000000   0.0000000   0.5000000), wk =   0.0468750
        k(   18) = (   0.0000000   0.7500000   0.0000000), wk =   0.0234375
        k(   19) = (   0.8750000  -0.1250000   0.8750000), wk =   0.0937500
        k(   20) = (   0.7500000   0.0000000   0.7500000), wk =   0.0468750
        k(   21) = (   0.0000000  -1.0000000   0.0000000), wk =   0.0117188
        k(   22) = (  -0.2500000   0.5000000   0.0000000), wk =   0.0937500
        k(   23) = (   0.6250000  -0.3750000   0.8750000), wk =   0.1875000
        k(   24) = (   0.5000000  -0.2500000   0.7500000), wk =   0.0937500
        k(   25) = (   0.7500000  -0.2500000   1.0000000), wk =   0.0937500
        k(   26) = (   0.6250000  -0.1250000   0.8750000), wk =   0.1875000
        k(   27) = (   0.5000000   0.0000000   0.7500000), wk =   0.0937500
        k(   28) = (  -0.2500000  -1.0000000   0.0000000), wk =   0.0468750
        k(   29) = (  -0.5000000  -1.0000000   0.0000000), wk =   0.0234375

     Dense  grid:    12939 G-vectors     FFT dimensions: (  36,  36,  36)

     Estimated max dynamical RAM per process >       2.23 MB

     Estimated total dynamical RAM >     263.79 MB

     Initial potential from superposition of free atoms

     starting charge       7.9987, renormalised to       8.0000
     Starting wfcs are    8 randomized atomic wfcs

     total cpu time spent up to now is        0.6 secs

     per-process dynamical memory:     9.8 Mb

     Self-consistent Calculation

     iteration #  1     ecut=    60.00 Ry     beta= 0.70
     Davidson diagonalization with overlap
     ethr =  1.00E-02,  avg # of iterations =  2.0

     Threshold (ethr) on eigenvalues was too large:
     Diagonalizing with lowered threshold

     Davidson diagonalization with overlap
     ethr =  9.97E-04,  avg # of iterations =  1.0

     total cpu time spent up to now is        0.7 secs

     total energy              =     -19.09729073 Ry
     estimated scf accuracy    <       0.08464082 Ry

     iteration #  2     ecut=    60.00 Ry     beta= 0.70
     Davidson diagonalization with overlap
     ethr =  1.06E-03,  avg # of iterations =  1.0

     total cpu time spent up to now is        0.7 secs

     total energy              =     -19.10247345 Ry
     estimated scf accuracy    <       0.00227155 Ry

     iteration #  3     ecut=    60.00 Ry     beta= 0.70
     Davidson diagonalization with overlap
     ethr =  2.84E-05,  avg # of iterations =  2.4

     total cpu time spent up to now is        0.8 secs

     total energy              =     -19.10336826 Ry
     estimated scf accuracy    <       0.00006641 Ry

     iteration #  4     ecut=    60.00 Ry     beta= 0.70
     Davidson diagonalization with overlap
     ethr =  8.30E-07,  avg # of iterations =  5.4

     total cpu time spent up to now is        0.8 secs

     total energy              =     -19.10344429 Ry
     estimated scf accuracy    <       0.00000133 Ry

     iteration #  5     ecut=    60.00 Ry     beta= 0.70
     Davidson diagonalization with overlap
     ethr =  1.67E-08,  avg # of iterations =  4.9

     total cpu time spent up to now is        0.8 secs

     End of self-consistent calculation

          k = 0.0000 0.0000 0.0000 (  1639 PWs)   bands (ev):

    -4.6464   9.4379   9.4379   9.4379

          k =-0.1250 0.1250-0.1250 (  1606 PWs)   bands (ev):

    -4.3900   7.6259   9.0592   9.0592

          k =-0.2500 0.2500-0.2500 (  1618 PWs)   bands (ev):

    -3.6352   4.8428   8.4900   8.4900

          k =-0.3750 0.3750-0.3750 (  1610 PWs)   bands (ev):

    -2.4632   2.3284   8.1185   8.1185

          k = 0.5000-0.5000 0.5000 (  1622 PWs)   bands (ev):

    -1.5255   0.9302   7.9961   7.9961

          k = 0.0000 0.2500 0.0000 (  1603 PWs)   bands (ev):

    -4.3040   8.2728   8.3431   8.3431

          k =-0.1250 0.3750-0.1250 (  1605 PWs)   bands (ev):

    -3.7129   5.8296   7.7075   8.0131

          k =-0.2500 0.5000-0.2500 (  1598 PWs)   bands (ev):

    -2.6628   3.2490   7.2983   7.4049

          k = 0.6250-0.3750 0.6250 (  1609 PWs)   bands (ev):

    -1.4552   1.3032   6.7215   7.4742

          k = 0.5000-0.2500 0.5000 (  1614 PWs)   bands (ev):

    -1.8183   1.8198   6.4389   7.8800

          k = 0.3750-0.1250 0.3750 (  1614 PWs)   bands (ev):

    -3.0601   4.0847   6.5365   8.5204

          k = 0.2500 0.0000 0.2500 (  1608 PWs)   bands (ev):

    -3.9663   6.5219   7.2521   9.1289

          k = 0.0000 0.5000 0.0000 (  1612 PWs)   bands (ev):

    -3.2874   5.9003   6.9777   6.9777

          k =-0.1250 0.6250-0.1250 (  1616 PWs)   bands (ev):

    -2.3845   4.0738   6.0094   6.5931

          k = 0.7500-0.2500 0.7500 (  1617 PWs)   bands (ev):

    -1.1462   2.1208   4.9440   6.6171

          k = 0.6250-0.1250 0.6250 (  1611 PWs)   bands (ev):

    -0.8237   1.7191   4.3283   7.0396

          k = 0.5000 0.0000 0.5000 (  1604 PWs)   bands (ev):

    -2.0329   3.3175   4.5153   7.7763

          k = 0.0000 0.7500 0.0000 (  1624 PWs)   bands (ev):

    -1.6326   3.1940   6.0944   6.0944

          k = 0.8750-0.1250 0.8750 (  1625 PWs)   bands (ev):

    -0.4749   1.8525   4.8993   6.0069

          k = 0.7500 0.0000 0.7500 (  1624 PWs)   bands (ev):

     0.2256   1.2763   3.6694   6.3398

          k = 0.0000-1.0000 0.0000 (  1604 PWs)   bands (ev):

     0.5820   0.5820   5.7937   5.7937

          k =-0.2500 0.5000 0.0000 (  1610 PWs)   bands (ev):

    -2.9667   4.7751   5.8737   7.6514

          k = 0.6250-0.3750 0.8750 (  1618 PWs)   bands (ev):

    -1.8052   2.7332   5.2641   6.9263

          k = 0.5000-0.2500 0.7500 (  1614 PWs)   bands (ev):

    -0.8604   1.3922   5.1869   6.5884

          k = 0.7500-0.2500 1.0000 (  1613 PWs)   bands (ev):

    -1.3556   2.9355   5.0355   5.7668

          k = 0.6250-0.1250 0.8750 (  1613 PWs)   bands (ev):

    -0.1541   1.6644   4.0750   5.5040

          k = 0.5000 0.0000 0.7500 (  1616 PWs)   bands (ev):

    -0.6108   2.1124   3.8337   6.0207

          k =-0.2500-1.0000 0.0000 (  1626 PWs)   bands (ev):

     0.7337   0.7337   4.9201   4.9201

          k =-0.5000-1.0000 0.0000 (  1628 PWs)   bands (ev):

     0.9161   0.9161   4.2562   4.2562

     highest occupied level (ev):     9.4379

!    total energy              =     -19.10344614 Ry
     estimated scf accuracy    <       0.00000007 Ry

     The total energy is the sum of the following terms:
     one-electron contribution =       7.39449461 Ry
     hartree contribution      =       0.88888608 Ry
     xc contribution           =      -8.98493243 Ry
     ewald contribution        =     -18.40189439 Ry

     convergence has been achieved in   5 iterations

     Writing all to output data dir ./si-dia/si-dia.save/ :
     XML data file, charge density, pseudopotentials, collected wavefunctions

     init_run     :      0.33s CPU      0.38s WALL (       1 calls)
     electrons    :      0.13s CPU      0.20s WALL (       1 calls)

     Called by init_run:
     wfcinit      :      0.01s CPU      0.02s WALL (       1 calls)
     potinit      :      0.01s CPU      0.02s WALL (       1 calls)
     hinit0       :      0.28s CPU      0.30s WALL (       1 calls)

     Called by electrons:
     c_bands      :      0.07s CPU      0.09s WALL (       6 calls)
     sum_band     :      0.02s CPU      0.03s WALL (       6 calls)
     v_of_rho     :      0.02s CPU      0.02s WALL (       6 calls)
     newd         :      0.01s CPU      0.01s WALL (       6 calls)
     mix_rho      :      0.00s CPU      0.00s WALL (       6 calls)

     Called by c_bands:
     init_us_2    :      0.00s CPU      0.00s WALL (      52 calls)
     cegterg      :      0.06s CPU      0.07s WALL (      24 calls)

     Called by *egterg:
     cdiaghg      :      0.00s CPU      0.01s WALL (      93 calls)
     h_psi        :      0.06s CPU      0.07s WALL (     101 calls)
     s_psi        :      0.00s CPU      0.00s WALL (     101 calls)
     g_psi        :      0.00s CPU      0.00s WALL (      73 calls)

     Called by h_psi:
     h_psi:calbec :      0.01s CPU      0.01s WALL (     101 calls)
     vloc_psi     :      0.05s CPU      0.06s WALL (     101 calls)
     add_vuspsi   :      0.00s CPU      0.00s WALL (     101 calls)

     General routines
     calbec       :      0.01s CPU      0.01s WALL (     125 calls)
     fft          :      0.26s CPU      0.27s WALL (      67 calls)
     ffts         :      0.00s CPU      0.00s WALL (       6 calls)
     fftw         :      0.05s CPU      0.06s WALL (     802 calls)

     Parallel routines

     PWSCF        :      0.68s CPU      0.95s WALL


   This run was terminated on:  14:42:28   9Feb2026            

=------------------------------------------------------------------------------=
   JOB DONE.
=------------------------------------------------------------------------------=
