
     Program PWSCF v.7.3.1 starts on  9Feb2026 at 14:42:35 

     This program is part of the open-source Quantum ESPRESSO suite
     for quantum simulation of materials; please cite
         "P. Giannozzi et al., J. Phys.:Condens. Matter 21 395502 (2009);
         "P. Giannozzi et al., J. Phys.:Condens. Matter 29 465901 (2017);
         "P. Giannozzi et al., J. Chem. Phys. 152 154105 (2020);
          URL http://www.quantum-espresso.org", 
     in publications or presentations arising from this work. More details at
     http://www.quantum-espresso.org/quote

     Parallel version (MPI), running on   128 processors

     MPI processes distributed on     1 nodes
     241447 MiB available memory on the printing compute node when the environment starts

     Waiting for input...
     Reading input from standard input

     Current dimensions of program PWSCF are:
     Max number of different atomic species (ntypx) = 10
     Max number of k-points (npk) =  40000
     Max angular momentum in pseudopotentials (lmaxx) =  4

     K-points division:     npool     =       8
     R & G space division:  proc/nbgrp/npool/nimage =      16
     Subspace diagonalization in iterative solution of the eigenvalue problem:
     a serial algorithm will be used


     Parallelization info
     --------------------
     sticks:   dense  smooth     PW     G-vecs:    dense   smooth      PW
     Min          46      46     13                  819      819     137
     Max          48      48     14                  820      820     142
     Sum         745     745    223                13107    13107    2229

     Using Slab Decomposition



     bravais-lattice index     =            2
     lattice parameter (alat)  =       9.4084  a.u.
     unit-cell volume          =     208.2045 (a.u.)^3
     number of atoms/cell      =            2
     number of atomic types    =            1
     number of electrons       =         8.00
     number of Kohn-Sham states=            4
     kinetic-energy cutoff     =      60.0000  Ry
     charge density cutoff     =     240.0000  Ry
     scf convergence threshold =      1.0E-07
     mixing beta               =       0.7000
     number of iterations used =            8  plain     mixing
     Exchange-correlation=  SLA  PW   PBE  PBE
                           (   1   4   3   4   0   0   0)

     celldm(1)=   9.408420  celldm(2)=   0.000000  celldm(3)=   0.000000
     celldm(4)=   0.000000  celldm(5)=   0.000000  celldm(6)=   0.000000

     crystal axes: (cart. coord. in units of alat)
               a(1) = (  -0.500000   0.000000   0.500000 )  
               a(2) = (   0.000000   0.500000   0.500000 )  
               a(3) = (  -0.500000   0.500000   0.000000 )  

     reciprocal axes: (cart. coord. in units 2 pi/alat)
               b(1) = ( -1.000000 -1.000000  1.000000 )  
               b(2) = (  1.000000  1.000000  1.000000 )  
               b(3) = ( -1.000000  1.000000 -1.000000 )  


     PseudoPot. # 1 for Si read from file:
     ./Si.pbe-n-van.UPF
     MD5 check sum: 8a97496598b7338af554a5de8957bfee
     Pseudo is Ultrasoft + core correction, Zval =  4.0
     Generated by new atomic code, or converted to UPF format
     Using radial grid of  899 points,  6 beta functions with: 
                l(1) =   0
                l(2) =   0
                l(3) =   1
                l(4) =   1
                l(5) =   2
                l(6) =   2
     Q(r) pseudized with  8 coefficients,  rinner =    0.900   0.900   0.900
                                                       0.900   0.900

     atomic species   valence    mass     pseudopotential
     Si                4.00    28.08600     Si( 1.00)

     48 Sym. Ops., with inversion, found (24 have fractional translation)



   Cartesian axes

     site n.     atom                  positions (alat units)
         1        Si     tau(   1) = (  -0.7500000   0.7500000   0.7500000  )
         2        Si     tau(   2) = (   0.0000000   0.0000000   0.0000000  )

     number of k points=    29
                       cart. coord. in units 2pi/alat
        k(    1) = (   0.0000000   0.0000000   0.0000000), wk =   0.0039062
        k(    2) = (  -0.1250000   0.1250000  -0.1250000), wk =   0.0312500
        k(    3) = (  -0.2500000   0.2500000  -0.2500000), wk =   0.0312500
        k(    4) = (  -0.3750000   0.3750000  -0.3750000), wk =   0.0312500
        k(    5) = (   0.5000000  -0.5000000   0.5000000), wk =   0.0156250
        k(    6) = (   0.0000000   0.2500000   0.0000000), wk =   0.0234375
        k(    7) = (  -0.1250000   0.3750000  -0.1250000), wk =   0.0937500
        k(    8) = (  -0.2500000   0.5000000  -0.2500000), wk =   0.0937500
        k(    9) = (   0.6250000  -0.3750000   0.6250000), wk =   0.0937500
        k(   10) = (   0.5000000  -0.2500000   0.5000000), wk =   0.0937500
        k(   11) = (   0.3750000  -0.1250000   0.3750000), wk =   0.0937500
        k(   12) = (   0.2500000   0.0000000   0.2500000), wk =   0.0468750
        k(   13) = (   0.0000000   0.5000000   0.0000000), wk =   0.0234375
        k(   14) = (  -0.1250000   0.6250000  -0.1250000), wk =   0.0937500
        k(   15) = (   0.7500000  -0.2500000   0.7500000), wk =   0.0937500
        k(   16) = (   0.6250000  -0.1250000   0.6250000), wk =   0.0937500
        k(   17) = (   0.5000000   0.0000000   0.5000000), wk =   0.0468750
        k(   18) = (   0.0000000   0.7500000   0.0000000), wk =   0.0234375
        k(   19) = (   0.8750000  -0.1250000   0.8750000), wk =   0.0937500
        k(   20) = (   0.7500000   0.0000000   0.7500000), wk =   0.0468750
        k(   21) = (   0.0000000  -1.0000000   0.0000000), wk =   0.0117188
        k(   22) = (  -0.2500000   0.5000000   0.0000000), wk =   0.0937500
        k(   23) = (   0.6250000  -0.3750000   0.8750000), wk =   0.1875000
        k(   24) = (   0.5000000  -0.2500000   0.7500000), wk =   0.0937500
        k(   25) = (   0.7500000  -0.2500000   1.0000000), wk =   0.0937500
        k(   26) = (   0.6250000  -0.1250000   0.8750000), wk =   0.1875000
        k(   27) = (   0.5000000   0.0000000   0.7500000), wk =   0.0937500
        k(   28) = (  -0.2500000  -1.0000000   0.0000000), wk =   0.0468750
        k(   29) = (  -0.5000000  -1.0000000   0.0000000), wk =   0.0234375

     Dense  grid:    13107 G-vectors     FFT dimensions: (  36,  36,  36)

     Estimated max dynamical RAM per process >       2.24 MB

     Estimated total dynamical RAM >     264.65 MB

     Initial potential from superposition of free atoms

     starting charge       7.9987, renormalised to       8.0000
     Starting wfcs are    8 randomized atomic wfcs

     total cpu time spent up to now is        0.7 secs

     per-process dynamical memory:     9.8 Mb

     Self-consistent Calculation

     iteration #  1     ecut=    60.00 Ry     beta= 0.70
     Davidson diagonalization with overlap
     ethr =  1.00E-02,  avg # of iterations =  2.0

     Threshold (ethr) on eigenvalues was too large:
     Diagonalizing with lowered threshold

     Davidson diagonalization with overlap
     ethr =  9.77E-04,  avg # of iterations =  1.0

     total cpu time spent up to now is        0.7 secs

     total energy              =     -19.10604499 Ry
     estimated scf accuracy    <       0.08309387 Ry

     iteration #  2     ecut=    60.00 Ry     beta= 0.70
     Davidson diagonalization with overlap
     ethr =  1.04E-03,  avg # of iterations =  1.0

     total cpu time spent up to now is        0.8 secs

     total energy              =     -19.11104214 Ry
     estimated scf accuracy    <       0.00228435 Ry

     iteration #  3     ecut=    60.00 Ry     beta= 0.70
     Davidson diagonalization with overlap
     ethr =  2.86E-05,  avg # of iterations =  2.4

     total cpu time spent up to now is        0.8 secs

     total energy              =     -19.11190462 Ry
     estimated scf accuracy    <       0.00006500 Ry

     iteration #  4     ecut=    60.00 Ry     beta= 0.70
     Davidson diagonalization with overlap
     ethr =  8.13E-07,  avg # of iterations =  5.4

     total cpu time spent up to now is        0.8 secs

     total energy              =     -19.11198034 Ry
     estimated scf accuracy    <       0.00000123 Ry

     iteration #  5     ecut=    60.00 Ry     beta= 0.70
     Davidson diagonalization with overlap
     ethr =  1.53E-08,  avg # of iterations =  5.0

     total cpu time spent up to now is        0.8 secs

     End of self-consistent calculation

          k = 0.0000 0.0000 0.0000 (  1639 PWs)   bands (ev):

    -4.7073   9.2638   9.2638   9.2638

          k =-0.1250 0.1250-0.1250 (  1624 PWs)   bands (ev):

    -4.4536   7.4667   8.8898   8.8898

          k =-0.2500 0.2500-0.2500 (  1636 PWs)   bands (ev):

    -3.7071   4.7076   8.3253   8.3253

          k =-0.3750 0.3750-0.3750 (  1634 PWs)   bands (ev):

    -2.5496   2.2186   7.9555   7.9555

          k = 0.5000-0.5000 0.5000 (  1622 PWs)   bands (ev):

    -1.6291   0.8414   7.8333   7.8333

          k = 0.0000 0.2500 0.0000 (  1623 PWs)   bands (ev):

    -4.3685   8.0934   8.1845   8.1845

          k =-0.1250 0.3750-0.1250 (  1631 PWs)   bands (ev):

    -3.7837   5.6810   7.5552   7.8467

          k =-0.2500 0.5000-0.2500 (  1639 PWs)   bands (ev):

    -2.7458   3.1265   7.1388   7.2540

          k = 0.6250-0.3750 0.6250 (  1633 PWs)   bands (ev):

    -1.5573   1.2065   6.5692   7.3206

          k = 0.5000-0.2500 0.5000 (  1626 PWs)   bands (ev):

    -1.9136   1.7149   6.2923   7.7203

          k = 0.3750-0.1250 0.3750 (  1630 PWs)   bands (ev):

    -3.1384   3.9533   6.3928   8.3527

          k = 0.2500 0.0000 0.2500 (  1622 PWs)   bands (ev):

    -4.0344   6.3642   7.1078   8.9546

          k = 0.0000 0.5000 0.0000 (  1636 PWs)   bands (ev):

    -3.3627   5.7297   6.8335   6.8335

          k =-0.1250 0.6250-0.1250 (  1639 PWs)   bands (ev):

    -2.4697   3.9257   5.8740   6.4522

          k = 0.7500-0.2500 0.7500 (  1633 PWs)   bands (ev):

    -1.2480   2.0006   4.8185   6.4750

          k = 0.6250-0.1250 0.6250 (  1633 PWs)   bands (ev):

    -0.9325   1.6075   4.2109   6.8920

          k = 0.5000 0.0000 0.5000 (  1634 PWs)   bands (ev):

    -2.1234   3.1804   4.4026   7.6191

          k = 0.0000 0.7500 0.0000 (  1632 PWs)   bands (ev):

    -1.7255   3.0484   5.9587   5.9587

          k = 0.8750-0.1250 0.8750 (  1640 PWs)   bands (ev):

    -0.5814   1.7200   4.7841   5.8716

          k = 0.7500 0.0000 0.7500 (  1638 PWs)   bands (ev):

     0.1035   1.1539   3.5744   6.2007

          k = 0.0000-1.0000 0.0000 (  1660 PWs)   bands (ev):

     0.4649   0.4649   5.6607   5.6607

          k =-0.2500 0.5000 0.0000 (  1640 PWs)   bands (ev):

    -3.0457   4.6244   5.7444   7.4955

          k = 0.6250-0.3750 0.8750 (  1632 PWs)   bands (ev):

    -1.8985   2.6094   5.1327   6.7832

          k = 0.5000-0.2500 0.7500 (  1634 PWs)   bands (ev):

    -0.9705   1.2904   5.0523   6.4517

          k = 0.7500-0.2500 1.0000 (  1634 PWs)   bands (ev):

    -1.4527   2.7913   4.9161   5.6423

          k = 0.6250-0.1250 0.8750 (  1636 PWs)   bands (ev):

    -0.2692   1.5374   3.9695   5.3822

          k = 0.5000 0.0000 0.7500 (  1639 PWs)   bands (ev):

    -0.7201   1.9805   3.7326   5.8912

          k =-0.2500-1.0000 0.0000 (  1636 PWs)   bands (ev):

     0.6121   0.6121   4.8047   4.8047

          k =-0.5000-1.0000 0.0000 (  1628 PWs)   bands (ev):

     0.7883   0.7883   4.1540   4.1540

     highest occupied level (ev):     9.2638

!    total energy              =     -19.11198230 Ry
     estimated scf accuracy    <       0.00000006 Ry

     The total energy is the sum of the following terms:
     one-electron contribution =       7.27636580 Ry
     hartree contribution      =       0.89945171 Ry
     xc contribution           =      -8.96617540 Ry
     ewald contribution        =     -18.32162440 Ry

     convergence has been achieved in   5 iterations

     Writing all to output data dir ./si-dia/si-dia.save/ :
     XML data file, charge density, pseudopotentials, collected wavefunctions

     init_run     :      0.33s CPU      0.37s WALL (       1 calls)
     electrons    :      0.14s CPU      0.19s WALL (       1 calls)

     Called by init_run:
     wfcinit      :      0.00s CPU      0.02s WALL (       1 calls)
     potinit      :      0.01s CPU      0.02s WALL (       1 calls)
     hinit0       :      0.29s CPU      0.29s WALL (       1 calls)

     Called by electrons:
     c_bands      :      0.07s CPU      0.09s WALL (       6 calls)
     sum_band     :      0.03s CPU      0.03s WALL (       6 calls)
     v_of_rho     :      0.02s CPU      0.02s WALL (       6 calls)
     newd         :      0.00s CPU      0.01s WALL (       6 calls)
     mix_rho      :      0.00s CPU      0.00s WALL (       6 calls)

     Called by c_bands:
     init_us_2    :      0.00s CPU      0.00s WALL (      52 calls)
     cegterg      :      0.06s CPU      0.07s WALL (      24 calls)

     Called by *egterg:
     cdiaghg      :      0.00s CPU      0.01s WALL (      93 calls)
     h_psi        :      0.04s CPU      0.07s WALL (     101 calls)
     s_psi        :      0.00s CPU      0.00s WALL (     101 calls)
     g_psi        :      0.00s CPU      0.00s WALL (      73 calls)

     Called by h_psi:
     h_psi:calbec :      0.00s CPU      0.01s WALL (     101 calls)
     vloc_psi     :      0.04s CPU      0.06s WALL (     101 calls)
     add_vuspsi   :      0.00s CPU      0.00s WALL (     101 calls)

     General routines
     calbec       :      0.01s CPU      0.01s WALL (     125 calls)
     fft          :      0.26s CPU      0.27s WALL (      67 calls)
     ffts         :      0.00s CPU      0.00s WALL (       6 calls)
     fftw         :      0.04s CPU      0.06s WALL (     804 calls)

     Parallel routines

     PWSCF        :      0.69s CPU      0.95s WALL


   This run was terminated on:  14:42:35   9Feb2026            

=------------------------------------------------------------------------------=
   JOB DONE.
=------------------------------------------------------------------------------=
