
     Program PWSCF v.7.3.1 starts on  6Feb2026 at 15:27:31 

     This program is part of the open-source Quantum ESPRESSO suite
     for quantum simulation of materials; please cite
         "P. Giannozzi et al., J. Phys.:Condens. Matter 21 395502 (2009);
         "P. Giannozzi et al., J. Phys.:Condens. Matter 29 465901 (2017);
         "P. Giannozzi et al., J. Chem. Phys. 152 154105 (2020);
          URL http://www.quantum-espresso.org", 
     in publications or presentations arising from this work. More details at
     http://www.quantum-espresso.org/quote

     Parallel version (MPI), running on   128 processors

     MPI processes distributed on     1 nodes
     241377 MiB available memory on the printing compute node when the environment starts

     Waiting for input...
     Reading input from standard input

     Current dimensions of program PWSCF are:
     Max number of different atomic species (ntypx) = 10
     Max number of k-points (npk) =  40000
     Max angular momentum in pseudopotentials (lmaxx) =  4

     K-points division:     npool     =       8
     R & G space division:  proc/nbgrp/npool/nimage =      16
     Subspace diagonalization in iterative solution of the eigenvalue problem:
     a serial algorithm will be used


     Parallelization info
     --------------------
     sticks:   dense  smooth     PW     G-vecs:    dense   smooth      PW
     Min          46      46     13                  831      831     137
     Max          47      47     14                  834      834     142
     Sum         745     745    223                13323    13323    2229

     Using Slab Decomposition



     bravais-lattice index     =            2
     lattice parameter (alat)  =       9.4187  a.u.
     unit-cell volume          =     208.8864 (a.u.)^3
     number of atoms/cell      =            2
     number of atomic types    =            1
     number of electrons       =         8.00
     number of Kohn-Sham states=            4
     kinetic-energy cutoff     =      60.0000  Ry
     charge density cutoff     =     240.0000  Ry
     scf convergence threshold =      1.0E-07
     mixing beta               =       0.7000
     number of iterations used =            8  plain     mixing
     Exchange-correlation=  SLA  PW   PBE  PBE
                           (   1   4   3   4   0   0   0)

     celldm(1)=   9.418680  celldm(2)=   0.000000  celldm(3)=   0.000000
     celldm(4)=   0.000000  celldm(5)=   0.000000  celldm(6)=   0.000000

     crystal axes: (cart. coord. in units of alat)
               a(1) = (  -0.500000   0.000000   0.500000 )  
               a(2) = (   0.000000   0.500000   0.500000 )  
               a(3) = (  -0.500000   0.500000   0.000000 )  

     reciprocal axes: (cart. coord. in units 2 pi/alat)
               b(1) = ( -1.000000 -1.000000  1.000000 )  
               b(2) = (  1.000000  1.000000  1.000000 )  
               b(3) = ( -1.000000  1.000000 -1.000000 )  


     PseudoPot. # 1 for Si read from file:
     ./Si.pbe-n-van.UPF
     MD5 check sum: 8a97496598b7338af554a5de8957bfee
     Pseudo is Ultrasoft + core correction, Zval =  4.0
     Generated by new atomic code, or converted to UPF format
     Using radial grid of  899 points,  6 beta functions with: 
                l(1) =   0
                l(2) =   0
                l(3) =   1
                l(4) =   1
                l(5) =   2
                l(6) =   2
     Q(r) pseudized with  8 coefficients,  rinner =    0.900   0.900   0.900
                                                       0.900   0.900

     atomic species   valence    mass     pseudopotential
     Si                4.00    28.08600     Si( 1.00)

     48 Sym. Ops., with inversion, found (24 have fractional translation)



   Cartesian axes

     site n.     atom                  positions (alat units)
         1        Si     tau(   1) = (  -0.7500000   0.7500000   0.7500000  )
         2        Si     tau(   2) = (   0.0000000   0.0000000   0.0000000  )

     number of k points=    29
                       cart. coord. in units 2pi/alat
        k(    1) = (   0.0000000   0.0000000   0.0000000), wk =   0.0039062
        k(    2) = (  -0.1250000   0.1250000  -0.1250000), wk =   0.0312500
        k(    3) = (  -0.2500000   0.2500000  -0.2500000), wk =   0.0312500
        k(    4) = (  -0.3750000   0.3750000  -0.3750000), wk =   0.0312500
        k(    5) = (   0.5000000  -0.5000000   0.5000000), wk =   0.0156250
        k(    6) = (   0.0000000   0.2500000   0.0000000), wk =   0.0234375
        k(    7) = (  -0.1250000   0.3750000  -0.1250000), wk =   0.0937500
        k(    8) = (  -0.2500000   0.5000000  -0.2500000), wk =   0.0937500
        k(    9) = (   0.6250000  -0.3750000   0.6250000), wk =   0.0937500
        k(   10) = (   0.5000000  -0.2500000   0.5000000), wk =   0.0937500
        k(   11) = (   0.3750000  -0.1250000   0.3750000), wk =   0.0937500
        k(   12) = (   0.2500000   0.0000000   0.2500000), wk =   0.0468750
        k(   13) = (   0.0000000   0.5000000   0.0000000), wk =   0.0234375
        k(   14) = (  -0.1250000   0.6250000  -0.1250000), wk =   0.0937500
        k(   15) = (   0.7500000  -0.2500000   0.7500000), wk =   0.0937500
        k(   16) = (   0.6250000  -0.1250000   0.6250000), wk =   0.0937500
        k(   17) = (   0.5000000   0.0000000   0.5000000), wk =   0.0468750
        k(   18) = (   0.0000000   0.7500000   0.0000000), wk =   0.0234375
        k(   19) = (   0.8750000  -0.1250000   0.8750000), wk =   0.0937500
        k(   20) = (   0.7500000   0.0000000   0.7500000), wk =   0.0468750
        k(   21) = (   0.0000000  -1.0000000   0.0000000), wk =   0.0117188
        k(   22) = (  -0.2500000   0.5000000   0.0000000), wk =   0.0937500
        k(   23) = (   0.6250000  -0.3750000   0.8750000), wk =   0.1875000
        k(   24) = (   0.5000000  -0.2500000   0.7500000), wk =   0.0937500
        k(   25) = (   0.7500000  -0.2500000   1.0000000), wk =   0.0937500
        k(   26) = (   0.6250000  -0.1250000   0.8750000), wk =   0.1875000
        k(   27) = (   0.5000000   0.0000000   0.7500000), wk =   0.0937500
        k(   28) = (  -0.2500000  -1.0000000   0.0000000), wk =   0.0468750
        k(   29) = (  -0.5000000  -1.0000000   0.0000000), wk =   0.0234375

     Dense  grid:    13323 G-vectors     FFT dimensions: (  36,  36,  36)

     Estimated max dynamical RAM per process >       2.25 MB

     Estimated total dynamical RAM >     265.77 MB

     Initial potential from superposition of free atoms

     starting charge       7.9987, renormalised to       8.0000
     Starting wfcs are    8 randomized atomic wfcs

     total cpu time spent up to now is        0.6 secs

     per-process dynamical memory:     9.8 Mb

     Self-consistent Calculation

     iteration #  1     ecut=    60.00 Ry     beta= 0.70
     Davidson diagonalization with overlap
     ethr =  1.00E-02,  avg # of iterations =  2.0

     Threshold (ethr) on eigenvalues was too large:
     Diagonalizing with lowered threshold

     Davidson diagonalization with overlap
     ethr =  9.74E-04,  avg # of iterations =  1.0

     total cpu time spent up to now is        0.7 secs

     total energy              =     -19.10811525 Ry
     estimated scf accuracy    <       0.08278221 Ry

     iteration #  2     ecut=    60.00 Ry     beta= 0.70
     Davidson diagonalization with overlap
     ethr =  1.03E-03,  avg # of iterations =  1.0

     total cpu time spent up to now is        0.7 secs

     total energy              =     -19.11309293 Ry
     estimated scf accuracy    <       0.00228210 Ry

     iteration #  3     ecut=    60.00 Ry     beta= 0.70
     Davidson diagonalization with overlap
     ethr =  2.85E-05,  avg # of iterations =  2.4

     total cpu time spent up to now is        0.8 secs

     total energy              =     -19.11395594 Ry
     estimated scf accuracy    <       0.00006464 Ry

     iteration #  4     ecut=    60.00 Ry     beta= 0.70
     Davidson diagonalization with overlap
     ethr =  8.08E-07,  avg # of iterations =  5.4

     total cpu time spent up to now is        0.8 secs

     total energy              =     -19.11403190 Ry
     estimated scf accuracy    <       0.00000119 Ry

     iteration #  5     ecut=    60.00 Ry     beta= 0.70
     Davidson diagonalization with overlap
     ethr =  1.49E-08,  avg # of iterations =  5.0

     total cpu time spent up to now is        0.8 secs

     End of self-consistent calculation

          k = 0.0000 0.0000 0.0000 (  1639 PWs)   bands (ev):

    -4.7224   9.2207   9.2207   9.2207

          k =-0.1250 0.1250-0.1250 (  1645 PWs)   bands (ev):

    -4.4693   7.4273   8.8479   8.8479

          k =-0.2500 0.2500-0.2500 (  1642 PWs)   bands (ev):

    -3.7248   4.6741   8.2845   8.2845

          k =-0.3750 0.3750-0.3750 (  1640 PWs)   bands (ev):

    -2.5710   2.1914   7.9152   7.9152

          k = 0.5000-0.5000 0.5000 (  1676 PWs)   bands (ev):

    -1.6547   0.8194   7.7931   7.7931

          k = 0.0000 0.2500 0.0000 (  1639 PWs)   bands (ev):

    -4.3845   8.0489   8.1453   8.1453

          k =-0.1250 0.3750-0.1250 (  1636 PWs)   bands (ev):

    -3.8012   5.6441   7.5175   7.8056

          k =-0.2500 0.5000-0.2500 (  1639 PWs)   bands (ev):

    -2.7664   3.0962   7.0993   7.2167

          k = 0.6250-0.3750 0.6250 (  1640 PWs)   bands (ev):

    -1.5826   1.1825   6.5316   7.2825

          k = 0.5000-0.2500 0.5000 (  1634 PWs)   bands (ev):

    -1.9372   1.6889   6.2560   7.6808

          k = 0.3750-0.1250 0.3750 (  1636 PWs)   bands (ev):

    -3.1578   3.9208   6.3572   8.3112

          k = 0.2500 0.0000 0.2500 (  1622 PWs)   bands (ev):

    -4.0513   6.3252   7.0720   8.9115

          k = 0.0000 0.5000 0.0000 (  1636 PWs)   bands (ev):

    -3.3813   5.6874   6.7979   6.7979

          k =-0.1250 0.6250-0.1250 (  1643 PWs)   bands (ev):

    -2.4908   3.8889   5.8406   6.4173

          k = 0.7500-0.2500 0.7500 (  1643 PWs)   bands (ev):

    -1.2733   1.9708   4.7875   6.4398

          k = 0.6250-0.1250 0.6250 (  1643 PWs)   bands (ev):

    -0.9594   1.5798   4.1819   6.8554

          k = 0.5000 0.0000 0.5000 (  1634 PWs)   bands (ev):

    -2.1458   3.1464   4.3748   7.5802

          k = 0.0000 0.7500 0.0000 (  1636 PWs)   bands (ev):

    -1.7485   3.0123   5.9251   5.9251

          k = 0.8750-0.1250 0.8750 (  1646 PWs)   bands (ev):

    -0.6078   1.6872   4.7556   5.8382

          k = 0.7500 0.0000 0.7500 (  1638 PWs)   bands (ev):

     0.0732   1.1236   3.5508   6.1662

          k = 0.0000-1.0000 0.0000 (  1660 PWs)   bands (ev):

     0.4359   0.4359   5.6278   5.6278

          k =-0.2500 0.5000 0.0000 (  1648 PWs)   bands (ev):

    -3.0653   4.5871   5.7124   7.4569

          k = 0.6250-0.3750 0.8750 (  1635 PWs)   bands (ev):

    -1.9216   2.5788   5.1002   6.7478

          k = 0.5000-0.2500 0.7500 (  1634 PWs)   bands (ev):

    -0.9977   1.2652   5.0190   6.4178

          k = 0.7500-0.2500 1.0000 (  1654 PWs)   bands (ev):

    -1.4767   2.7555   4.8866   5.6114

          k = 0.6250-0.1250 0.8750 (  1640 PWs)   bands (ev):

    -0.2977   1.5060   3.9434   5.3521

          k = 0.5000 0.0000 0.7500 (  1643 PWs)   bands (ev):

    -0.7472   1.9478   3.7076   5.8592

          k =-0.2500-1.0000 0.0000 (  1642 PWs)   bands (ev):

     0.5820   0.5820   4.7762   4.7762

          k =-0.5000-1.0000 0.0000 (  1628 PWs)   bands (ev):

     0.7567   0.7567   4.1287   4.1287

     highest occupied level (ev):     9.2207

!    total energy              =     -19.11403364 Ry
     estimated scf accuracy    <       0.00000006 Ry

     The total energy is the sum of the following terms:
     one-electron contribution =       7.24706719 Ry
     hartree contribution      =       0.90208387 Ry
     xc contribution           =      -8.96151850 Ry
     ewald contribution        =     -18.30166620 Ry

     convergence has been achieved in   5 iterations

     Writing all to output data dir ./si-dia/si-dia.save/ :
     XML data file, charge density, pseudopotentials, collected wavefunctions

     init_run     :      0.32s CPU      0.38s WALL (       1 calls)
     electrons    :      0.13s CPU      0.18s WALL (       1 calls)

     Called by init_run:
     wfcinit      :      0.01s CPU      0.02s WALL (       1 calls)
     potinit      :      0.01s CPU      0.03s WALL (       1 calls)
     hinit0       :      0.29s CPU      0.30s WALL (       1 calls)

     Called by electrons:
     c_bands      :      0.08s CPU      0.09s WALL (       6 calls)
     sum_band     :      0.03s CPU      0.03s WALL (       6 calls)
     v_of_rho     :      0.01s CPU      0.03s WALL (       6 calls)
     newd         :      0.01s CPU      0.01s WALL (       6 calls)
     mix_rho      :      0.00s CPU      0.00s WALL (       6 calls)

     Called by c_bands:
     init_us_2    :      0.00s CPU      0.00s WALL (      52 calls)
     cegterg      :      0.06s CPU      0.07s WALL (      24 calls)

     Called by *egterg:
     cdiaghg      :      0.00s CPU      0.01s WALL (      92 calls)
     h_psi        :      0.06s CPU      0.07s WALL (     100 calls)
     s_psi        :      0.00s CPU      0.00s WALL (     100 calls)
     g_psi        :      0.00s CPU      0.00s WALL (      72 calls)

     Called by h_psi:
     h_psi:calbec :      0.00s CPU      0.01s WALL (     100 calls)
     vloc_psi     :      0.05s CPU      0.06s WALL (     100 calls)
     add_vuspsi   :      0.00s CPU      0.00s WALL (     100 calls)

     General routines
     calbec       :      0.01s CPU      0.01s WALL (     124 calls)
     fft          :      0.26s CPU      0.26s WALL (      67 calls)
     ffts         :      0.00s CPU      0.00s WALL (       6 calls)
     fftw         :      0.05s CPU      0.06s WALL (     802 calls)

     Parallel routines

     PWSCF        :      0.68s CPU      0.93s WALL


   This run was terminated on:  15:27:31   6Feb2026            

=------------------------------------------------------------------------------=
   JOB DONE.
=------------------------------------------------------------------------------=
