
     Program PWSCF v.7.3.1 starts on  9Feb2026 at 14:42:38 

     This program is part of the open-source Quantum ESPRESSO suite
     for quantum simulation of materials; please cite
         "P. Giannozzi et al., J. Phys.:Condens. Matter 21 395502 (2009);
         "P. Giannozzi et al., J. Phys.:Condens. Matter 29 465901 (2017);
         "P. Giannozzi et al., J. Chem. Phys. 152 154105 (2020);
          URL http://www.quantum-espresso.org", 
     in publications or presentations arising from this work. More details at
     http://www.quantum-espresso.org/quote

     Parallel version (MPI), running on   128 processors

     MPI processes distributed on     1 nodes
     241414 MiB available memory on the printing compute node when the environment starts

     Waiting for input...
     Reading input from standard input

     Current dimensions of program PWSCF are:
     Max number of different atomic species (ntypx) = 10
     Max number of k-points (npk) =  40000
     Max angular momentum in pseudopotentials (lmaxx) =  4

     K-points division:     npool     =       8
     R & G space division:  proc/nbgrp/npool/nimage =      16
     Subspace diagonalization in iterative solution of the eigenvalue problem:
     a serial algorithm will be used


     Parallelization info
     --------------------
     sticks:   dense  smooth     PW     G-vecs:    dense   smooth      PW
     Min          46      46     13                  831      831     137
     Max          47      47     14                  834      834     142
     Sum         745     745    223                13323    13323    2229

     Using Slab Decomposition



     bravais-lattice index     =            2
     lattice parameter (alat)  =       9.4289  a.u.
     unit-cell volume          =     209.5698 (a.u.)^3
     number of atoms/cell      =            2
     number of atomic types    =            1
     number of electrons       =         8.00
     number of Kohn-Sham states=            4
     kinetic-energy cutoff     =      60.0000  Ry
     charge density cutoff     =     240.0000  Ry
     scf convergence threshold =      1.0E-07
     mixing beta               =       0.7000
     number of iterations used =            8  plain     mixing
     Exchange-correlation=  SLA  PW   PBE  PBE
                           (   1   4   3   4   0   0   0)

     celldm(1)=   9.428940  celldm(2)=   0.000000  celldm(3)=   0.000000
     celldm(4)=   0.000000  celldm(5)=   0.000000  celldm(6)=   0.000000

     crystal axes: (cart. coord. in units of alat)
               a(1) = (  -0.500000   0.000000   0.500000 )  
               a(2) = (   0.000000   0.500000   0.500000 )  
               a(3) = (  -0.500000   0.500000   0.000000 )  

     reciprocal axes: (cart. coord. in units 2 pi/alat)
               b(1) = ( -1.000000 -1.000000  1.000000 )  
               b(2) = (  1.000000  1.000000  1.000000 )  
               b(3) = ( -1.000000  1.000000 -1.000000 )  


     PseudoPot. # 1 for Si read from file:
     ./Si.pbe-n-van.UPF
     MD5 check sum: 8a97496598b7338af554a5de8957bfee
     Pseudo is Ultrasoft + core correction, Zval =  4.0
     Generated by new atomic code, or converted to UPF format
     Using radial grid of  899 points,  6 beta functions with: 
                l(1) =   0
                l(2) =   0
                l(3) =   1
                l(4) =   1
                l(5) =   2
                l(6) =   2
     Q(r) pseudized with  8 coefficients,  rinner =    0.900   0.900   0.900
                                                       0.900   0.900

     atomic species   valence    mass     pseudopotential
     Si                4.00    28.08600     Si( 1.00)

     48 Sym. Ops., with inversion, found (24 have fractional translation)



   Cartesian axes

     site n.     atom                  positions (alat units)
         1        Si     tau(   1) = (  -0.7500000   0.7500000   0.7500000  )
         2        Si     tau(   2) = (   0.0000000   0.0000000   0.0000000  )

     number of k points=    29
                       cart. coord. in units 2pi/alat
        k(    1) = (   0.0000000   0.0000000   0.0000000), wk =   0.0039062
        k(    2) = (  -0.1250000   0.1250000  -0.1250000), wk =   0.0312500
        k(    3) = (  -0.2500000   0.2500000  -0.2500000), wk =   0.0312500
        k(    4) = (  -0.3750000   0.3750000  -0.3750000), wk =   0.0312500
        k(    5) = (   0.5000000  -0.5000000   0.5000000), wk =   0.0156250
        k(    6) = (   0.0000000   0.2500000   0.0000000), wk =   0.0234375
        k(    7) = (  -0.1250000   0.3750000  -0.1250000), wk =   0.0937500
        k(    8) = (  -0.2500000   0.5000000  -0.2500000), wk =   0.0937500
        k(    9) = (   0.6250000  -0.3750000   0.6250000), wk =   0.0937500
        k(   10) = (   0.5000000  -0.2500000   0.5000000), wk =   0.0937500
        k(   11) = (   0.3750000  -0.1250000   0.3750000), wk =   0.0937500
        k(   12) = (   0.2500000   0.0000000   0.2500000), wk =   0.0468750
        k(   13) = (   0.0000000   0.5000000   0.0000000), wk =   0.0234375
        k(   14) = (  -0.1250000   0.6250000  -0.1250000), wk =   0.0937500
        k(   15) = (   0.7500000  -0.2500000   0.7500000), wk =   0.0937500
        k(   16) = (   0.6250000  -0.1250000   0.6250000), wk =   0.0937500
        k(   17) = (   0.5000000   0.0000000   0.5000000), wk =   0.0468750
        k(   18) = (   0.0000000   0.7500000   0.0000000), wk =   0.0234375
        k(   19) = (   0.8750000  -0.1250000   0.8750000), wk =   0.0937500
        k(   20) = (   0.7500000   0.0000000   0.7500000), wk =   0.0468750
        k(   21) = (   0.0000000  -1.0000000   0.0000000), wk =   0.0117188
        k(   22) = (  -0.2500000   0.5000000   0.0000000), wk =   0.0937500
        k(   23) = (   0.6250000  -0.3750000   0.8750000), wk =   0.1875000
        k(   24) = (   0.5000000  -0.2500000   0.7500000), wk =   0.0937500
        k(   25) = (   0.7500000  -0.2500000   1.0000000), wk =   0.0937500
        k(   26) = (   0.6250000  -0.1250000   0.8750000), wk =   0.1875000
        k(   27) = (   0.5000000   0.0000000   0.7500000), wk =   0.0937500
        k(   28) = (  -0.2500000  -1.0000000   0.0000000), wk =   0.0468750
        k(   29) = (  -0.5000000  -1.0000000   0.0000000), wk =   0.0234375

     Dense  grid:    13323 G-vectors     FFT dimensions: (  36,  36,  36)

     Estimated max dynamical RAM per process >       2.25 MB

     Estimated total dynamical RAM >     265.77 MB

     Initial potential from superposition of free atoms

     starting charge       7.9987, renormalised to       8.0000
     Starting wfcs are    8 randomized atomic wfcs

     total cpu time spent up to now is        0.7 secs

     per-process dynamical memory:     9.8 Mb

     Self-consistent Calculation

     iteration #  1     ecut=    60.00 Ry     beta= 0.70
     Davidson diagonalization with overlap
     ethr =  1.00E-02,  avg # of iterations =  2.0

     Threshold (ethr) on eigenvalues was too large:
     Diagonalizing with lowered threshold

     Davidson diagonalization with overlap
     ethr =  9.68E-04,  avg # of iterations =  1.0

     total cpu time spent up to now is        0.7 secs

     total energy              =     -19.11020647 Ry
     estimated scf accuracy    <       0.08236606 Ry

     iteration #  2     ecut=    60.00 Ry     beta= 0.70
     Davidson diagonalization with overlap
     ethr =  1.03E-03,  avg # of iterations =  1.0

     total cpu time spent up to now is        0.7 secs

     total energy              =     -19.11512457 Ry
     estimated scf accuracy    <       0.00228817 Ry

     iteration #  3     ecut=    60.00 Ry     beta= 0.70
     Davidson diagonalization with overlap
     ethr =  2.86E-05,  avg # of iterations =  2.4

     total cpu time spent up to now is        0.8 secs

     total energy              =     -19.11597533 Ry
     estimated scf accuracy    <       0.00006443 Ry

     iteration #  4     ecut=    60.00 Ry     beta= 0.70
     Davidson diagonalization with overlap
     ethr =  8.05E-07,  avg # of iterations =  5.4

     total cpu time spent up to now is        0.8 secs

     total energy              =     -19.11605045 Ry
     estimated scf accuracy    <       0.00000120 Ry

     iteration #  5     ecut=    60.00 Ry     beta= 0.70
     Davidson diagonalization with overlap
     ethr =  1.50E-08,  avg # of iterations =  4.9

     total cpu time spent up to now is        0.8 secs

     End of self-consistent calculation

          k = 0.0000 0.0000 0.0000 (  1639 PWs)   bands (ev):

    -4.7373   9.1778   9.1778   9.1778

          k =-0.1250 0.1250-0.1250 (  1654 PWs)   bands (ev):

    -4.4850   7.3881   8.8062   8.8062

          k =-0.2500 0.2500-0.2500 (  1642 PWs)   bands (ev):

    -3.7425   4.6407   8.2440   8.2440

          k =-0.3750 0.3750-0.3750 (  1640 PWs)   bands (ev):

    -2.5922   2.1644   7.8751   7.8751

          k = 0.5000-0.5000 0.5000 (  1676 PWs)   bands (ev):

    -1.6801   0.7975   7.7531   7.7531

          k = 0.0000 0.2500 0.0000 (  1647 PWs)   bands (ev):

    -4.4003   8.0047   8.1062   8.1062

          k =-0.1250 0.3750-0.1250 (  1640 PWs)   bands (ev):

    -3.8186   5.6075   7.4800   7.7647

          k =-0.2500 0.5000-0.2500 (  1639 PWs)   bands (ev):

    -2.7868   3.0660   7.0601   7.1796

          k = 0.6250-0.3750 0.6250 (  1642 PWs)   bands (ev):

    -1.6077   1.1587   6.4941   7.2448

          k = 0.5000-0.2500 0.5000 (  1643 PWs)   bands (ev):

    -1.9606   1.6631   6.2200   7.6415

          k = 0.3750-0.1250 0.3750 (  1642 PWs)   bands (ev):

    -3.1770   3.8884   6.3219   8.2700

          k = 0.2500 0.0000 0.2500 (  1622 PWs)   bands (ev):

    -4.0680   6.2863   7.0365   8.8686

          k = 0.0000 0.5000 0.0000 (  1636 PWs)   bands (ev):

    -3.3997   5.6454   6.7624   6.7624

          k =-0.1250 0.6250-0.1250 (  1647 PWs)   bands (ev):

    -2.5117   3.8524   5.8073   6.3827

          k = 0.7500-0.2500 0.7500 (  1643 PWs)   bands (ev):

    -1.2983   1.9411   4.7567   6.4049

          k = 0.6250-0.1250 0.6250 (  1646 PWs)   bands (ev):

    -0.9861   1.5522   4.1530   6.8191

          k = 0.5000 0.0000 0.5000 (  1634 PWs)   bands (ev):

    -2.1681   3.1126   4.3471   7.5416

          k = 0.0000 0.7500 0.0000 (  1652 PWs)   bands (ev):

    -1.7714   2.9764   5.8917   5.8917

          k = 0.8750-0.1250 0.8750 (  1648 PWs)   bands (ev):

    -0.6341   1.6546   4.7272   5.8049

          k = 0.7500 0.0000 0.7500 (  1638 PWs)   bands (ev):

     0.0432   1.0935   3.5275   6.1320

          k = 0.0000-1.0000 0.0000 (  1660 PWs)   bands (ev):

     0.4071   0.4071   5.5951   5.5951

          k =-0.2500 0.5000 0.0000 (  1648 PWs)   bands (ev):

    -3.0847   4.5499   5.6806   7.4186

          k = 0.6250-0.3750 0.8750 (  1636 PWs)   bands (ev):

    -1.9446   2.5482   5.0679   6.7126

          k = 0.5000-0.2500 0.7500 (  1644 PWs)   bands (ev):

    -1.0248   1.2401   4.9859   6.3842

          k = 0.7500-0.2500 1.0000 (  1654 PWs)   bands (ev):

    -1.5006   2.7200   4.8573   5.5808

          k = 0.6250-0.1250 0.8750 (  1643 PWs)   bands (ev):

    -0.3261   1.4747   3.9174   5.3222

          k = 0.5000 0.0000 0.7500 (  1643 PWs)   bands (ev):

    -0.7741   1.9153   3.6828   5.8273

          k =-0.2500-1.0000 0.0000 (  1648 PWs)   bands (ev):

     0.5521   0.5521   4.7478   4.7478

          k =-0.5000-1.0000 0.0000 (  1628 PWs)   bands (ev):

     0.7252   0.7252   4.1036   4.1036

     highest occupied level (ev):     9.1778

!    total energy              =     -19.11605225 Ry
     estimated scf accuracy    <       0.00000007 Ry

     The total energy is the sum of the following terms:
     one-electron contribution =       7.21786069 Ry
     hartree contribution      =       0.90471316 Ry
     xc contribution           =      -8.95687466 Ry
     ewald contribution        =     -18.28175144 Ry

     convergence has been achieved in   5 iterations

     Writing all to output data dir ./si-dia/si-dia.save/ :
     XML data file, charge density, pseudopotentials, collected wavefunctions

     init_run     :      0.33s CPU      0.38s WALL (       1 calls)
     electrons    :      0.14s CPU      0.19s WALL (       1 calls)

     Called by init_run:
     wfcinit      :      0.01s CPU      0.02s WALL (       1 calls)
     potinit      :      0.01s CPU      0.02s WALL (       1 calls)
     hinit0       :      0.28s CPU      0.30s WALL (       1 calls)

     Called by electrons:
     c_bands      :      0.07s CPU      0.09s WALL (       6 calls)
     sum_band     :      0.03s CPU      0.03s WALL (       6 calls)
     v_of_rho     :      0.02s CPU      0.03s WALL (       6 calls)
     newd         :      0.01s CPU      0.01s WALL (       6 calls)
     mix_rho      :      0.00s CPU      0.00s WALL (       6 calls)

     Called by c_bands:
     init_us_2    :      0.00s CPU      0.00s WALL (      52 calls)
     cegterg      :      0.06s CPU      0.07s WALL (      24 calls)

     Called by *egterg:
     cdiaghg      :      0.00s CPU      0.01s WALL (      92 calls)
     h_psi        :      0.06s CPU      0.08s WALL (     100 calls)
     s_psi        :      0.00s CPU      0.00s WALL (     100 calls)
     g_psi        :      0.00s CPU      0.00s WALL (      72 calls)

     Called by h_psi:
     h_psi:calbec :      0.00s CPU      0.01s WALL (     100 calls)
     vloc_psi     :      0.05s CPU      0.06s WALL (     100 calls)
     add_vuspsi   :      0.00s CPU      0.00s WALL (     100 calls)

     General routines
     calbec       :      0.01s CPU      0.01s WALL (     124 calls)
     fft          :      0.27s CPU      0.27s WALL (      67 calls)
     ffts         :      0.00s CPU      0.00s WALL (       6 calls)
     fftw         :      0.05s CPU      0.06s WALL (     804 calls)

     Parallel routines

     PWSCF        :      0.69s CPU      0.96s WALL


   This run was terminated on:  14:42:39   9Feb2026            

=------------------------------------------------------------------------------=
   JOB DONE.
=------------------------------------------------------------------------------=
