
     Program PWSCF v.7.3.1 starts on  6Feb2026 at 15:27:41 

     This program is part of the open-source Quantum ESPRESSO suite
     for quantum simulation of materials; please cite
         "P. Giannozzi et al., J. Phys.:Condens. Matter 21 395502 (2009);
         "P. Giannozzi et al., J. Phys.:Condens. Matter 29 465901 (2017);
         "P. Giannozzi et al., J. Chem. Phys. 152 154105 (2020);
          URL http://www.quantum-espresso.org", 
     in publications or presentations arising from this work. More details at
     http://www.quantum-espresso.org/quote

     Parallel version (MPI), running on   128 processors

     MPI processes distributed on     1 nodes
     241366 MiB available memory on the printing compute node when the environment starts

     Waiting for input...
     Reading input from standard input

     Current dimensions of program PWSCF are:
     Max number of different atomic species (ntypx) = 10
     Max number of k-points (npk) =  40000
     Max angular momentum in pseudopotentials (lmaxx) =  4

     K-points division:     npool     =       8
     R & G space division:  proc/nbgrp/npool/nimage =      16
     Subspace diagonalization in iterative solution of the eigenvalue problem:
     a serial algorithm will be used


     Parallelization info
     --------------------
     sticks:   dense  smooth     PW     G-vecs:    dense   smooth      PW
     Min          46      46     13                  834      834     137
     Max          47      47     14                  837      837     142
     Sum         745     745    223                13371    13371    2229

     Using Slab Decomposition



     bravais-lattice index     =            2
     lattice parameter (alat)  =       9.4597  a.u.
     unit-cell volume          =     211.6288 (a.u.)^3
     number of atoms/cell      =            2
     number of atomic types    =            1
     number of electrons       =         8.00
     number of Kohn-Sham states=            4
     kinetic-energy cutoff     =      60.0000  Ry
     charge density cutoff     =     240.0000  Ry
     scf convergence threshold =      1.0E-07
     mixing beta               =       0.7000
     number of iterations used =            8  plain     mixing
     Exchange-correlation=  SLA  PW   PBE  PBE
                           (   1   4   3   4   0   0   0)

     celldm(1)=   9.459720  celldm(2)=   0.000000  celldm(3)=   0.000000
     celldm(4)=   0.000000  celldm(5)=   0.000000  celldm(6)=   0.000000

     crystal axes: (cart. coord. in units of alat)
               a(1) = (  -0.500000   0.000000   0.500000 )  
               a(2) = (   0.000000   0.500000   0.500000 )  
               a(3) = (  -0.500000   0.500000   0.000000 )  

     reciprocal axes: (cart. coord. in units 2 pi/alat)
               b(1) = ( -1.000000 -1.000000  1.000000 )  
               b(2) = (  1.000000  1.000000  1.000000 )  
               b(3) = ( -1.000000  1.000000 -1.000000 )  


     PseudoPot. # 1 for Si read from file:
     ./Si.pbe-n-van.UPF
     MD5 check sum: 8a97496598b7338af554a5de8957bfee
     Pseudo is Ultrasoft + core correction, Zval =  4.0
     Generated by new atomic code, or converted to UPF format
     Using radial grid of  899 points,  6 beta functions with: 
                l(1) =   0
                l(2) =   0
                l(3) =   1
                l(4) =   1
                l(5) =   2
                l(6) =   2
     Q(r) pseudized with  8 coefficients,  rinner =    0.900   0.900   0.900
                                                       0.900   0.900

     atomic species   valence    mass     pseudopotential
     Si                4.00    28.08600     Si( 1.00)

     48 Sym. Ops., with inversion, found (24 have fractional translation)



   Cartesian axes

     site n.     atom                  positions (alat units)
         1        Si     tau(   1) = (  -0.7500000   0.7500000   0.7500000  )
         2        Si     tau(   2) = (   0.0000000   0.0000000   0.0000000  )

     number of k points=    29
                       cart. coord. in units 2pi/alat
        k(    1) = (   0.0000000   0.0000000   0.0000000), wk =   0.0039062
        k(    2) = (  -0.1250000   0.1250000  -0.1250000), wk =   0.0312500
        k(    3) = (  -0.2500000   0.2500000  -0.2500000), wk =   0.0312500
        k(    4) = (  -0.3750000   0.3750000  -0.3750000), wk =   0.0312500
        k(    5) = (   0.5000000  -0.5000000   0.5000000), wk =   0.0156250
        k(    6) = (   0.0000000   0.2500000   0.0000000), wk =   0.0234375
        k(    7) = (  -0.1250000   0.3750000  -0.1250000), wk =   0.0937500
        k(    8) = (  -0.2500000   0.5000000  -0.2500000), wk =   0.0937500
        k(    9) = (   0.6250000  -0.3750000   0.6250000), wk =   0.0937500
        k(   10) = (   0.5000000  -0.2500000   0.5000000), wk =   0.0937500
        k(   11) = (   0.3750000  -0.1250000   0.3750000), wk =   0.0937500
        k(   12) = (   0.2500000   0.0000000   0.2500000), wk =   0.0468750
        k(   13) = (   0.0000000   0.5000000   0.0000000), wk =   0.0234375
        k(   14) = (  -0.1250000   0.6250000  -0.1250000), wk =   0.0937500
        k(   15) = (   0.7500000  -0.2500000   0.7500000), wk =   0.0937500
        k(   16) = (   0.6250000  -0.1250000   0.6250000), wk =   0.0937500
        k(   17) = (   0.5000000   0.0000000   0.5000000), wk =   0.0468750
        k(   18) = (   0.0000000   0.7500000   0.0000000), wk =   0.0234375
        k(   19) = (   0.8750000  -0.1250000   0.8750000), wk =   0.0937500
        k(   20) = (   0.7500000   0.0000000   0.7500000), wk =   0.0468750
        k(   21) = (   0.0000000  -1.0000000   0.0000000), wk =   0.0117188
        k(   22) = (  -0.2500000   0.5000000   0.0000000), wk =   0.0937500
        k(   23) = (   0.6250000  -0.3750000   0.8750000), wk =   0.1875000
        k(   24) = (   0.5000000  -0.2500000   0.7500000), wk =   0.0937500
        k(   25) = (   0.7500000  -0.2500000   1.0000000), wk =   0.0937500
        k(   26) = (   0.6250000  -0.1250000   0.8750000), wk =   0.1875000
        k(   27) = (   0.5000000   0.0000000   0.7500000), wk =   0.0937500
        k(   28) = (  -0.2500000  -1.0000000   0.0000000), wk =   0.0468750
        k(   29) = (  -0.5000000  -1.0000000   0.0000000), wk =   0.0234375

     Dense  grid:    13371 G-vectors     FFT dimensions: (  36,  36,  36)

     Estimated max dynamical RAM per process >       2.26 MB

     Estimated total dynamical RAM >     265.93 MB

     Initial potential from superposition of free atoms

     starting charge       7.9987, renormalised to       8.0000
     Starting wfcs are    8 randomized atomic wfcs

     total cpu time spent up to now is        0.7 secs

     per-process dynamical memory:     9.9 Mb

     Self-consistent Calculation

     iteration #  1     ecut=    60.00 Ry     beta= 0.70
     Davidson diagonalization with overlap
     ethr =  1.00E-02,  avg # of iterations =  2.0

     Threshold (ethr) on eigenvalues was too large:
     Diagonalizing with lowered threshold

     Davidson diagonalization with overlap
     ethr =  9.54E-04,  avg # of iterations =  1.0

     total cpu time spent up to now is        0.7 secs

     total energy              =     -19.11624809 Ry
     estimated scf accuracy    <       0.08120234 Ry

     iteration #  2     ecut=    60.00 Ry     beta= 0.70
     Davidson diagonalization with overlap
     ethr =  1.02E-03,  avg # of iterations =  1.0

     total cpu time spent up to now is        0.7 secs

     total energy              =     -19.12101691 Ry
     estimated scf accuracy    <       0.00229892 Ry

     iteration #  3     ecut=    60.00 Ry     beta= 0.70
     Davidson diagonalization with overlap
     ethr =  2.87E-05,  avg # of iterations =  2.4

     total cpu time spent up to now is        0.8 secs

     total energy              =     -19.12183979 Ry
     estimated scf accuracy    <       0.00006358 Ry

     iteration #  4     ecut=    60.00 Ry     beta= 0.70
     Davidson diagonalization with overlap
     ethr =  7.95E-07,  avg # of iterations =  5.4

     total cpu time spent up to now is        0.8 secs

     total energy              =     -19.12191359 Ry
     estimated scf accuracy    <       0.00000117 Ry

     iteration #  5     ecut=    60.00 Ry     beta= 0.70
     Davidson diagonalization with overlap
     ethr =  1.46E-08,  avg # of iterations =  5.0

     total cpu time spent up to now is        0.8 secs

     End of self-consistent calculation

          k = 0.0000 0.0000 0.0000 (  1687 PWs)   bands (ev):

    -4.7819   9.0501   9.0501   9.0501

          k =-0.1250 0.1250-0.1250 (  1678 PWs)   bands (ev):

    -4.5315   7.2711   8.6820   8.6820

          k =-0.2500 0.2500-0.2500 (  1654 PWs)   bands (ev):

    -3.7951   4.5413   8.1232   8.1232

          k =-0.3750 0.3750-0.3750 (  1661 PWs)   bands (ev):

    -2.6555   2.0838   7.7557   7.7557

          k = 0.5000-0.5000 0.5000 (  1676 PWs)   bands (ev):

    -1.7560   0.7322   7.6339   7.6339

          k = 0.0000 0.2500 0.0000 (  1667 PWs)   bands (ev):

    -4.4475   7.8729   7.9899   7.9899

          k =-0.1250 0.3750-0.1250 (  1662 PWs)   bands (ev):

    -3.8705   5.4980   7.3683   7.6428

          k =-0.2500 0.5000-0.2500 (  1660 PWs)   bands (ev):

    -2.8477   2.9759   6.9432   7.0690

          k = 0.6250-0.3750 0.6250 (  1669 PWs)   bands (ev):

    -1.6825   1.0875   6.3826   7.1322

          k = 0.5000-0.2500 0.5000 (  1658 PWs)   bands (ev):

    -2.0304   1.5859   6.1126   7.5245

          k = 0.3750-0.1250 0.3750 (  1657 PWs)   bands (ev):

    -3.2344   3.7917   6.2166   8.1471

          k = 0.2500 0.0000 0.2500 (  1650 PWs)   bands (ev):

    -4.1179   6.1703   6.9306   8.7409

          k = 0.0000 0.5000 0.0000 (  1636 PWs)   bands (ev):

    -3.4548   5.5201   6.6567   6.6567

          k =-0.1250 0.6250-0.1250 (  1663 PWs)   bands (ev):

    -2.5742   3.7435   5.7082   6.2794

          k = 0.7500-0.2500 0.7500 (  1661 PWs)   bands (ev):

    -1.3730   1.8527   4.6650   6.3008

          k = 0.6250-0.1250 0.6250 (  1658 PWs)   bands (ev):

    -1.0659   1.4699   4.0673   6.7109

          k = 0.5000 0.0000 0.5000 (  1658 PWs)   bands (ev):

    -2.2344   3.0118   4.2646   7.4264

          k = 0.0000 0.7500 0.0000 (  1664 PWs)   bands (ev):

    -1.8395   2.8695   5.7922   5.7922

          k = 0.8750-0.1250 0.8750 (  1660 PWs)   bands (ev):

    -0.7123   1.5573   4.6427   5.7059

          k = 0.7500 0.0000 0.7500 (  1666 PWs)   bands (ev):

    -0.0463   1.0036   3.4577   6.0301

          k = 0.0000-1.0000 0.0000 (  1660 PWs)   bands (ev):

     0.3211   0.3211   5.4977   5.4977

          k =-0.2500 0.5000 0.0000 (  1660 PWs)   bands (ev):

    -3.1426   4.4391   5.5859   7.3043

          k = 0.6250-0.3750 0.8750 (  1654 PWs)   bands (ev):

    -2.0130   2.4571   4.9718   6.6077

          k = 0.5000-0.2500 0.7500 (  1676 PWs)   bands (ev):

    -1.1055   1.1651   4.8875   6.2838

          k = 0.7500-0.2500 1.0000 (  1662 PWs)   bands (ev):

    -1.5718   2.6142   4.7699   5.4893

          k = 0.6250-0.1250 0.8750 (  1665 PWs)   bands (ev):

    -0.4105   1.3814   3.8402   5.2329

          k = 0.5000 0.0000 0.7500 (  1655 PWs)   bands (ev):

    -0.8542   1.8184   3.6088   5.7324

          k =-0.2500-1.0000 0.0000 (  1662 PWs)   bands (ev):

     0.4629   0.4629   4.6632   4.6632

          k =-0.5000-1.0000 0.0000 (  1648 PWs)   bands (ev):

     0.6316   0.6316   4.0286   4.0286

     highest occupied level (ev):     9.0501

!    total energy              =     -19.12191529 Ry
     estimated scf accuracy    <       0.00000007 Ry

     The total energy is the sum of the following terms:
     one-electron contribution =       7.13077713 Ry
     hartree contribution      =       0.91261103 Ry
     xc contribution           =      -8.94303710 Ry
     ewald contribution        =     -18.22226635 Ry

     convergence has been achieved in   5 iterations

     Writing all to output data dir ./si-dia/si-dia.save/ :
     XML data file, charge density, pseudopotentials, collected wavefunctions

     init_run     :      0.32s CPU      0.38s WALL (       1 calls)
     electrons    :      0.13s CPU      0.18s WALL (       1 calls)

     Called by init_run:
     wfcinit      :      0.01s CPU      0.03s WALL (       1 calls)
     potinit      :      0.00s CPU      0.02s WALL (       1 calls)
     hinit0       :      0.28s CPU      0.30s WALL (       1 calls)

     Called by electrons:
     c_bands      :      0.08s CPU      0.09s WALL (       6 calls)
     sum_band     :      0.02s CPU      0.03s WALL (       6 calls)
     v_of_rho     :      0.02s CPU      0.03s WALL (       6 calls)
     newd         :      0.01s CPU      0.01s WALL (       6 calls)
     mix_rho      :      0.00s CPU      0.00s WALL (       6 calls)

     Called by c_bands:
     init_us_2    :      0.00s CPU      0.00s WALL (      52 calls)
     cegterg      :      0.07s CPU      0.08s WALL (      24 calls)

     Called by *egterg:
     cdiaghg      :      0.00s CPU      0.01s WALL (      92 calls)
     h_psi        :      0.06s CPU      0.07s WALL (     100 calls)
     s_psi        :      0.00s CPU      0.00s WALL (     100 calls)
     g_psi        :      0.00s CPU      0.00s WALL (      72 calls)

     Called by h_psi:
     h_psi:calbec :      0.01s CPU      0.01s WALL (     100 calls)
     vloc_psi     :      0.06s CPU      0.06s WALL (     100 calls)
     add_vuspsi   :      0.00s CPU      0.00s WALL (     100 calls)

     General routines
     calbec       :      0.01s CPU      0.01s WALL (     124 calls)
     fft          :      0.26s CPU      0.27s WALL (      67 calls)
     ffts         :      0.00s CPU      0.00s WALL (       6 calls)
     fftw         :      0.06s CPU      0.06s WALL (     806 calls)

     Parallel routines

     PWSCF        :      0.65s CPU      0.93s WALL


   This run was terminated on:  15:27:42   6Feb2026            

=------------------------------------------------------------------------------=
   JOB DONE.
=------------------------------------------------------------------------------=
