
     Program PWSCF v.7.3.1 starts on  6Feb2026 at 15:27:55 

     This program is part of the open-source Quantum ESPRESSO suite
     for quantum simulation of materials; please cite
         "P. Giannozzi et al., J. Phys.:Condens. Matter 21 395502 (2009);
         "P. Giannozzi et al., J. Phys.:Condens. Matter 29 465901 (2017);
         "P. Giannozzi et al., J. Chem. Phys. 152 154105 (2020);
          URL http://www.quantum-espresso.org", 
     in publications or presentations arising from this work. More details at
     http://www.quantum-espresso.org/quote

     Parallel version (MPI), running on   128 processors

     MPI processes distributed on     1 nodes
     241413 MiB available memory on the printing compute node when the environment starts

     Waiting for input...
     Reading input from standard input

     Current dimensions of program PWSCF are:
     Max number of different atomic species (ntypx) = 10
     Max number of k-points (npk) =  40000
     Max angular momentum in pseudopotentials (lmaxx) =  4

     K-points division:     npool     =       8
     R & G space division:  proc/nbgrp/npool/nimage =      16
     Subspace diagonalization in iterative solution of the eigenvalue problem:
     a serial algorithm will be used


     Parallelization info
     --------------------
     sticks:   dense  smooth     PW     G-vecs:    dense   smooth      PW
     Min          46      46     14                  843      843     142
     Max          47      47     16                  848      848     143
     Sum         745     745    235                13539    13539    2277

     Using Slab Decomposition



     bravais-lattice index     =            2
     lattice parameter (alat)  =       9.5213  a.u.
     unit-cell volume          =     215.7874 (a.u.)^3
     number of atoms/cell      =            2
     number of atomic types    =            1
     number of electrons       =         8.00
     number of Kohn-Sham states=            4
     kinetic-energy cutoff     =      60.0000  Ry
     charge density cutoff     =     240.0000  Ry
     scf convergence threshold =      1.0E-07
     mixing beta               =       0.7000
     number of iterations used =            8  plain     mixing
     Exchange-correlation=  SLA  PW   PBE  PBE
                           (   1   4   3   4   0   0   0)

     celldm(1)=   9.521280  celldm(2)=   0.000000  celldm(3)=   0.000000
     celldm(4)=   0.000000  celldm(5)=   0.000000  celldm(6)=   0.000000

     crystal axes: (cart. coord. in units of alat)
               a(1) = (  -0.500000   0.000000   0.500000 )  
               a(2) = (   0.000000   0.500000   0.500000 )  
               a(3) = (  -0.500000   0.500000   0.000000 )  

     reciprocal axes: (cart. coord. in units 2 pi/alat)
               b(1) = ( -1.000000 -1.000000  1.000000 )  
               b(2) = (  1.000000  1.000000  1.000000 )  
               b(3) = ( -1.000000  1.000000 -1.000000 )  


     PseudoPot. # 1 for Si read from file:
     ./Si.pbe-n-van.UPF
     MD5 check sum: 8a97496598b7338af554a5de8957bfee
     Pseudo is Ultrasoft + core correction, Zval =  4.0
     Generated by new atomic code, or converted to UPF format
     Using radial grid of  899 points,  6 beta functions with: 
                l(1) =   0
                l(2) =   0
                l(3) =   1
                l(4) =   1
                l(5) =   2
                l(6) =   2
     Q(r) pseudized with  8 coefficients,  rinner =    0.900   0.900   0.900
                                                       0.900   0.900

     atomic species   valence    mass     pseudopotential
     Si                4.00    28.08600     Si( 1.00)

     48 Sym. Ops., with inversion, found (24 have fractional translation)



   Cartesian axes

     site n.     atom                  positions (alat units)
         1        Si     tau(   1) = (  -0.7500000   0.7500000   0.7500000  )
         2        Si     tau(   2) = (   0.0000000   0.0000000   0.0000000  )

     number of k points=    29
                       cart. coord. in units 2pi/alat
        k(    1) = (   0.0000000   0.0000000   0.0000000), wk =   0.0039062
        k(    2) = (  -0.1250000   0.1250000  -0.1250000), wk =   0.0312500
        k(    3) = (  -0.2500000   0.2500000  -0.2500000), wk =   0.0312500
        k(    4) = (  -0.3750000   0.3750000  -0.3750000), wk =   0.0312500
        k(    5) = (   0.5000000  -0.5000000   0.5000000), wk =   0.0156250
        k(    6) = (   0.0000000   0.2500000   0.0000000), wk =   0.0234375
        k(    7) = (  -0.1250000   0.3750000  -0.1250000), wk =   0.0937500
        k(    8) = (  -0.2500000   0.5000000  -0.2500000), wk =   0.0937500
        k(    9) = (   0.6250000  -0.3750000   0.6250000), wk =   0.0937500
        k(   10) = (   0.5000000  -0.2500000   0.5000000), wk =   0.0937500
        k(   11) = (   0.3750000  -0.1250000   0.3750000), wk =   0.0937500
        k(   12) = (   0.2500000   0.0000000   0.2500000), wk =   0.0468750
        k(   13) = (   0.0000000   0.5000000   0.0000000), wk =   0.0234375
        k(   14) = (  -0.1250000   0.6250000  -0.1250000), wk =   0.0937500
        k(   15) = (   0.7500000  -0.2500000   0.7500000), wk =   0.0937500
        k(   16) = (   0.6250000  -0.1250000   0.6250000), wk =   0.0937500
        k(   17) = (   0.5000000   0.0000000   0.5000000), wk =   0.0468750
        k(   18) = (   0.0000000   0.7500000   0.0000000), wk =   0.0234375
        k(   19) = (   0.8750000  -0.1250000   0.8750000), wk =   0.0937500
        k(   20) = (   0.7500000   0.0000000   0.7500000), wk =   0.0468750
        k(   21) = (   0.0000000  -1.0000000   0.0000000), wk =   0.0117188
        k(   22) = (  -0.2500000   0.5000000   0.0000000), wk =   0.0937500
        k(   23) = (   0.6250000  -0.3750000   0.8750000), wk =   0.1875000
        k(   24) = (   0.5000000  -0.2500000   0.7500000), wk =   0.0937500
        k(   25) = (   0.7500000  -0.2500000   1.0000000), wk =   0.0937500
        k(   26) = (   0.6250000  -0.1250000   0.8750000), wk =   0.1875000
        k(   27) = (   0.5000000   0.0000000   0.7500000), wk =   0.0937500
        k(   28) = (  -0.2500000  -1.0000000   0.0000000), wk =   0.0468750
        k(   29) = (  -0.5000000  -1.0000000   0.0000000), wk =   0.0234375

     Dense  grid:    13539 G-vectors     FFT dimensions: (  36,  36,  36)

     Estimated max dynamical RAM per process >       2.26 MB

     Estimated total dynamical RAM >     266.74 MB

     Initial potential from superposition of free atoms

     starting charge       7.9987, renormalised to       8.0000
     Starting wfcs are    8 randomized atomic wfcs

     total cpu time spent up to now is        0.6 secs

     per-process dynamical memory:     9.9 Mb

     Self-consistent Calculation

     iteration #  1     ecut=    60.00 Ry     beta= 0.70
     Davidson diagonalization with overlap
     ethr =  1.00E-02,  avg # of iterations =  2.0

     Threshold (ethr) on eigenvalues was too large:
     Diagonalizing with lowered threshold

     Davidson diagonalization with overlap
     ethr =  9.30E-04,  avg # of iterations =  1.0

     total cpu time spent up to now is        0.7 secs

     total energy              =     -19.12737818 Ry
     estimated scf accuracy    <       0.07911897 Ry

     iteration #  2     ecut=    60.00 Ry     beta= 0.70
     Davidson diagonalization with overlap
     ethr =  9.89E-04,  avg # of iterations =  1.0

     total cpu time spent up to now is        0.7 secs

     total energy              =     -19.13193489 Ry
     estimated scf accuracy    <       0.00230449 Ry

     iteration #  3     ecut=    60.00 Ry     beta= 0.70
     Davidson diagonalization with overlap
     ethr =  2.88E-05,  avg # of iterations =  2.4

     total cpu time spent up to now is        0.8 secs

     total energy              =     -19.13272395 Ry
     estimated scf accuracy    <       0.00006226 Ry

     iteration #  4     ecut=    60.00 Ry     beta= 0.70
     Davidson diagonalization with overlap
     ethr =  7.78E-07,  avg # of iterations =  5.4

     total cpu time spent up to now is        0.8 secs

     total energy              =     -19.13279511 Ry
     estimated scf accuracy    <       0.00000114 Ry

     iteration #  5     ecut=    60.00 Ry     beta= 0.70
     Davidson diagonalization with overlap
     ethr =  1.43E-08,  avg # of iterations =  5.0

     total cpu time spent up to now is        0.8 secs

     End of self-consistent calculation

          k = 0.0000 0.0000 0.0000 (  1687 PWs)   bands (ev):

    -4.8692   8.7993   8.7993   8.7993

          k =-0.1250 0.1250-0.1250 (  1705 PWs)   bands (ev):

    -4.6227   7.0409   8.4380   8.4380

          k =-0.2500 0.2500-0.2500 (  1685 PWs)   bands (ev):

    -3.8983   4.3458   7.8862   7.8862

          k =-0.3750 0.3750-0.3750 (  1682 PWs)   bands (ev):

    -2.7798   1.9252   7.5214   7.5214

          k = 0.5000-0.5000 0.5000 (  1694 PWs)   bands (ev):

    -1.9047   0.6036   7.4000   7.4000

          k = 0.0000 0.2500 0.0000 (  1719 PWs)   bands (ev):

    -4.5400   7.6134   7.7615   7.7615

          k =-0.1250 0.3750-0.1250 (  1697 PWs)   bands (ev):

    -3.9722   5.2825   7.1489   7.4038

          k =-0.2500 0.5000-0.2500 (  1689 PWs)   bands (ev):

    -2.9671   2.7986   6.7141   6.8518

          k = 0.6250-0.3750 0.6250 (  1703 PWs)   bands (ev):

    -1.8293   0.9475   6.1638   6.9113

          k = 0.5000-0.2500 0.5000 (  1696 PWs)   bands (ev):

    -2.1675   1.4342   5.9018   7.2950

          k = 0.3750-0.1250 0.3750 (  1687 PWs)   bands (ev):

    -3.3469   3.6014   6.0100   7.9060

          k = 0.2500 0.0000 0.2500 (  1699 PWs)   bands (ev):

    -4.2157   5.9421   6.7227   8.4902

          k = 0.0000 0.5000 0.0000 (  1700 PWs)   bands (ev):

    -3.5629   5.2737   6.4493   6.4493

          k =-0.1250 0.6250-0.1250 (  1694 PWs)   bands (ev):

    -2.6969   3.5290   5.5140   6.0769

          k = 0.7500-0.2500 0.7500 (  1692 PWs)   bands (ev):

    -1.5197   1.6783   4.4853   6.0965

          k = 0.6250-0.1250 0.6250 (  1696 PWs)   bands (ev):

    -1.2223   1.3076   3.8995   6.4986

          k = 0.5000 0.0000 0.5000 (  1696 PWs)   bands (ev):

    -2.3647   2.8135   4.1029   7.2003

          k = 0.0000 0.7500 0.0000 (  1700 PWs)   bands (ev):

    -1.9734   2.6592   5.5971   5.5971

          k = 0.8750-0.1250 0.8750 (  1689 PWs)   bands (ev):

    -0.8660   1.3661   4.4769   5.5115

          k = 0.7500 0.0000 0.7500 (  1682 PWs)   bands (ev):

    -0.2218   0.8269   3.3208   5.8300

          k = 0.0000-1.0000 0.0000 (  1692 PWs)   bands (ev):

     0.1520   0.1520   5.3066   5.3066

          k =-0.2500 0.5000 0.0000 (  1686 PWs)   bands (ev):

    -3.2562   4.2210   5.4001   7.0801

          k = 0.6250-0.3750 0.8750 (  1688 PWs)   bands (ev):

    -2.1475   2.2776   4.7836   6.4016

          k = 0.5000-0.2500 0.7500 (  1688 PWs)   bands (ev):

    -1.2637   1.0170   4.6948   6.0867

          k = 0.7500-0.2500 1.0000 (  1693 PWs)   bands (ev):

    -1.7117   2.4062   4.5984   5.3096

          k = 0.6250-0.1250 0.8750 (  1694 PWs)   bands (ev):

    -0.5763   1.1979   3.6887   5.0575

          k = 0.5000 0.0000 0.7500 (  1691 PWs)   bands (ev):

    -1.0116   1.6279   3.4636   5.5460

          k =-0.2500-1.0000 0.0000 (  1694 PWs)   bands (ev):

     0.2877   0.2877   4.4972   4.4972

          k =-0.5000-1.0000 0.0000 (  1708 PWs)   bands (ev):

     0.4477   0.4477   3.8812   3.8812

     highest occupied level (ev):     8.7993

!    total energy              =     -19.13279673 Ry
     estimated scf accuracy    <       0.00000007 Ry

     The total energy is the sum of the following terms:
     one-electron contribution =       6.95901616 Ry
     hartree contribution      =       0.92837509 Ry
     xc contribution           =      -8.91573801 Ry
     ewald contribution        =     -18.10444997 Ry

     convergence has been achieved in   5 iterations

     Writing all to output data dir ./si-dia/si-dia.save/ :
     XML data file, charge density, pseudopotentials, collected wavefunctions

     init_run     :      0.33s CPU      0.37s WALL (       1 calls)
     electrons    :      0.12s CPU      0.18s WALL (       1 calls)

     Called by init_run:
     wfcinit      :      0.01s CPU      0.02s WALL (       1 calls)
     potinit      :      0.01s CPU      0.02s WALL (       1 calls)
     hinit0       :      0.29s CPU      0.30s WALL (       1 calls)

     Called by electrons:
     c_bands      :      0.07s CPU      0.09s WALL (       6 calls)
     sum_band     :      0.02s CPU      0.03s WALL (       6 calls)
     v_of_rho     :      0.01s CPU      0.03s WALL (       6 calls)
     newd         :      0.00s CPU      0.01s WALL (       6 calls)
     mix_rho      :      0.00s CPU      0.00s WALL (       6 calls)

     Called by c_bands:
     init_us_2    :      0.00s CPU      0.00s WALL (      52 calls)
     cegterg      :      0.06s CPU      0.08s WALL (      24 calls)

     Called by *egterg:
     cdiaghg      :      0.00s CPU      0.01s WALL (      93 calls)
     h_psi        :      0.05s CPU      0.07s WALL (     101 calls)
     s_psi        :      0.00s CPU      0.00s WALL (     101 calls)
     g_psi        :      0.00s CPU      0.00s WALL (      73 calls)

     Called by h_psi:
     h_psi:calbec :      0.00s CPU      0.01s WALL (     101 calls)
     vloc_psi     :      0.05s CPU      0.06s WALL (     101 calls)
     add_vuspsi   :      0.00s CPU      0.00s WALL (     101 calls)

     General routines
     calbec       :      0.00s CPU      0.01s WALL (     125 calls)
     fft          :      0.26s CPU      0.26s WALL (      67 calls)
     ffts         :      0.00s CPU      0.00s WALL (       6 calls)
     fftw         :      0.05s CPU      0.06s WALL (     804 calls)

     Parallel routines

     PWSCF        :      0.64s CPU      0.92s WALL


   This run was terminated on:  15:27:56   6Feb2026            

=------------------------------------------------------------------------------=
   JOB DONE.
=------------------------------------------------------------------------------=
