
     Program PWSCF v.7.3.1 starts on  6Feb2026 at 15:28:18 

     This program is part of the open-source Quantum ESPRESSO suite
     for quantum simulation of materials; please cite
         "P. Giannozzi et al., J. Phys.:Condens. Matter 21 395502 (2009);
         "P. Giannozzi et al., J. Phys.:Condens. Matter 29 465901 (2017);
         "P. Giannozzi et al., J. Chem. Phys. 152 154105 (2020);
          URL http://www.quantum-espresso.org", 
     in publications or presentations arising from this work. More details at
     http://www.quantum-espresso.org/quote

     Parallel version (MPI), running on   128 processors

     MPI processes distributed on     1 nodes
     241381 MiB available memory on the printing compute node when the environment starts

     Waiting for input...
     Reading input from standard input

     Current dimensions of program PWSCF are:
     Max number of different atomic species (ntypx) = 10
     Max number of k-points (npk) =  40000
     Max angular momentum in pseudopotentials (lmaxx) =  4

     K-points division:     npool     =       8
     R & G space division:  proc/nbgrp/npool/nimage =      16
     Subspace diagonalization in iterative solution of the eigenvalue problem:
     a serial algorithm will be used


     Parallelization info
     --------------------
     sticks:   dense  smooth     PW     G-vecs:    dense   smooth      PW
     Min          47      47     15                  864      864     149
     Max          48      48     16                  867      867     151
     Sum         757     757    241                13851    13851    2397

     Using Slab Decomposition



     bravais-lattice index     =            2
     lattice parameter (alat)  =       9.6034  a.u.
     unit-cell volume          =     221.4163 (a.u.)^3
     number of atoms/cell      =            2
     number of atomic types    =            1
     number of electrons       =         8.00
     number of Kohn-Sham states=            4
     kinetic-energy cutoff     =      60.0000  Ry
     charge density cutoff     =     240.0000  Ry
     scf convergence threshold =      1.0E-07
     mixing beta               =       0.7000
     number of iterations used =            8  plain     mixing
     Exchange-correlation=  SLA  PW   PBE  PBE
                           (   1   4   3   4   0   0   0)

     celldm(1)=   9.603360  celldm(2)=   0.000000  celldm(3)=   0.000000
     celldm(4)=   0.000000  celldm(5)=   0.000000  celldm(6)=   0.000000

     crystal axes: (cart. coord. in units of alat)
               a(1) = (  -0.500000   0.000000   0.500000 )  
               a(2) = (   0.000000   0.500000   0.500000 )  
               a(3) = (  -0.500000   0.500000   0.000000 )  

     reciprocal axes: (cart. coord. in units 2 pi/alat)
               b(1) = ( -1.000000 -1.000000  1.000000 )  
               b(2) = (  1.000000  1.000000  1.000000 )  
               b(3) = ( -1.000000  1.000000 -1.000000 )  


     PseudoPot. # 1 for Si read from file:
     ./Si.pbe-n-van.UPF
     MD5 check sum: 8a97496598b7338af554a5de8957bfee
     Pseudo is Ultrasoft + core correction, Zval =  4.0
     Generated by new atomic code, or converted to UPF format
     Using radial grid of  899 points,  6 beta functions with: 
                l(1) =   0
                l(2) =   0
                l(3) =   1
                l(4) =   1
                l(5) =   2
                l(6) =   2
     Q(r) pseudized with  8 coefficients,  rinner =    0.900   0.900   0.900
                                                       0.900   0.900

     atomic species   valence    mass     pseudopotential
     Si                4.00    28.08600     Si( 1.00)

     48 Sym. Ops., with inversion, found (24 have fractional translation)



   Cartesian axes

     site n.     atom                  positions (alat units)
         1        Si     tau(   1) = (  -0.7500000   0.7500000   0.7500000  )
         2        Si     tau(   2) = (   0.0000000   0.0000000   0.0000000  )

     number of k points=    29
                       cart. coord. in units 2pi/alat
        k(    1) = (   0.0000000   0.0000000   0.0000000), wk =   0.0039062
        k(    2) = (  -0.1250000   0.1250000  -0.1250000), wk =   0.0312500
        k(    3) = (  -0.2500000   0.2500000  -0.2500000), wk =   0.0312500
        k(    4) = (  -0.3750000   0.3750000  -0.3750000), wk =   0.0312500
        k(    5) = (   0.5000000  -0.5000000   0.5000000), wk =   0.0156250
        k(    6) = (   0.0000000   0.2500000   0.0000000), wk =   0.0234375
        k(    7) = (  -0.1250000   0.3750000  -0.1250000), wk =   0.0937500
        k(    8) = (  -0.2500000   0.5000000  -0.2500000), wk =   0.0937500
        k(    9) = (   0.6250000  -0.3750000   0.6250000), wk =   0.0937500
        k(   10) = (   0.5000000  -0.2500000   0.5000000), wk =   0.0937500
        k(   11) = (   0.3750000  -0.1250000   0.3750000), wk =   0.0937500
        k(   12) = (   0.2500000   0.0000000   0.2500000), wk =   0.0468750
        k(   13) = (   0.0000000   0.5000000   0.0000000), wk =   0.0234375
        k(   14) = (  -0.1250000   0.6250000  -0.1250000), wk =   0.0937500
        k(   15) = (   0.7500000  -0.2500000   0.7500000), wk =   0.0937500
        k(   16) = (   0.6250000  -0.1250000   0.6250000), wk =   0.0937500
        k(   17) = (   0.5000000   0.0000000   0.5000000), wk =   0.0468750
        k(   18) = (   0.0000000   0.7500000   0.0000000), wk =   0.0234375
        k(   19) = (   0.8750000  -0.1250000   0.8750000), wk =   0.0937500
        k(   20) = (   0.7500000   0.0000000   0.7500000), wk =   0.0468750
        k(   21) = (   0.0000000  -1.0000000   0.0000000), wk =   0.0117188
        k(   22) = (  -0.2500000   0.5000000   0.0000000), wk =   0.0937500
        k(   23) = (   0.6250000  -0.3750000   0.8750000), wk =   0.1875000
        k(   24) = (   0.5000000  -0.2500000   0.7500000), wk =   0.0937500
        k(   25) = (   0.7500000  -0.2500000   1.0000000), wk =   0.0937500
        k(   26) = (   0.6250000  -0.1250000   0.8750000), wk =   0.1875000
        k(   27) = (   0.5000000   0.0000000   0.7500000), wk =   0.0937500
        k(   28) = (  -0.2500000  -1.0000000   0.0000000), wk =   0.0468750
        k(   29) = (  -0.5000000  -1.0000000   0.0000000), wk =   0.0234375

     Dense  grid:    13851 G-vectors     FFT dimensions: (  36,  36,  36)

     Estimated max dynamical RAM per process >       2.28 MB

     Estimated total dynamical RAM >     268.78 MB

     Initial potential from superposition of free atoms

     starting charge       7.9987, renormalised to       8.0000
     Starting wfcs are    8 randomized atomic wfcs

     total cpu time spent up to now is        0.7 secs

     per-process dynamical memory:     9.9 Mb

     Self-consistent Calculation

     iteration #  1     ecut=    60.00 Ry     beta= 0.70
     Davidson diagonalization with overlap
     ethr =  1.00E-02,  avg # of iterations =  2.0

     Threshold (ethr) on eigenvalues was too large:
     Diagonalizing with lowered threshold

     Davidson diagonalization with overlap
     ethr =  8.93E-04,  avg # of iterations =  1.0

     total cpu time spent up to now is        0.7 secs

     total energy              =     -19.14063533 Ry
     estimated scf accuracy    <       0.07615338 Ry

     iteration #  2     ecut=    60.00 Ry     beta= 0.70
     Davidson diagonalization with overlap
     ethr =  9.52E-04,  avg # of iterations =  1.0

     total cpu time spent up to now is        0.7 secs

     total energy              =     -19.14483904 Ry
     estimated scf accuracy    <       0.00232914 Ry

     iteration #  3     ecut=    60.00 Ry     beta= 0.70
     Davidson diagonalization with overlap
     ethr =  2.91E-05,  avg # of iterations =  2.3

     total cpu time spent up to now is        0.8 secs

     total energy              =     -19.14556298 Ry
     estimated scf accuracy    <       0.00005978 Ry

     iteration #  4     ecut=    60.00 Ry     beta= 0.70
     Davidson diagonalization with overlap
     ethr =  7.47E-07,  avg # of iterations =  5.4

     total cpu time spent up to now is        0.8 secs

     total energy              =     -19.14563159 Ry
     estimated scf accuracy    <       0.00000094 Ry

     iteration #  5     ecut=    60.00 Ry     beta= 0.70
     Davidson diagonalization with overlap
     ethr =  1.18E-08,  avg # of iterations =  5.1

     total cpu time spent up to now is        0.8 secs

     End of self-consistent calculation

          k = 0.0000 0.0000 0.0000 (  1807 PWs)   bands (ev):

    -4.9821   8.4737   8.4737   8.4737

          k =-0.1250 0.1250-0.1250 (  1753 PWs)   bands (ev):

    -4.7408   6.7412   8.1215   8.1215

          k =-0.2500 0.2500-0.2500 (  1751 PWs)   bands (ev):

    -4.0320   4.0912   7.5789   7.5789

          k =-0.3750 0.3750-0.3750 (  1733 PWs)   bands (ev):

    -2.9411   1.7191   7.2178   7.2178

          k = 0.5000-0.5000 0.5000 (  1718 PWs)   bands (ev):

    -2.0972   0.4360   7.0972   7.0973

          k = 0.0000 0.2500 0.0000 (  1752 PWs)   bands (ev):

    -4.6598   7.2758   7.4650   7.4650

          k =-0.1250 0.3750-0.1250 (  1745 PWs)   bands (ev):

    -4.1040   5.0015   6.8644   7.0944

          k =-0.2500 0.5000-0.2500 (  1723 PWs)   bands (ev):

    -3.1221   2.5678   6.4173   6.5704

          k = 0.6250-0.3750 0.6250 (  1741 PWs)   bands (ev):

    -2.0196   0.7649   5.8805   6.6250

          k = 0.5000-0.2500 0.5000 (  1746 PWs)   bands (ev):

    -2.3454   1.2367   5.6289   6.9976

          k = 0.3750-0.1250 0.3750 (  1742 PWs)   bands (ev):

    -3.4929   3.3535   5.7423   7.5936

          k = 0.2500 0.0000 0.2500 (  1755 PWs)   bands (ev):

    -4.3423   5.6448   6.4531   8.1653

          k = 0.0000 0.5000 0.0000 (  1716 PWs)   bands (ev):

    -3.7031   4.9534   6.1804   6.1804

          k =-0.1250 0.6250-0.1250 (  1730 PWs)   bands (ev):

    -2.8560   3.2498   5.2628   5.8144

          k = 0.7500-0.2500 0.7500 (  1728 PWs)   bands (ev):

    -1.7101   1.4510   4.2533   5.8317

          k = 0.6250-0.1250 0.6250 (  1741 PWs)   bands (ev):

    -1.4252   1.0956   3.6829   6.2235

          k = 0.5000 0.0000 0.5000 (  1742 PWs)   bands (ev):

    -2.5338   2.5554   3.8936   6.9074

          k = 0.0000 0.7500 0.0000 (  1740 PWs)   bands (ev):

    -2.1472   2.3859   5.3444   5.3444

          k = 0.8750-0.1250 0.8750 (  1728 PWs)   bands (ev):

    -1.0656   1.1178   4.2620   5.2599

          k = 0.7500 0.0000 0.7500 (  1738 PWs)   bands (ev):

    -0.4492   0.5972   3.1430   5.5709

          k = 0.0000-1.0000 0.0000 (  1724 PWs)   bands (ev):

    -0.0676  -0.0676   5.0592   5.0592

          k =-0.2500 0.5000 0.0000 (  1733 PWs)   bands (ev):

    -3.4036   3.9371   5.1593   6.7895

          k = 0.6250-0.3750 0.8750 (  1737 PWs)   bands (ev):

    -2.3219   2.0435   4.5406   6.1344

          k = 0.5000-0.2500 0.7500 (  1744 PWs)   bands (ev):

    -1.4686   0.8235   4.4460   5.8308

          k = 0.7500-0.2500 1.0000 (  1723 PWs)   bands (ev):

    -1.8934   2.1361   4.3764   5.0763

          k = 0.6250-0.1250 0.8750 (  1731 PWs)   bands (ev):

    -0.7913   0.9591   3.4928   4.8300

          k = 0.5000 0.0000 0.7500 (  1734 PWs)   bands (ev):

    -1.2159   1.3803   3.2757   5.3041

          k =-0.2500-1.0000 0.0000 (  1734 PWs)   bands (ev):

     0.0601   0.0601   4.2820   4.2820

          k =-0.5000-1.0000 0.0000 (  1744 PWs)   bands (ev):

     0.2094   0.2094   3.6899   3.6899

     highest occupied level (ev):     8.4737

!    total energy              =     -19.14563311 Ry
     estimated scf accuracy    <       0.00000006 Ry

     The total energy is the sum of the following terms:
     one-electron contribution =       6.73483001 Ry
     hartree contribution      =       0.94937854 Ry
     xc contribution           =      -8.88013057 Ry
     ewald contribution        =     -17.94971109 Ry

     convergence has been achieved in   5 iterations

     Writing all to output data dir ./si-dia/si-dia.save/ :
     XML data file, charge density, pseudopotentials, collected wavefunctions

     init_run     :      0.33s CPU      0.38s WALL (       1 calls)
     electrons    :      0.14s CPU      0.19s WALL (       1 calls)

     Called by init_run:
     wfcinit      :      0.01s CPU      0.02s WALL (       1 calls)
     potinit      :      0.01s CPU      0.02s WALL (       1 calls)
     hinit0       :      0.28s CPU      0.30s WALL (       1 calls)

     Called by electrons:
     c_bands      :      0.09s CPU      0.10s WALL (       6 calls)
     sum_band     :      0.03s CPU      0.03s WALL (       6 calls)
     v_of_rho     :      0.01s CPU      0.02s WALL (       6 calls)
     newd         :      0.01s CPU      0.01s WALL (       6 calls)
     mix_rho      :      0.00s CPU      0.00s WALL (       6 calls)

     Called by c_bands:
     init_us_2    :      0.00s CPU      0.00s WALL (      52 calls)
     cegterg      :      0.08s CPU      0.08s WALL (      24 calls)

     Called by *egterg:
     cdiaghg      :      0.01s CPU      0.01s WALL (      92 calls)
     h_psi        :      0.06s CPU      0.08s WALL (     100 calls)
     s_psi        :      0.00s CPU      0.00s WALL (     100 calls)
     g_psi        :      0.00s CPU      0.00s WALL (      72 calls)

     Called by h_psi:
     h_psi:calbec :      0.01s CPU      0.01s WALL (     100 calls)
     vloc_psi     :      0.05s CPU      0.06s WALL (     100 calls)
     add_vuspsi   :      0.00s CPU      0.00s WALL (     100 calls)

     General routines
     calbec       :      0.01s CPU      0.01s WALL (     124 calls)
     fft          :      0.26s CPU      0.27s WALL (      67 calls)
     ffts         :      0.00s CPU      0.00s WALL (       6 calls)
     fftw         :      0.06s CPU      0.07s WALL (     802 calls)

     Parallel routines

     PWSCF        :      0.68s CPU      0.93s WALL


   This run was terminated on:  15:28:19   6Feb2026            

=------------------------------------------------------------------------------=
   JOB DONE.
=------------------------------------------------------------------------------=
