
     Program PWSCF v.7.3.1 starts on  6Feb2026 at 15:28:25 

     This program is part of the open-source Quantum ESPRESSO suite
     for quantum simulation of materials; please cite
         "P. Giannozzi et al., J. Phys.:Condens. Matter 21 395502 (2009);
         "P. Giannozzi et al., J. Phys.:Condens. Matter 29 465901 (2017);
         "P. Giannozzi et al., J. Chem. Phys. 152 154105 (2020);
          URL http://www.quantum-espresso.org", 
     in publications or presentations arising from this work. More details at
     http://www.quantum-espresso.org/quote

     Parallel version (MPI), running on   128 processors

     MPI processes distributed on     1 nodes
     241331 MiB available memory on the printing compute node when the environment starts

     Waiting for input...
     Reading input from standard input

     Current dimensions of program PWSCF are:
     Max number of different atomic species (ntypx) = 10
     Max number of k-points (npk) =  40000
     Max angular momentum in pseudopotentials (lmaxx) =  4

     K-points division:     npool     =       8
     R & G space division:  proc/nbgrp/npool/nimage =      16
     Subspace diagonalization in iterative solution of the eigenvalue problem:
     a serial algorithm will be used


     Parallelization info
     --------------------
     sticks:   dense  smooth     PW     G-vecs:    dense   smooth      PW
     Min          47      47     15                  884      884     151
     Max          49      49     16                  886      886     153
     Sum         769     769    241                14163    14163    2421

     Using Slab Decomposition



     bravais-lattice index     =            2
     lattice parameter (alat)  =       9.6444  a.u.
     unit-cell volume          =     224.2671 (a.u.)^3
     number of atoms/cell      =            2
     number of atomic types    =            1
     number of electrons       =         8.00
     number of Kohn-Sham states=            4
     kinetic-energy cutoff     =      60.0000  Ry
     charge density cutoff     =     240.0000  Ry
     scf convergence threshold =      1.0E-07
     mixing beta               =       0.7000
     number of iterations used =            8  plain     mixing
     Exchange-correlation=  SLA  PW   PBE  PBE
                           (   1   4   3   4   0   0   0)

     celldm(1)=   9.644400  celldm(2)=   0.000000  celldm(3)=   0.000000
     celldm(4)=   0.000000  celldm(5)=   0.000000  celldm(6)=   0.000000

     crystal axes: (cart. coord. in units of alat)
               a(1) = (  -0.500000   0.000000   0.500000 )  
               a(2) = (   0.000000   0.500000   0.500000 )  
               a(3) = (  -0.500000   0.500000   0.000000 )  

     reciprocal axes: (cart. coord. in units 2 pi/alat)
               b(1) = ( -1.000000 -1.000000  1.000000 )  
               b(2) = (  1.000000  1.000000  1.000000 )  
               b(3) = ( -1.000000  1.000000 -1.000000 )  


     PseudoPot. # 1 for Si read from file:
     ./Si.pbe-n-van.UPF
     MD5 check sum: 8a97496598b7338af554a5de8957bfee
     Pseudo is Ultrasoft + core correction, Zval =  4.0
     Generated by new atomic code, or converted to UPF format
     Using radial grid of  899 points,  6 beta functions with: 
                l(1) =   0
                l(2) =   0
                l(3) =   1
                l(4) =   1
                l(5) =   2
                l(6) =   2
     Q(r) pseudized with  8 coefficients,  rinner =    0.900   0.900   0.900
                                                       0.900   0.900

     atomic species   valence    mass     pseudopotential
     Si                4.00    28.08600     Si( 1.00)

     48 Sym. Ops., with inversion, found (24 have fractional translation)



   Cartesian axes

     site n.     atom                  positions (alat units)
         1        Si     tau(   1) = (  -0.7500000   0.7500000   0.7500000  )
         2        Si     tau(   2) = (   0.0000000   0.0000000   0.0000000  )

     number of k points=    29
                       cart. coord. in units 2pi/alat
        k(    1) = (   0.0000000   0.0000000   0.0000000), wk =   0.0039062
        k(    2) = (  -0.1250000   0.1250000  -0.1250000), wk =   0.0312500
        k(    3) = (  -0.2500000   0.2500000  -0.2500000), wk =   0.0312500
        k(    4) = (  -0.3750000   0.3750000  -0.3750000), wk =   0.0312500
        k(    5) = (   0.5000000  -0.5000000   0.5000000), wk =   0.0156250
        k(    6) = (   0.0000000   0.2500000   0.0000000), wk =   0.0234375
        k(    7) = (  -0.1250000   0.3750000  -0.1250000), wk =   0.0937500
        k(    8) = (  -0.2500000   0.5000000  -0.2500000), wk =   0.0937500
        k(    9) = (   0.6250000  -0.3750000   0.6250000), wk =   0.0937500
        k(   10) = (   0.5000000  -0.2500000   0.5000000), wk =   0.0937500
        k(   11) = (   0.3750000  -0.1250000   0.3750000), wk =   0.0937500
        k(   12) = (   0.2500000   0.0000000   0.2500000), wk =   0.0468750
        k(   13) = (   0.0000000   0.5000000   0.0000000), wk =   0.0234375
        k(   14) = (  -0.1250000   0.6250000  -0.1250000), wk =   0.0937500
        k(   15) = (   0.7500000  -0.2500000   0.7500000), wk =   0.0937500
        k(   16) = (   0.6250000  -0.1250000   0.6250000), wk =   0.0937500
        k(   17) = (   0.5000000   0.0000000   0.5000000), wk =   0.0468750
        k(   18) = (   0.0000000   0.7500000   0.0000000), wk =   0.0234375
        k(   19) = (   0.8750000  -0.1250000   0.8750000), wk =   0.0937500
        k(   20) = (   0.7500000   0.0000000   0.7500000), wk =   0.0468750
        k(   21) = (   0.0000000  -1.0000000   0.0000000), wk =   0.0117188
        k(   22) = (  -0.2500000   0.5000000   0.0000000), wk =   0.0937500
        k(   23) = (   0.6250000  -0.3750000   0.8750000), wk =   0.1875000
        k(   24) = (   0.5000000  -0.2500000   0.7500000), wk =   0.0937500
        k(   25) = (   0.7500000  -0.2500000   1.0000000), wk =   0.0937500
        k(   26) = (   0.6250000  -0.1250000   0.8750000), wk =   0.1875000
        k(   27) = (   0.5000000   0.0000000   0.7500000), wk =   0.0937500
        k(   28) = (  -0.2500000  -1.0000000   0.0000000), wk =   0.0468750
        k(   29) = (  -0.5000000  -1.0000000   0.0000000), wk =   0.0234375

     Dense  grid:    14163 G-vectors     FFT dimensions: (  36,  36,  36)

     Estimated max dynamical RAM per process >       2.30 MB

     Estimated total dynamical RAM >     270.28 MB

     Initial potential from superposition of free atoms

     starting charge       7.9987, renormalised to       8.0000
     Starting wfcs are    8 randomized atomic wfcs

     total cpu time spent up to now is        0.6 secs

     per-process dynamical memory:     9.9 Mb

     Self-consistent Calculation

     iteration #  1     ecut=    60.00 Ry     beta= 0.70
     Davidson diagonalization with overlap
     ethr =  1.00E-02,  avg # of iterations =  2.0

     Threshold (ethr) on eigenvalues was too large:
     Diagonalizing with lowered threshold

     Davidson diagonalization with overlap
     ethr =  8.77E-04,  avg # of iterations =  1.0

     total cpu time spent up to now is        0.7 secs

     total energy              =     -19.14655208 Ry
     estimated scf accuracy    <       0.07475707 Ry

     iteration #  2     ecut=    60.00 Ry     beta= 0.70
     Davidson diagonalization with overlap
     ethr =  9.34E-04,  avg # of iterations =  1.0

     total cpu time spent up to now is        0.7 secs

     total energy              =     -19.15060462 Ry
     estimated scf accuracy    <       0.00233706 Ry

     iteration #  3     ecut=    60.00 Ry     beta= 0.70
     Davidson diagonalization with overlap
     ethr =  2.92E-05,  avg # of iterations =  2.3

     total cpu time spent up to now is        0.8 secs

     total energy              =     -19.15130169 Ry
     estimated scf accuracy    <       0.00005897 Ry

     iteration #  4     ecut=    60.00 Ry     beta= 0.70
     Davidson diagonalization with overlap
     ethr =  7.37E-07,  avg # of iterations =  5.4

     total cpu time spent up to now is        0.8 secs

     total energy              =     -19.15136821 Ry
     estimated scf accuracy    <       0.00000093 Ry

     iteration #  5     ecut=    60.00 Ry     beta= 0.70
     Davidson diagonalization with overlap
     ethr =  1.16E-08,  avg # of iterations =  5.0

     total cpu time spent up to now is        0.8 secs

     End of self-consistent calculation

          k = 0.0000 0.0000 0.0000 (  1807 PWs)   bands (ev):

    -5.0371   8.3148   8.3148   8.3148

          k =-0.1250 0.1250-0.1250 (  1777 PWs)   bands (ev):

    -4.7983   6.5945   7.9669   7.9669

          k =-0.2500 0.2500-0.2500 (  1778 PWs)   bands (ev):

    -4.0972   3.9666   7.4290   7.4290

          k =-0.3750 0.3750-0.3750 (  1763 PWs)   bands (ev):

    -3.0198   1.6182   7.0698   7.0698

          k = 0.5000-0.5000 0.5000 (  1772 PWs)   bands (ev):

    -2.1910   0.3538   6.9497   6.9497

          k = 0.0000 0.2500 0.0000 (  1780 PWs)   bands (ev):

    -4.7181   7.1105   7.3203   7.3203

          k =-0.1250 0.3750-0.1250 (  1776 PWs)   bands (ev):

    -4.1682   4.8636   6.7256   6.9437

          k =-0.2500 0.5000-0.2500 (  1762 PWs)   bands (ev):

    -3.1977   2.4547   6.2727   6.4331

          k = 0.6250-0.3750 0.6250 (  1758 PWs)   bands (ev):

    -2.1124   0.6754   5.7424   6.4854

          k = 0.5000-0.2500 0.5000 (  1762 PWs)   bands (ev):

    -2.4322   1.1399   5.4958   6.8525

          k = 0.3750-0.1250 0.3750 (  1765 PWs)   bands (ev):

    -3.5641   3.2320   5.6119   7.4413

          k = 0.2500 0.0000 0.2500 (  1769 PWs)   bands (ev):

    -4.4041   5.4992   6.3214   8.0069

          k = 0.0000 0.5000 0.0000 (  1748 PWs)   bands (ev):

    -3.7714   4.7967   6.0492   6.0492

          k =-0.1250 0.6250-0.1250 (  1755 PWs)   bands (ev):

    -2.9336   3.1130   5.1404   5.6863

          k = 0.7500-0.2500 0.7500 (  1762 PWs)   bands (ev):

    -1.8031   1.3396   4.1405   5.7027

          k = 0.6250-0.1250 0.6250 (  1757 PWs)   bands (ev):

    -1.5242   0.9914   3.5776   6.0894

          k = 0.5000 0.0000 0.5000 (  1750 PWs)   bands (ev):

    -2.6164   2.4291   3.7917   6.7645

          k = 0.0000 0.7500 0.0000 (  1744 PWs)   bands (ev):

    -2.2321   2.2522   5.2212   5.2212

          k = 0.8750-0.1250 0.8750 (  1747 PWs)   bands (ev):

    -1.1631   0.9964   4.1571   5.1372

          k = 0.7500 0.0000 0.7500 (  1752 PWs)   bands (ev):

    -0.5601   0.4848   3.0562   5.4446

          k = 0.0000-1.0000 0.0000 (  1756 PWs)   bands (ev):

    -0.1750  -0.1750   4.9387   4.9387

          k =-0.2500 0.5000 0.0000 (  1769 PWs)   bands (ev):

    -3.4755   3.7980   5.0418   6.6478

          k = 0.6250-0.3750 0.8750 (  1760 PWs)   bands (ev):

    -2.4071   1.9287   4.4223   6.0039

          k = 0.5000-0.2500 0.7500 (  1762 PWs)   bands (ev):

    -1.5685   0.7284   4.3250   5.7059

          k = 0.7500-0.2500 1.0000 (  1753 PWs)   bands (ev):

    -1.9821   2.0042   4.2681   4.9623

          k = 0.6250-0.1250 0.8750 (  1756 PWs)   bands (ev):

    -0.8963   0.8423   3.3974   4.7189

          k = 0.5000 0.0000 0.7500 (  1768 PWs)   bands (ev):

    -1.3156   1.2592   3.1841   5.1861

          k =-0.2500-1.0000 0.0000 (  1750 PWs)   bands (ev):

    -0.0511  -0.0511   4.1770   4.1770

          k =-0.5000-1.0000 0.0000 (  1768 PWs)   bands (ev):

     0.0932   0.0932   3.5964   3.5964

     highest occupied level (ev):     8.3148

!    total energy              =     -19.15136973 Ry
     estimated scf accuracy    <       0.00000006 Ry

     The total energy is the sum of the following terms:
     one-electron contribution =       6.62475108 Ry
     hartree contribution      =       0.95986103 Ry
     xc contribution           =      -8.86265251 Ry
     ewald contribution        =     -17.87332934 Ry

     convergence has been achieved in   5 iterations

     Writing all to output data dir ./si-dia/si-dia.save/ :
     XML data file, charge density, pseudopotentials, collected wavefunctions

     init_run     :      0.32s CPU      0.37s WALL (       1 calls)
     electrons    :      0.13s CPU      0.18s WALL (       1 calls)

     Called by init_run:
     wfcinit      :      0.01s CPU      0.01s WALL (       1 calls)
     potinit      :      0.01s CPU      0.02s WALL (       1 calls)
     hinit0       :      0.28s CPU      0.29s WALL (       1 calls)

     Called by electrons:
     c_bands      :      0.07s CPU      0.09s WALL (       6 calls)
     sum_band     :      0.02s CPU      0.03s WALL (       6 calls)
     v_of_rho     :      0.02s CPU      0.02s WALL (       6 calls)
     newd         :      0.01s CPU      0.01s WALL (       6 calls)
     mix_rho      :      0.00s CPU      0.00s WALL (       6 calls)

     Called by c_bands:
     init_us_2    :      0.00s CPU      0.00s WALL (      52 calls)
     cegterg      :      0.06s CPU      0.08s WALL (      24 calls)

     Called by *egterg:
     cdiaghg      :      0.00s CPU      0.01s WALL (      95 calls)
     h_psi        :      0.05s CPU      0.07s WALL (     103 calls)
     s_psi        :      0.00s CPU      0.00s WALL (     103 calls)
     g_psi        :      0.00s CPU      0.00s WALL (      75 calls)

     Called by h_psi:
     h_psi:calbec :      0.00s CPU      0.01s WALL (     103 calls)
     vloc_psi     :      0.05s CPU      0.06s WALL (     103 calls)
     add_vuspsi   :      0.00s CPU      0.00s WALL (     103 calls)

     General routines
     calbec       :      0.01s CPU      0.01s WALL (     127 calls)
     fft          :      0.26s CPU      0.26s WALL (      67 calls)
     ffts         :      0.00s CPU      0.00s WALL (       6 calls)
     fftw         :      0.05s CPU      0.06s WALL (     818 calls)

     Parallel routines

     PWSCF        :      0.67s CPU      0.93s WALL


   This run was terminated on:  15:28:26   6Feb2026            

=------------------------------------------------------------------------------=
   JOB DONE.
=------------------------------------------------------------------------------=
