
     Program PWSCF v.7.3.1 starts on  9Feb2026 at 14:44: 0 

     This program is part of the open-source Quantum ESPRESSO suite
     for quantum simulation of materials; please cite
         "P. Giannozzi et al., J. Phys.:Condens. Matter 21 395502 (2009);
         "P. Giannozzi et al., J. Phys.:Condens. Matter 29 465901 (2017);
         "P. Giannozzi et al., J. Chem. Phys. 152 154105 (2020);
          URL http://www.quantum-espresso.org", 
     in publications or presentations arising from this work. More details at
     http://www.quantum-espresso.org/quote

     Parallel version (MPI), running on   128 processors

     MPI processes distributed on     1 nodes
     241457 MiB available memory on the printing compute node when the environment starts

     Waiting for input...
     Reading input from standard input

     Current dimensions of program PWSCF are:
     Max number of different atomic species (ntypx) = 10
     Max number of k-points (npk) =  40000
     Max angular momentum in pseudopotentials (lmaxx) =  4

     K-points division:     npool     =       8
     R & G space division:  proc/nbgrp/npool/nimage =      16
     Subspace diagonalization in iterative solution of the eigenvalue problem:
     a serial algorithm will be used


     Parallelization info
     --------------------
     sticks:   dense  smooth     PW     G-vecs:    dense   smooth      PW
     Min          48      48     15                  897      897     152
     Max          49      49     16                  901      901     155
     Sum         769     769    241                14361    14361    2445

     Using Slab Decomposition



     bravais-lattice index     =            2
     lattice parameter (alat)  =       9.7573  a.u.
     unit-cell volume          =     232.2328 (a.u.)^3
     number of atoms/cell      =            2
     number of atomic types    =            1
     number of electrons       =         8.00
     number of Kohn-Sham states=            4
     kinetic-energy cutoff     =      60.0000  Ry
     charge density cutoff     =     240.0000  Ry
     scf convergence threshold =      1.0E-07
     mixing beta               =       0.7000
     number of iterations used =            8  plain     mixing
     Exchange-correlation=  SLA  PW   PBE  PBE
                           (   1   4   3   4   0   0   0)

     celldm(1)=   9.757260  celldm(2)=   0.000000  celldm(3)=   0.000000
     celldm(4)=   0.000000  celldm(5)=   0.000000  celldm(6)=   0.000000

     crystal axes: (cart. coord. in units of alat)
               a(1) = (  -0.500000   0.000000   0.500000 )  
               a(2) = (   0.000000   0.500000   0.500000 )  
               a(3) = (  -0.500000   0.500000   0.000000 )  

     reciprocal axes: (cart. coord. in units 2 pi/alat)
               b(1) = ( -1.000000 -1.000000  1.000000 )  
               b(2) = (  1.000000  1.000000  1.000000 )  
               b(3) = ( -1.000000  1.000000 -1.000000 )  


     PseudoPot. # 1 for Si read from file:
     ./Si.pbe-n-van.UPF
     MD5 check sum: 8a97496598b7338af554a5de8957bfee
     Pseudo is Ultrasoft + core correction, Zval =  4.0
     Generated by new atomic code, or converted to UPF format
     Using radial grid of  899 points,  6 beta functions with: 
                l(1) =   0
                l(2) =   0
                l(3) =   1
                l(4) =   1
                l(5) =   2
                l(6) =   2
     Q(r) pseudized with  8 coefficients,  rinner =    0.900   0.900   0.900
                                                       0.900   0.900

     atomic species   valence    mass     pseudopotential
     Si                4.00    28.08600     Si( 1.00)

     48 Sym. Ops., with inversion, found (24 have fractional translation)



   Cartesian axes

     site n.     atom                  positions (alat units)
         1        Si     tau(   1) = (  -0.7500000   0.7500000   0.7500000  )
         2        Si     tau(   2) = (   0.0000000   0.0000000   0.0000000  )

     number of k points=    29
                       cart. coord. in units 2pi/alat
        k(    1) = (   0.0000000   0.0000000   0.0000000), wk =   0.0039062
        k(    2) = (  -0.1250000   0.1250000  -0.1250000), wk =   0.0312500
        k(    3) = (  -0.2500000   0.2500000  -0.2500000), wk =   0.0312500
        k(    4) = (  -0.3750000   0.3750000  -0.3750000), wk =   0.0312500
        k(    5) = (   0.5000000  -0.5000000   0.5000000), wk =   0.0156250
        k(    6) = (   0.0000000   0.2500000   0.0000000), wk =   0.0234375
        k(    7) = (  -0.1250000   0.3750000  -0.1250000), wk =   0.0937500
        k(    8) = (  -0.2500000   0.5000000  -0.2500000), wk =   0.0937500
        k(    9) = (   0.6250000  -0.3750000   0.6250000), wk =   0.0937500
        k(   10) = (   0.5000000  -0.2500000   0.5000000), wk =   0.0937500
        k(   11) = (   0.3750000  -0.1250000   0.3750000), wk =   0.0937500
        k(   12) = (   0.2500000   0.0000000   0.2500000), wk =   0.0468750
        k(   13) = (   0.0000000   0.5000000   0.0000000), wk =   0.0234375
        k(   14) = (  -0.1250000   0.6250000  -0.1250000), wk =   0.0937500
        k(   15) = (   0.7500000  -0.2500000   0.7500000), wk =   0.0937500
        k(   16) = (   0.6250000  -0.1250000   0.6250000), wk =   0.0937500
        k(   17) = (   0.5000000   0.0000000   0.5000000), wk =   0.0468750
        k(   18) = (   0.0000000   0.7500000   0.0000000), wk =   0.0234375
        k(   19) = (   0.8750000  -0.1250000   0.8750000), wk =   0.0937500
        k(   20) = (   0.7500000   0.0000000   0.7500000), wk =   0.0468750
        k(   21) = (   0.0000000  -1.0000000   0.0000000), wk =   0.0117188
        k(   22) = (  -0.2500000   0.5000000   0.0000000), wk =   0.0937500
        k(   23) = (   0.6250000  -0.3750000   0.8750000), wk =   0.1875000
        k(   24) = (   0.5000000  -0.2500000   0.7500000), wk =   0.0937500
        k(   25) = (   0.7500000  -0.2500000   1.0000000), wk =   0.0937500
        k(   26) = (   0.6250000  -0.1250000   0.8750000), wk =   0.1875000
        k(   27) = (   0.5000000   0.0000000   0.7500000), wk =   0.0937500
        k(   28) = (  -0.2500000  -1.0000000   0.0000000), wk =   0.0468750
        k(   29) = (  -0.5000000  -1.0000000   0.0000000), wk =   0.0234375

     Dense  grid:    14361 G-vectors     FFT dimensions: (  36,  36,  36)

     Estimated max dynamical RAM per process >       2.32 MB

     Estimated total dynamical RAM >     271.76 MB

     Initial potential from superposition of free atoms

     starting charge       7.9987, renormalised to       8.0000
     Starting wfcs are    8 randomized atomic wfcs

     total cpu time spent up to now is        0.7 secs

     per-process dynamical memory:     9.9 Mb

     Self-consistent Calculation

     iteration #  1     ecut=    60.00 Ry     beta= 0.70
     Davidson diagonalization with overlap
     ethr =  1.00E-02,  avg # of iterations =  2.0

     Threshold (ethr) on eigenvalues was too large:
     Diagonalizing with lowered threshold

     Davidson diagonalization with overlap
     ethr =  8.31E-04,  avg # of iterations =  1.0

     total cpu time spent up to now is        0.7 secs

     total energy              =     -19.16061391 Ry
     estimated scf accuracy    <       0.07096338 Ry

     iteration #  2     ecut=    60.00 Ry     beta= 0.70
     Davidson diagonalization with overlap
     ethr =  8.87E-04,  avg # of iterations =  1.0

     total cpu time spent up to now is        0.7 secs

     total energy              =     -19.16425320 Ry
     estimated scf accuracy    <       0.00236055 Ry

     iteration #  3     ecut=    60.00 Ry     beta= 0.70
     Davidson diagonalization with overlap
     ethr =  2.95E-05,  avg # of iterations =  2.3

     total cpu time spent up to now is        0.8 secs

     total energy              =     -19.16488243 Ry
     estimated scf accuracy    <       0.00005602 Ry

     iteration #  4     ecut=    60.00 Ry     beta= 0.70
     Davidson diagonalization with overlap
     ethr =  7.00E-07,  avg # of iterations =  5.4

     total cpu time spent up to now is        0.8 secs

     total energy              =     -19.16494597 Ry
     estimated scf accuracy    <       0.00000075 Ry

     iteration #  5     ecut=    60.00 Ry     beta= 0.70
     Davidson diagonalization with overlap
     ethr =  9.39E-09,  avg # of iterations =  5.3

     total cpu time spent up to now is        0.8 secs

     End of self-consistent calculation

          k = 0.0000 0.0000 0.0000 (  1837 PWs)   bands (ev):

    -5.1836   7.8903   7.8903   7.8903

          k =-0.1250 0.1250-0.1250 (  1841 PWs)   bands (ev):

    -4.9515   6.2010   7.5541   7.5541

          k =-0.2500 0.2500-0.2500 (  1847 PWs)   bands (ev):

    -4.2711   3.6323   7.0288   7.0288

          k =-0.3750 0.3750-0.3750 (  1838 PWs)   bands (ev):

    -3.2300   1.3480   6.6751   6.6751

          k = 0.5000-0.5000 0.5000 (  1802 PWs)   bands (ev):

    -2.4410   0.1331   6.5562   6.5562

          k = 0.0000 0.2500 0.0000 (  1840 PWs)   bands (ev):

    -4.8736   6.6673   6.9336   6.9336

          k =-0.1250 0.3750-0.1250 (  1824 PWs)   bands (ev):

    -4.3396   4.4933   6.3549   6.5419

          k =-0.2500 0.5000-0.2500 (  1840 PWs)   bands (ev):

    -3.3997   2.1513   5.8873   6.0667

          k = 0.6250-0.3750 0.6250 (  1823 PWs)   bands (ev):

    -2.3600   0.4351   5.3743   6.1130

          k = 0.5000-0.2500 0.5000 (  1823 PWs)   bands (ev):

    -2.6641   0.8804   5.1409   6.4657

          k = 0.3750-0.1250 0.3750 (  1839 PWs)   bands (ev):

    -3.7543   2.9059   5.2640   7.0350

          k = 0.2500 0.0000 0.2500 (  1839 PWs)   bands (ev):

    -4.5687   5.1083   5.9700   7.5840

          k = 0.0000 0.5000 0.0000 (  1828 PWs)   bands (ev):

    -3.9538   4.3771   5.6992   5.6992

          k =-0.1250 0.6250-0.1250 (  1825 PWs)   bands (ev):

    -3.1411   2.7462   4.8145   5.3448

          k = 0.7500-0.2500 0.7500 (  1821 PWs)   bands (ev):

    -2.0515   1.0401   3.8404   5.3583

          k = 0.6250-0.1250 0.6250 (  1817 PWs)   bands (ev):

    -1.7884   0.7111   3.2980   5.7314

          k = 0.5000 0.0000 0.5000 (  1829 PWs)   bands (ev):

    -2.8370   2.0905   3.5200   6.3832

          k = 0.0000 0.7500 0.0000 (  1808 PWs)   bands (ev):

    -2.4590   1.8945   4.8927   4.8927

          k = 0.8750-0.1250 0.8750 (  1806 PWs)   bands (ev):

    -1.4240   0.6719   3.8770   4.8101

          k = 0.7500 0.0000 0.7500 (  1822 PWs)   bands (ev):

    -0.8559   0.1840   2.8241   5.1077

          k = 0.0000-1.0000 0.0000 (  1772 PWs)   bands (ev):

    -0.4624  -0.4624   4.6173   4.6173

          k =-0.2500 0.5000 0.0000 (  1833 PWs)   bands (ev):

    -3.6674   3.4250   4.7286   6.2698

          k = 0.6250-0.3750 0.8750 (  1820 PWs)   bands (ev):

    -2.6347   1.6202   4.1080   5.6556

          k = 0.5000-0.2500 0.7500 (  1808 PWs)   bands (ev):

    -1.8349   0.4722   4.0036   5.3719

          k = 0.7500-0.2500 1.0000 (  1821 PWs)   bands (ev):

    -2.2193   1.6513   3.9796   4.6576

          k = 0.6250-0.1250 0.8750 (  1819 PWs)   bands (ev):

    -1.1765   0.5293   3.1433   4.4222

          k = 0.5000 0.0000 0.7500 (  1823 PWs)   bands (ev):

    -1.5819   0.9351   2.9398   4.8708

          k =-0.2500-1.0000 0.0000 (  1810 PWs)   bands (ev):

    -0.3483  -0.3483   3.8968   3.8968

          k =-0.5000-1.0000 0.0000 (  1800 PWs)   bands (ev):

    -0.2172  -0.2172   3.3465   3.3465

     highest occupied level (ev):     7.8903

!    total energy              =     -19.16494738 Ry
     estimated scf accuracy    <       0.00000006 Ry

     The total energy is the sum of the following terms:
     one-electron contribution =       6.32868292 Ry
     hartree contribution      =       0.98865976 Ry
     xc contribution           =      -8.81569745 Ry
     ewald contribution        =     -17.66659261 Ry

     convergence has been achieved in   5 iterations

     Writing all to output data dir ./si-dia/si-dia.save/ :
     XML data file, charge density, pseudopotentials, collected wavefunctions

     init_run     :      0.33s CPU      0.38s WALL (       1 calls)
     electrons    :      0.12s CPU      0.19s WALL (       1 calls)

     Called by init_run:
     wfcinit      :      0.01s CPU      0.02s WALL (       1 calls)
     potinit      :      0.01s CPU      0.02s WALL (       1 calls)
     hinit0       :      0.29s CPU      0.30s WALL (       1 calls)

     Called by electrons:
     c_bands      :      0.07s CPU      0.09s WALL (       6 calls)
     sum_band     :      0.02s CPU      0.03s WALL (       6 calls)
     v_of_rho     :      0.02s CPU      0.03s WALL (       6 calls)
     newd         :      0.00s CPU      0.01s WALL (       6 calls)
     mix_rho      :      0.00s CPU      0.00s WALL (       6 calls)

     Called by c_bands:
     init_us_2    :      0.00s CPU      0.00s WALL (      52 calls)
     cegterg      :      0.06s CPU      0.08s WALL (      24 calls)

     Called by *egterg:
     cdiaghg      :      0.00s CPU      0.01s WALL (      95 calls)
     h_psi        :      0.06s CPU      0.07s WALL (     103 calls)
     s_psi        :      0.00s CPU      0.00s WALL (     103 calls)
     g_psi        :      0.00s CPU      0.00s WALL (      75 calls)

     Called by h_psi:
     h_psi:calbec :      0.01s CPU      0.01s WALL (     103 calls)
     vloc_psi     :      0.05s CPU      0.06s WALL (     103 calls)
     add_vuspsi   :      0.00s CPU      0.00s WALL (     103 calls)

     General routines
     calbec       :      0.01s CPU      0.01s WALL (     127 calls)
     fft          :      0.26s CPU      0.26s WALL (      67 calls)
     ffts         :      0.00s CPU      0.00s WALL (       6 calls)
     fftw         :      0.05s CPU      0.06s WALL (     828 calls)

     Parallel routines

     PWSCF        :      0.65s CPU      0.97s WALL


   This run was terminated on:  14:44: 1   9Feb2026            

=------------------------------------------------------------------------------=
   JOB DONE.
=------------------------------------------------------------------------------=
