
     Program PWSCF v.7.3.1 starts on  6Feb2026 at 15:29:20 

     This program is part of the open-source Quantum ESPRESSO suite
     for quantum simulation of materials; please cite
         "P. Giannozzi et al., J. Phys.:Condens. Matter 21 395502 (2009);
         "P. Giannozzi et al., J. Phys.:Condens. Matter 29 465901 (2017);
         "P. Giannozzi et al., J. Chem. Phys. 152 154105 (2020);
          URL http://www.quantum-espresso.org", 
     in publications or presentations arising from this work. More details at
     http://www.quantum-espresso.org/quote

     Parallel version (MPI), running on   128 processors

     MPI processes distributed on     1 nodes
     241360 MiB available memory on the printing compute node when the environment starts

     Waiting for input...
     Reading input from standard input

     Current dimensions of program PWSCF are:
     Max number of different atomic species (ntypx) = 10
     Max number of k-points (npk) =  40000
     Max angular momentum in pseudopotentials (lmaxx) =  4

     K-points division:     npool     =       8
     R & G space division:  proc/nbgrp/npool/nimage =      16
     Subspace diagonalization in iterative solution of the eigenvalue problem:
     a serial algorithm will be used


     Parallelization info
     --------------------
     sticks:   dense  smooth     PW     G-vecs:    dense   smooth      PW
     Min          50      50     15                  927      927     152
     Max          51      51     16                  928      928     155
     Sum         805     805    241                14841    14841    2445

     Using Slab Decomposition



     bravais-lattice index     =            2
     lattice parameter (alat)  =       9.8086  a.u.
     unit-cell volume          =     235.9151 (a.u.)^3
     number of atoms/cell      =            2
     number of atomic types    =            1
     number of electrons       =         8.00
     number of Kohn-Sham states=            4
     kinetic-energy cutoff     =      60.0000  Ry
     charge density cutoff     =     240.0000  Ry
     scf convergence threshold =      1.0E-07
     mixing beta               =       0.7000
     number of iterations used =            8  plain     mixing
     Exchange-correlation=  SLA  PW   PBE  PBE
                           (   1   4   3   4   0   0   0)

     celldm(1)=   9.808560  celldm(2)=   0.000000  celldm(3)=   0.000000
     celldm(4)=   0.000000  celldm(5)=   0.000000  celldm(6)=   0.000000

     crystal axes: (cart. coord. in units of alat)
               a(1) = (  -0.500000   0.000000   0.500000 )  
               a(2) = (   0.000000   0.500000   0.500000 )  
               a(3) = (  -0.500000   0.500000   0.000000 )  

     reciprocal axes: (cart. coord. in units 2 pi/alat)
               b(1) = ( -1.000000 -1.000000  1.000000 )  
               b(2) = (  1.000000  1.000000  1.000000 )  
               b(3) = ( -1.000000  1.000000 -1.000000 )  


     PseudoPot. # 1 for Si read from file:
     ./Si.pbe-n-van.UPF
     MD5 check sum: 8a97496598b7338af554a5de8957bfee
     Pseudo is Ultrasoft + core correction, Zval =  4.0
     Generated by new atomic code, or converted to UPF format
     Using radial grid of  899 points,  6 beta functions with: 
                l(1) =   0
                l(2) =   0
                l(3) =   1
                l(4) =   1
                l(5) =   2
                l(6) =   2
     Q(r) pseudized with  8 coefficients,  rinner =    0.900   0.900   0.900
                                                       0.900   0.900

     atomic species   valence    mass     pseudopotential
     Si                4.00    28.08600     Si( 1.00)

     48 Sym. Ops., with inversion, found (24 have fractional translation)



   Cartesian axes

     site n.     atom                  positions (alat units)
         1        Si     tau(   1) = (  -0.7500000   0.7500000   0.7500000  )
         2        Si     tau(   2) = (   0.0000000   0.0000000   0.0000000  )

     number of k points=    29
                       cart. coord. in units 2pi/alat
        k(    1) = (   0.0000000   0.0000000   0.0000000), wk =   0.0039062
        k(    2) = (  -0.1250000   0.1250000  -0.1250000), wk =   0.0312500
        k(    3) = (  -0.2500000   0.2500000  -0.2500000), wk =   0.0312500
        k(    4) = (  -0.3750000   0.3750000  -0.3750000), wk =   0.0312500
        k(    5) = (   0.5000000  -0.5000000   0.5000000), wk =   0.0156250
        k(    6) = (   0.0000000   0.2500000   0.0000000), wk =   0.0234375
        k(    7) = (  -0.1250000   0.3750000  -0.1250000), wk =   0.0937500
        k(    8) = (  -0.2500000   0.5000000  -0.2500000), wk =   0.0937500
        k(    9) = (   0.6250000  -0.3750000   0.6250000), wk =   0.0937500
        k(   10) = (   0.5000000  -0.2500000   0.5000000), wk =   0.0937500
        k(   11) = (   0.3750000  -0.1250000   0.3750000), wk =   0.0937500
        k(   12) = (   0.2500000   0.0000000   0.2500000), wk =   0.0468750
        k(   13) = (   0.0000000   0.5000000   0.0000000), wk =   0.0234375
        k(   14) = (  -0.1250000   0.6250000  -0.1250000), wk =   0.0937500
        k(   15) = (   0.7500000  -0.2500000   0.7500000), wk =   0.0937500
        k(   16) = (   0.6250000  -0.1250000   0.6250000), wk =   0.0937500
        k(   17) = (   0.5000000   0.0000000   0.5000000), wk =   0.0468750
        k(   18) = (   0.0000000   0.7500000   0.0000000), wk =   0.0234375
        k(   19) = (   0.8750000  -0.1250000   0.8750000), wk =   0.0937500
        k(   20) = (   0.7500000   0.0000000   0.7500000), wk =   0.0468750
        k(   21) = (   0.0000000  -1.0000000   0.0000000), wk =   0.0117188
        k(   22) = (  -0.2500000   0.5000000   0.0000000), wk =   0.0937500
        k(   23) = (   0.6250000  -0.3750000   0.8750000), wk =   0.1875000
        k(   24) = (   0.5000000  -0.2500000   0.7500000), wk =   0.0937500
        k(   25) = (   0.7500000  -0.2500000   1.0000000), wk =   0.0937500
        k(   26) = (   0.6250000  -0.1250000   0.8750000), wk =   0.1875000
        k(   27) = (   0.5000000   0.0000000   0.7500000), wk =   0.0937500
        k(   28) = (  -0.2500000  -1.0000000   0.0000000), wk =   0.0468750
        k(   29) = (  -0.5000000  -1.0000000   0.0000000), wk =   0.0234375

     Dense  grid:    14841 G-vectors     FFT dimensions: (  36,  36,  36)

     Estimated max dynamical RAM per process >       2.34 MB

     Estimated total dynamical RAM >     274.19 MB

     Initial potential from superposition of free atoms

     starting charge       7.9987, renormalised to       8.0000
     Starting wfcs are    8 randomized atomic wfcs

     total cpu time spent up to now is        0.7 secs

     per-process dynamical memory:     9.9 Mb

     Self-consistent Calculation

     iteration #  1     ecut=    60.00 Ry     beta= 0.70
     Davidson diagonalization with overlap
     ethr =  1.00E-02,  avg # of iterations =  2.0

     Threshold (ethr) on eigenvalues was too large:
     Diagonalizing with lowered threshold

     Davidson diagonalization with overlap
     ethr =  8.12E-04,  avg # of iterations =  1.0

     total cpu time spent up to now is        0.7 secs

     total energy              =     -19.16597149 Ry
     estimated scf accuracy    <       0.06932709 Ry

     iteration #  2     ecut=    60.00 Ry     beta= 0.70
     Davidson diagonalization with overlap
     ethr =  8.67E-04,  avg # of iterations =  1.0

     total cpu time spent up to now is        0.8 secs

     total energy              =     -19.16944609 Ry
     estimated scf accuracy    <       0.00236706 Ry

     iteration #  3     ecut=    60.00 Ry     beta= 0.70
     Davidson diagonalization with overlap
     ethr =  2.96E-05,  avg # of iterations =  2.3

     total cpu time spent up to now is        0.8 secs

     total energy              =     -19.17004944 Ry
     estimated scf accuracy    <       0.00005474 Ry

     iteration #  4     ecut=    60.00 Ry     beta= 0.70
     Davidson diagonalization with overlap
     ethr =  6.84E-07,  avg # of iterations =  5.5

     total cpu time spent up to now is        0.8 secs

     total energy              =     -19.17011101 Ry
     estimated scf accuracy    <       0.00000070 Ry

     iteration #  5     ecut=    60.00 Ry     beta= 0.70
     Davidson diagonalization with overlap
     ethr =  8.71E-09,  avg # of iterations =  5.2

     total cpu time spent up to now is        0.8 secs

     End of self-consistent calculation

          k = 0.0000 0.0000 0.0000 (  1837 PWs)   bands (ev):

    -5.2479   7.7033   7.7033   7.7033

          k =-0.1250 0.1250-0.1250 (  1868 PWs)   bands (ev):

    -5.0189   6.0268   7.3723   7.3723

          k =-0.2500 0.2500-0.2500 (  1880 PWs)   bands (ev):

    -4.3476   3.4843   6.8526   6.8526

          k =-0.3750 0.3750-0.3750 (  1859 PWs)   bands (ev):

    -3.3227   1.2285   6.5015   6.5015

          k = 0.5000-0.5000 0.5000 (  1850 PWs)   bands (ev):

    -2.5509   0.0353   6.3832   6.3832

          k = 0.0000 0.2500 0.0000 (  1856 PWs)   bands (ev):

    -4.9419   6.4712   6.7632   6.7632

          k =-0.1250 0.3750-0.1250 (  1858 PWs)   bands (ev):

    -4.4150   4.3290   6.1917   6.3654

          k =-0.2500 0.5000-0.2500 (  1851 PWs)   bands (ev):

    -3.4887   2.0169   5.7179   5.9054

          k = 0.6250-0.3750 0.6250 (  1849 PWs)   bands (ev):

    -2.4690   0.3286   5.2125   5.9491

          k = 0.5000-0.2500 0.5000 (  1854 PWs)   bands (ev):

    -2.7662   0.7654   4.9849   6.2955

          k = 0.3750-0.1250 0.3750 (  1864 PWs)   bands (ev):

    -3.8380   2.7613   5.1111   6.8562

          k = 0.2500 0.0000 0.2500 (  1867 PWs)   bands (ev):

    -4.6411   4.9352   5.8151   7.3979

          k = 0.0000 0.5000 0.0000 (  1828 PWs)   bands (ev):

    -4.0342   4.1917   5.5451   5.5451

          k =-0.1250 0.6250-0.1250 (  1853 PWs)   bands (ev):

    -3.2326   2.5839   4.6713   5.1946

          k = 0.7500-0.2500 0.7500 (  1857 PWs)   bands (ev):

    -2.1610   0.9073   3.7088   5.2069

          k = 0.6250-0.1250 0.6250 (  1843 PWs)   bands (ev):

    -1.9047   0.5866   3.1755   5.5739

          k = 0.5000 0.0000 0.5000 (  1845 PWs)   bands (ev):

    -2.9342   1.9407   3.4006   6.2154

          k = 0.0000 0.7500 0.0000 (  1852 PWs)   bands (ev):

    -2.5590   1.7365   4.7482   4.7482

          k = 0.8750-0.1250 0.8750 (  1843 PWs)   bands (ev):

    -1.5391   0.5287   3.7537   4.6663

          k = 0.7500 0.0000 0.7500 (  1850 PWs)   bands (ev):

    -0.9861   0.0512   2.7219   4.9595

          k = 0.0000-1.0000 0.0000 (  1868 PWs)   bands (ev):

    -0.5892  -0.5892   4.4760   4.4760

          k =-0.2500 0.5000 0.0000 (  1859 PWs)   bands (ev):

    -3.7520   3.2599   4.5907   6.1035

          k = 0.6250-0.3750 0.8750 (  1852 PWs)   bands (ev):

    -2.7351   1.4834   3.9703   5.5022

          k = 0.5000-0.2500 0.7500 (  1848 PWs)   bands (ev):

    -1.9521   0.3582   3.8628   5.2248

          k = 0.7500-0.2500 1.0000 (  1851 PWs)   bands (ev):

    -2.3239   1.4956   3.8527   4.5232

          k = 0.6250-0.1250 0.8750 (  1843 PWs)   bands (ev):

    -1.3000   0.3910   3.0316   4.2914

          k = 0.5000 0.0000 0.7500 (  1840 PWs)   bands (ev):

    -1.6992   0.7920   2.8324   4.7319

          k =-0.2500-1.0000 0.0000 (  1842 PWs)   bands (ev):

    -0.4795  -0.4795   3.7734   3.7734

          k =-0.5000-1.0000 0.0000 (  1856 PWs)   bands (ev):

    -0.3539  -0.3539   3.2362   3.2362

     highest occupied level (ev):     7.7033

!    total energy              =     -19.17011239 Ry
     estimated scf accuracy    <       0.00000006 Ry

     The total energy is the sum of the following terms:
     one-electron contribution =       6.19722625 Ry
     hartree contribution      =       1.00173532 Ry
     xc contribution           =      -8.79487984 Ry
     ewald contribution        =     -17.57419412 Ry

     convergence has been achieved in   5 iterations

     Writing all to output data dir ./si-dia/si-dia.save/ :
     XML data file, charge density, pseudopotentials, collected wavefunctions

     init_run     :      0.34s CPU      0.38s WALL (       1 calls)
     electrons    :      0.14s CPU      0.19s WALL (       1 calls)

     Called by init_run:
     wfcinit      :      0.02s CPU      0.02s WALL (       1 calls)
     potinit      :      0.00s CPU      0.02s WALL (       1 calls)
     hinit0       :      0.29s CPU      0.30s WALL (       1 calls)

     Called by electrons:
     c_bands      :      0.08s CPU      0.10s WALL (       6 calls)
     sum_band     :      0.02s CPU      0.03s WALL (       6 calls)
     v_of_rho     :      0.02s CPU      0.03s WALL (       6 calls)
     newd         :      0.00s CPU      0.01s WALL (       6 calls)
     mix_rho      :      0.00s CPU      0.00s WALL (       6 calls)

     Called by c_bands:
     init_us_2    :      0.00s CPU      0.00s WALL (      52 calls)
     cegterg      :      0.07s CPU      0.08s WALL (      24 calls)

     Called by *egterg:
     cdiaghg      :      0.00s CPU      0.01s WALL (      95 calls)
     h_psi        :      0.06s CPU      0.07s WALL (     103 calls)
     s_psi        :      0.00s CPU      0.00s WALL (     103 calls)
     g_psi        :      0.00s CPU      0.00s WALL (      75 calls)

     Called by h_psi:
     h_psi:calbec :      0.01s CPU      0.01s WALL (     103 calls)
     vloc_psi     :      0.05s CPU      0.06s WALL (     103 calls)
     add_vuspsi   :      0.00s CPU      0.00s WALL (     103 calls)

     General routines
     calbec       :      0.01s CPU      0.01s WALL (     127 calls)
     fft          :      0.26s CPU      0.27s WALL (      67 calls)
     ffts         :      0.00s CPU      0.00s WALL (       6 calls)
     fftw         :      0.05s CPU      0.06s WALL (     826 calls)

     Parallel routines

     PWSCF        :      0.73s CPU      0.96s WALL


   This run was terminated on:  15:29:21   6Feb2026            

=------------------------------------------------------------------------------=
   JOB DONE.
=------------------------------------------------------------------------------=
