
     Program PWSCF v.7.3.1 starts on  9Feb2026 at 14:44:16 

     This program is part of the open-source Quantum ESPRESSO suite
     for quantum simulation of materials; please cite
         "P. Giannozzi et al., J. Phys.:Condens. Matter 21 395502 (2009);
         "P. Giannozzi et al., J. Phys.:Condens. Matter 29 465901 (2017);
         "P. Giannozzi et al., J. Chem. Phys. 152 154105 (2020);
          URL http://www.quantum-espresso.org", 
     in publications or presentations arising from this work. More details at
     http://www.quantum-espresso.org/quote

     Parallel version (MPI), running on   128 processors

     MPI processes distributed on     1 nodes
     241414 MiB available memory on the printing compute node when the environment starts

     Waiting for input...
     Reading input from standard input

     Current dimensions of program PWSCF are:
     Max number of different atomic species (ntypx) = 10
     Max number of k-points (npk) =  40000
     Max angular momentum in pseudopotentials (lmaxx) =  4

     K-points division:     npool     =       8
     R & G space division:  proc/nbgrp/npool/nimage =      16
     Subspace diagonalization in iterative solution of the eigenvalue problem:
     a serial algorithm will be used


     Parallelization info
     --------------------
     sticks:   dense  smooth     PW     G-vecs:    dense   smooth      PW
     Min          50      50     15                  940      940     160
     Max          51      51     16                  943      943     162
     Sum         805     805    253                15065    15065    2565

     Using Slab Decomposition



     bravais-lattice index     =            2
     lattice parameter (alat)  =       9.8393  a.u.
     unit-cell volume          =     238.1431 (a.u.)^3
     number of atoms/cell      =            2
     number of atomic types    =            1
     number of electrons       =         8.00
     number of Kohn-Sham states=            4
     kinetic-energy cutoff     =      60.0000  Ry
     charge density cutoff     =     240.0000  Ry
     scf convergence threshold =      1.0E-07
     mixing beta               =       0.7000
     number of iterations used =            8  plain     mixing
     Exchange-correlation=  SLA  PW   PBE  PBE
                           (   1   4   3   4   0   0   0)

     celldm(1)=   9.839340  celldm(2)=   0.000000  celldm(3)=   0.000000
     celldm(4)=   0.000000  celldm(5)=   0.000000  celldm(6)=   0.000000

     crystal axes: (cart. coord. in units of alat)
               a(1) = (  -0.500000   0.000000   0.500000 )  
               a(2) = (   0.000000   0.500000   0.500000 )  
               a(3) = (  -0.500000   0.500000   0.000000 )  

     reciprocal axes: (cart. coord. in units 2 pi/alat)
               b(1) = ( -1.000000 -1.000000  1.000000 )  
               b(2) = (  1.000000  1.000000  1.000000 )  
               b(3) = ( -1.000000  1.000000 -1.000000 )  


     PseudoPot. # 1 for Si read from file:
     ./Si.pbe-n-van.UPF
     MD5 check sum: 8a97496598b7338af554a5de8957bfee
     Pseudo is Ultrasoft + core correction, Zval =  4.0
     Generated by new atomic code, or converted to UPF format
     Using radial grid of  899 points,  6 beta functions with: 
                l(1) =   0
                l(2) =   0
                l(3) =   1
                l(4) =   1
                l(5) =   2
                l(6) =   2
     Q(r) pseudized with  8 coefficients,  rinner =    0.900   0.900   0.900
                                                       0.900   0.900

     atomic species   valence    mass     pseudopotential
     Si                4.00    28.08600     Si( 1.00)

     48 Sym. Ops., with inversion, found (24 have fractional translation)



   Cartesian axes

     site n.     atom                  positions (alat units)
         1        Si     tau(   1) = (  -0.7500000   0.7500000   0.7500000  )
         2        Si     tau(   2) = (   0.0000000   0.0000000   0.0000000  )

     number of k points=    29
                       cart. coord. in units 2pi/alat
        k(    1) = (   0.0000000   0.0000000   0.0000000), wk =   0.0039062
        k(    2) = (  -0.1250000   0.1250000  -0.1250000), wk =   0.0312500
        k(    3) = (  -0.2500000   0.2500000  -0.2500000), wk =   0.0312500
        k(    4) = (  -0.3750000   0.3750000  -0.3750000), wk =   0.0312500
        k(    5) = (   0.5000000  -0.5000000   0.5000000), wk =   0.0156250
        k(    6) = (   0.0000000   0.2500000   0.0000000), wk =   0.0234375
        k(    7) = (  -0.1250000   0.3750000  -0.1250000), wk =   0.0937500
        k(    8) = (  -0.2500000   0.5000000  -0.2500000), wk =   0.0937500
        k(    9) = (   0.6250000  -0.3750000   0.6250000), wk =   0.0937500
        k(   10) = (   0.5000000  -0.2500000   0.5000000), wk =   0.0937500
        k(   11) = (   0.3750000  -0.1250000   0.3750000), wk =   0.0937500
        k(   12) = (   0.2500000   0.0000000   0.2500000), wk =   0.0468750
        k(   13) = (   0.0000000   0.5000000   0.0000000), wk =   0.0234375
        k(   14) = (  -0.1250000   0.6250000  -0.1250000), wk =   0.0937500
        k(   15) = (   0.7500000  -0.2500000   0.7500000), wk =   0.0937500
        k(   16) = (   0.6250000  -0.1250000   0.6250000), wk =   0.0937500
        k(   17) = (   0.5000000   0.0000000   0.5000000), wk =   0.0468750
        k(   18) = (   0.0000000   0.7500000   0.0000000), wk =   0.0234375
        k(   19) = (   0.8750000  -0.1250000   0.8750000), wk =   0.0937500
        k(   20) = (   0.7500000   0.0000000   0.7500000), wk =   0.0468750
        k(   21) = (   0.0000000  -1.0000000   0.0000000), wk =   0.0117188
        k(   22) = (  -0.2500000   0.5000000   0.0000000), wk =   0.0937500
        k(   23) = (   0.6250000  -0.3750000   0.8750000), wk =   0.1875000
        k(   24) = (   0.5000000  -0.2500000   0.7500000), wk =   0.0937500
        k(   25) = (   0.7500000  -0.2500000   1.0000000), wk =   0.0937500
        k(   26) = (   0.6250000  -0.1250000   0.8750000), wk =   0.1875000
        k(   27) = (   0.5000000   0.0000000   0.7500000), wk =   0.0937500
        k(   28) = (  -0.2500000  -1.0000000   0.0000000), wk =   0.0468750
        k(   29) = (  -0.5000000  -1.0000000   0.0000000), wk =   0.0234375

     Dense  grid:    15065 G-vectors     FFT dimensions: (  36,  36,  36)

     Estimated max dynamical RAM per process >       2.35 MB

     Estimated total dynamical RAM >     275.02 MB

     Initial potential from superposition of free atoms

     starting charge       7.9987, renormalised to       8.0000
     Starting wfcs are    8 randomized atomic wfcs

     total cpu time spent up to now is        0.7 secs

     per-process dynamical memory:     9.9 Mb

     Self-consistent Calculation

     iteration #  1     ecut=    60.00 Ry     beta= 0.70
     Davidson diagonalization with overlap
     ethr =  1.00E-02,  avg # of iterations =  2.0

     Threshold (ethr) on eigenvalues was too large:
     Diagonalizing with lowered threshold

     Davidson diagonalization with overlap
     ethr =  7.99E-04,  avg # of iterations =  1.0

     total cpu time spent up to now is        0.7 secs

     total energy              =     -19.16892699 Ry
     estimated scf accuracy    <       0.06829767 Ry

     iteration #  2     ecut=    60.00 Ry     beta= 0.70
     Davidson diagonalization with overlap
     ethr =  8.54E-04,  avg # of iterations =  1.0

     total cpu time spent up to now is        0.7 secs

     total energy              =     -19.17228126 Ry
     estimated scf accuracy    <       0.00237622 Ry

     iteration #  3     ecut=    60.00 Ry     beta= 0.70
     Davidson diagonalization with overlap
     ethr =  2.97E-05,  avg # of iterations =  2.2

     total cpu time spent up to now is        0.8 secs

     total energy              =     -19.17286141 Ry
     estimated scf accuracy    <       0.00005304 Ry

     iteration #  4     ecut=    60.00 Ry     beta= 0.70
     Davidson diagonalization with overlap
     ethr =  6.63E-07,  avg # of iterations =  5.6

     total cpu time spent up to now is        0.8 secs

     total energy              =     -19.17292396 Ry
     estimated scf accuracy    <       0.00000055 Ry

     iteration #  5     ecut=    60.00 Ry     beta= 0.70
     Davidson diagonalization with overlap
     ethr =  6.88E-09,  avg # of iterations =  5.9

     total cpu time spent up to now is        0.8 secs

     End of self-consistent calculation

          k = 0.0000 0.0000 0.0000 (  1893 PWs)   bands (ev):

    -5.2860   7.5926   7.5926   7.5926

          k =-0.1250 0.1250-0.1250 (  1880 PWs)   bands (ev):

    -5.0588   5.9235   7.2646   7.2646

          k =-0.2500 0.2500-0.2500 (  1880 PWs)   bands (ev):

    -4.3930   3.3965   6.7484   6.7484

          k =-0.3750 0.3750-0.3750 (  1868 PWs)   bands (ev):

    -3.3775   1.1576   6.3988   6.3988

          k = 0.5000-0.5000 0.5000 (  1892 PWs)   bands (ev):

    -2.6159  -0.0229   6.2809   6.2809

          k = 0.0000 0.2500 0.0000 (  1876 PWs)   bands (ev):

    -4.9824   6.3548   6.6623   6.6623

          k =-0.1250 0.3750-0.1250 (  1874 PWs)   bands (ev):

    -4.4597   4.2314   6.0951   6.2610

          k =-0.2500 0.5000-0.2500 (  1872 PWs)   bands (ev):

    -3.5414   1.9372   5.6178   5.8100

          k = 0.6250-0.3750 0.6250 (  1863 PWs)   bands (ev):

    -2.5335   0.2653   5.1168   5.8522

          k = 0.5000-0.2500 0.5000 (  1872 PWs)   bands (ev):

    -2.8267   0.6972   4.8927   6.1949

          k = 0.3750-0.1250 0.3750 (  1878 PWs)   bands (ev):

    -3.8876   2.6755   5.0207   6.7505

          k = 0.2500 0.0000 0.2500 (  1895 PWs)   bands (ev):

    -4.6840   4.8325   5.7235   7.2878

          k = 0.0000 0.5000 0.0000 (  1876 PWs)   bands (ev):

    -4.0817   4.0817   5.4539   5.4539

          k =-0.1250 0.6250-0.1250 (  1872 PWs)   bands (ev):

    -3.2868   2.4876   4.5866   5.1057

          k = 0.7500-0.2500 0.7500 (  1862 PWs)   bands (ev):

    -2.2258   0.8284   3.6312   5.1173

          k = 0.6250-0.1250 0.6250 (  1863 PWs)   bands (ev):

    -1.9736   0.5125   3.1033   5.4808

          k = 0.5000 0.0000 0.5000 (  1863 PWs)   bands (ev):

    -2.9918   1.8519   3.3300   6.1162

          k = 0.0000 0.7500 0.0000 (  1868 PWs)   bands (ev):

    -2.6183   1.6428   4.6628   4.6628

          k = 0.8750-0.1250 0.8750 (  1861 PWs)   bands (ev):

    -1.6073   0.4438   3.6808   4.5813

          k = 0.7500 0.0000 0.7500 (  1878 PWs)   bands (ev):

    -1.0632  -0.0276   2.6613   4.8719

          k = 0.0000-1.0000 0.0000 (  1868 PWs)   bands (ev):

    -0.6645  -0.6645   4.3924   4.3924

          k =-0.2500 0.5000 0.0000 (  1878 PWs)   bands (ev):

    -3.8021   3.1619   4.5092   6.0051

          k = 0.6250-0.3750 0.8750 (  1873 PWs)   bands (ev):

    -2.7945   1.4021   3.8889   5.4114

          k = 0.5000-0.2500 0.7500 (  1868 PWs)   bands (ev):

    -2.0215   0.2904   3.7797   5.1376

          k = 0.7500-0.2500 1.0000 (  1863 PWs)   bands (ev):

    -2.3859   1.4034   3.7776   4.4436

          k = 0.6250-0.1250 0.8750 (  1859 PWs)   bands (ev):

    -1.3731   0.3090   2.9656   4.2141

          k = 0.5000 0.0000 0.7500 (  1863 PWs)   bands (ev):

    -1.7687   0.7071   2.7689   4.6497

          k =-0.2500-1.0000 0.0000 (  1860 PWs)   bands (ev):

    -0.5572  -0.5572   3.7004   3.7004

          k =-0.5000-1.0000 0.0000 (  1856 PWs)   bands (ev):

    -0.4348  -0.4348   3.1710   3.1710

     highest occupied level (ev):     7.5926

!    total energy              =     -19.17292538 Ry
     estimated scf accuracy    <       0.00000004 Ry

     The total energy is the sum of the following terms:
     one-electron contribution =       6.11924839 Ry
     hartree contribution      =       1.00960029 Ry
     xc contribution           =      -8.78255657 Ry
     ewald contribution        =     -17.51921749 Ry

     convergence has been achieved in   5 iterations

     Writing all to output data dir ./si-dia/si-dia.save/ :
     XML data file, charge density, pseudopotentials, collected wavefunctions

     init_run     :      0.34s CPU      0.38s WALL (       1 calls)
     electrons    :      0.13s CPU      0.20s WALL (       1 calls)

     Called by init_run:
     wfcinit      :      0.01s CPU      0.02s WALL (       1 calls)
     potinit      :      0.02s CPU      0.02s WALL (       1 calls)
     hinit0       :      0.29s CPU      0.29s WALL (       1 calls)

     Called by electrons:
     c_bands      :      0.07s CPU      0.10s WALL (       6 calls)
     sum_band     :      0.02s CPU      0.03s WALL (       6 calls)
     v_of_rho     :      0.02s CPU      0.03s WALL (       6 calls)
     newd         :      0.01s CPU      0.01s WALL (       6 calls)
     mix_rho      :      0.00s CPU      0.00s WALL (       6 calls)

     Called by c_bands:
     init_us_2    :      0.00s CPU      0.00s WALL (      52 calls)
     cegterg      :      0.07s CPU      0.08s WALL (      24 calls)

     Called by *egterg:
     cdiaghg      :      0.00s CPU      0.01s WALL (      97 calls)
     h_psi        :      0.06s CPU      0.07s WALL (     105 calls)
     s_psi        :      0.00s CPU      0.00s WALL (     105 calls)
     g_psi        :      0.00s CPU      0.00s WALL (      77 calls)

     Called by h_psi:
     h_psi:calbec :      0.01s CPU      0.01s WALL (     105 calls)
     vloc_psi     :      0.05s CPU      0.06s WALL (     105 calls)
     add_vuspsi   :      0.00s CPU      0.00s WALL (     105 calls)

     General routines
     calbec       :      0.01s CPU      0.01s WALL (     129 calls)
     fft          :      0.27s CPU      0.27s WALL (      67 calls)
     ffts         :      0.00s CPU      0.00s WALL (       6 calls)
     fftw         :      0.05s CPU      0.06s WALL (     844 calls)

     Parallel routines

     PWSCF        :      0.72s CPU      0.99s WALL


   This run was terminated on:  14:44:17   9Feb2026            

=------------------------------------------------------------------------------=
   JOB DONE.
=------------------------------------------------------------------------------=
