
     Program PWSCF v.7.3.1 starts on  6Feb2026 at 15:29:36 

     This program is part of the open-source Quantum ESPRESSO suite
     for quantum simulation of materials; please cite
         "P. Giannozzi et al., J. Phys.:Condens. Matter 21 395502 (2009);
         "P. Giannozzi et al., J. Phys.:Condens. Matter 29 465901 (2017);
         "P. Giannozzi et al., J. Chem. Phys. 152 154105 (2020);
          URL http://www.quantum-espresso.org", 
     in publications or presentations arising from this work. More details at
     http://www.quantum-espresso.org/quote

     Parallel version (MPI), running on   128 processors

     MPI processes distributed on     1 nodes
     241349 MiB available memory on the printing compute node when the environment starts

     Waiting for input...
     Reading input from standard input

     Current dimensions of program PWSCF are:
     Max number of different atomic species (ntypx) = 10
     Max number of k-points (npk) =  40000
     Max angular momentum in pseudopotentials (lmaxx) =  4

     K-points division:     npool     =       8
     R & G space division:  proc/nbgrp/npool/nimage =      16
     Subspace diagonalization in iterative solution of the eigenvalue problem:
     a serial algorithm will be used


     Parallelization info
     --------------------
     sticks:   dense  smooth     PW     G-vecs:    dense   smooth      PW
     Min          50      50     15                  942      942     164
     Max          51      51     16                  945      945     166
     Sum         805     805    253                15089    15089    2637

     Using Slab Decomposition



     bravais-lattice index     =            2
     lattice parameter (alat)  =       9.8906  a.u.
     unit-cell volume          =     241.8874 (a.u.)^3
     number of atoms/cell      =            2
     number of atomic types    =            1
     number of electrons       =         8.00
     number of Kohn-Sham states=            4
     kinetic-energy cutoff     =      60.0000  Ry
     charge density cutoff     =     240.0000  Ry
     scf convergence threshold =      1.0E-07
     mixing beta               =       0.7000
     number of iterations used =            8  plain     mixing
     Exchange-correlation=  SLA  PW   PBE  PBE
                           (   1   4   3   4   0   0   0)

     celldm(1)=   9.890640  celldm(2)=   0.000000  celldm(3)=   0.000000
     celldm(4)=   0.000000  celldm(5)=   0.000000  celldm(6)=   0.000000

     crystal axes: (cart. coord. in units of alat)
               a(1) = (  -0.500000   0.000000   0.500000 )  
               a(2) = (   0.000000   0.500000   0.500000 )  
               a(3) = (  -0.500000   0.500000   0.000000 )  

     reciprocal axes: (cart. coord. in units 2 pi/alat)
               b(1) = ( -1.000000 -1.000000  1.000000 )  
               b(2) = (  1.000000  1.000000  1.000000 )  
               b(3) = ( -1.000000  1.000000 -1.000000 )  


     PseudoPot. # 1 for Si read from file:
     ./Si.pbe-n-van.UPF
     MD5 check sum: 8a97496598b7338af554a5de8957bfee
     Pseudo is Ultrasoft + core correction, Zval =  4.0
     Generated by new atomic code, or converted to UPF format
     Using radial grid of  899 points,  6 beta functions with: 
                l(1) =   0
                l(2) =   0
                l(3) =   1
                l(4) =   1
                l(5) =   2
                l(6) =   2
     Q(r) pseudized with  8 coefficients,  rinner =    0.900   0.900   0.900
                                                       0.900   0.900

     atomic species   valence    mass     pseudopotential
     Si                4.00    28.08600     Si( 1.00)

     48 Sym. Ops., with inversion, found (24 have fractional translation)



   Cartesian axes

     site n.     atom                  positions (alat units)
         1        Si     tau(   1) = (  -0.7500000   0.7500000   0.7500000  )
         2        Si     tau(   2) = (   0.0000000   0.0000000   0.0000000  )

     number of k points=    29
                       cart. coord. in units 2pi/alat
        k(    1) = (   0.0000000   0.0000000   0.0000000), wk =   0.0039062
        k(    2) = (  -0.1250000   0.1250000  -0.1250000), wk =   0.0312500
        k(    3) = (  -0.2500000   0.2500000  -0.2500000), wk =   0.0312500
        k(    4) = (  -0.3750000   0.3750000  -0.3750000), wk =   0.0312500
        k(    5) = (   0.5000000  -0.5000000   0.5000000), wk =   0.0156250
        k(    6) = (   0.0000000   0.2500000   0.0000000), wk =   0.0234375
        k(    7) = (  -0.1250000   0.3750000  -0.1250000), wk =   0.0937500
        k(    8) = (  -0.2500000   0.5000000  -0.2500000), wk =   0.0937500
        k(    9) = (   0.6250000  -0.3750000   0.6250000), wk =   0.0937500
        k(   10) = (   0.5000000  -0.2500000   0.5000000), wk =   0.0937500
        k(   11) = (   0.3750000  -0.1250000   0.3750000), wk =   0.0937500
        k(   12) = (   0.2500000   0.0000000   0.2500000), wk =   0.0468750
        k(   13) = (   0.0000000   0.5000000   0.0000000), wk =   0.0234375
        k(   14) = (  -0.1250000   0.6250000  -0.1250000), wk =   0.0937500
        k(   15) = (   0.7500000  -0.2500000   0.7500000), wk =   0.0937500
        k(   16) = (   0.6250000  -0.1250000   0.6250000), wk =   0.0937500
        k(   17) = (   0.5000000   0.0000000   0.5000000), wk =   0.0468750
        k(   18) = (   0.0000000   0.7500000   0.0000000), wk =   0.0234375
        k(   19) = (   0.8750000  -0.1250000   0.8750000), wk =   0.0937500
        k(   20) = (   0.7500000   0.0000000   0.7500000), wk =   0.0468750
        k(   21) = (   0.0000000  -1.0000000   0.0000000), wk =   0.0117188
        k(   22) = (  -0.2500000   0.5000000   0.0000000), wk =   0.0937500
        k(   23) = (   0.6250000  -0.3750000   0.8750000), wk =   0.1875000
        k(   24) = (   0.5000000  -0.2500000   0.7500000), wk =   0.0937500
        k(   25) = (   0.7500000  -0.2500000   1.0000000), wk =   0.0937500
        k(   26) = (   0.6250000  -0.1250000   0.8750000), wk =   0.1875000
        k(   27) = (   0.5000000   0.0000000   0.7500000), wk =   0.0937500
        k(   28) = (  -0.2500000  -1.0000000   0.0000000), wk =   0.0468750
        k(   29) = (  -0.5000000  -1.0000000   0.0000000), wk =   0.0234375

     Dense  grid:    15089 G-vectors     FFT dimensions: (  36,  36,  36)

     Estimated max dynamical RAM per process >       2.35 MB

     Estimated total dynamical RAM >     275.30 MB

     Initial potential from superposition of free atoms

     starting charge       7.9987, renormalised to       8.0000
     Starting wfcs are    8 randomized atomic wfcs

     total cpu time spent up to now is        0.7 secs

     per-process dynamical memory:     9.8 Mb

     Self-consistent Calculation

     iteration #  1     ecut=    60.00 Ry     beta= 0.70
     Davidson diagonalization with overlap
     ethr =  1.00E-02,  avg # of iterations =  2.0

     Threshold (ethr) on eigenvalues was too large:
     Diagonalizing with lowered threshold

     Davidson diagonalization with overlap
     ethr =  7.79E-04,  avg # of iterations =  1.0

     total cpu time spent up to now is        0.7 secs

     total energy              =     -19.17335866 Ry
     estimated scf accuracy    <       0.06665141 Ry

     iteration #  2     ecut=    60.00 Ry     beta= 0.70
     Davidson diagonalization with overlap
     ethr =  8.33E-04,  avg # of iterations =  1.0

     total cpu time spent up to now is        0.7 secs

     total energy              =     -19.17654094 Ry
     estimated scf accuracy    <       0.00238666 Ry

     iteration #  3     ecut=    60.00 Ry     beta= 0.70
     Davidson diagonalization with overlap
     ethr =  2.98E-05,  avg # of iterations =  2.2

     total cpu time spent up to now is        0.8 secs

     total energy              =     -19.17709247 Ry
     estimated scf accuracy    <       0.00005209 Ry

     iteration #  4     ecut=    60.00 Ry     beta= 0.70
     Davidson diagonalization with overlap
     ethr =  6.51E-07,  avg # of iterations =  5.6

     total cpu time spent up to now is        0.8 secs

     total energy              =     -19.17715344 Ry
     estimated scf accuracy    <       0.00000051 Ry

     iteration #  5     ecut=    60.00 Ry     beta= 0.70
     Davidson diagonalization with overlap
     ethr =  6.41E-09,  avg # of iterations =  6.0

     total cpu time spent up to now is        0.8 secs

     End of self-consistent calculation

          k = 0.0000 0.0000 0.0000 (  1917 PWs)   bands (ev):

    -5.3482   7.4113   7.4113   7.4113

          k =-0.1250 0.1250-0.1250 (  1889 PWs)   bands (ev):

    -5.1239   5.7538   7.0884   7.0884

          k =-0.2500 0.2500-0.2500 (  1898 PWs)   bands (ev):

    -4.4671   3.2523   6.5777   6.5777

          k =-0.3750 0.3750-0.3750 (  1907 PWs)   bands (ev):

    -3.4673   1.0413   6.2308   6.2308

          k = 0.5000-0.5000 0.5000 (  1892 PWs)   bands (ev):

    -2.7223  -0.1183   6.1135   6.1135

          k = 0.0000 0.2500 0.0000 (  1900 PWs)   bands (ev):

    -5.0485   6.1638   6.4971   6.4971

          k =-0.1250 0.3750-0.1250 (  1912 PWs)   bands (ev):

    -4.5327   4.0710   5.9369   6.0903

          k =-0.2500 0.5000-0.2500 (  1898 PWs)   bands (ev):

    -3.6277   1.8062   5.4539   5.6538

          k = 0.6250-0.3750 0.6250 (  1906 PWs)   bands (ev):

    -2.6391   0.1613   4.9603   5.6936

          k = 0.5000-0.2500 0.5000 (  1903 PWs)   bands (ev):

    -2.9257   0.5851   4.7417   6.0301

          k = 0.3750-0.1250 0.3750 (  1902 PWs)   bands (ev):

    -3.9688   2.5345   4.8727   6.5775

          k = 0.2500 0.0000 0.2500 (  1907 PWs)   bands (ev):

    -4.7540   4.6637   5.5735   7.1076

          k = 0.0000 0.5000 0.0000 (  1924 PWs)   bands (ev):

    -4.1596   3.9014   5.3047   5.3047

          k =-0.1250 0.6250-0.1250 (  1906 PWs)   bands (ev):

    -3.3755   2.3295   4.4482   4.9602

          k = 0.7500-0.2500 0.7500 (  1891 PWs)   bands (ev):

    -2.3320   0.6988   3.5042   4.9707

          k = 0.6250-0.1250 0.6250 (  1889 PWs)   bands (ev):

    -2.0863   0.3908   2.9852   5.3283

          k = 0.5000 0.0000 0.5000 (  1915 PWs)   bands (ev):

    -3.0861   1.7061   3.2146   5.9537

          k = 0.0000 0.7500 0.0000 (  1908 PWs)   bands (ev):

    -2.7154   1.4893   4.5230   4.5230

          k = 0.8750-0.1250 0.8750 (  1891 PWs)   bands (ev):

    -1.7191   0.3047   3.5613   4.4421

          k = 0.7500 0.0000 0.7500 (  1890 PWs)   bands (ev):

    -1.1892  -0.1567   2.5621   4.7285

          k = 0.0000-1.0000 0.0000 (  1868 PWs)   bands (ev):

    -0.7877  -0.7877   4.2558   4.2558

          k =-0.2500 0.5000 0.0000 (  1903 PWs)   bands (ev):

    -3.8840   3.0011   4.3758   5.8441

          k = 0.6250-0.3750 0.8750 (  1899 PWs)   bands (ev):

    -2.8918   1.2685   3.7561   5.2627

          k = 0.5000-0.2500 0.7500 (  1894 PWs)   bands (ev):

    -2.1349   0.1789   3.6440   4.9949

          k = 0.7500-0.2500 1.0000 (  1906 PWs)   bands (ev):

    -2.4874   1.2522   3.6549   4.3132

          k = 0.6250-0.1250 0.8750 (  1897 PWs)   bands (ev):

    -1.4928   0.1745   2.8576   4.0873

          k = 0.5000 0.0000 0.7500 (  1887 PWs)   bands (ev):

    -1.8825   0.5680   2.6649   4.5151

          k =-0.2500-1.0000 0.0000 (  1890 PWs)   bands (ev):

    -0.6845  -0.6845   3.5809   3.5809

          k =-0.5000-1.0000 0.0000 (  1888 PWs)   bands (ev):

    -0.5673  -0.5673   3.0640   3.0640

     highest occupied level (ev):     7.4113

!    total energy              =     -19.17715482 Ry
     estimated scf accuracy    <       0.00000005 Ry

     The total energy is the sum of the following terms:
     one-electron contribution =       5.99078818 Ry
     hartree contribution      =       1.02265139 Ry
     xc contribution           =      -8.76224421 Ry
     ewald contribution        =     -17.42835018 Ry

     convergence has been achieved in   5 iterations

     Writing all to output data dir ./si-dia/si-dia.save/ :
     XML data file, charge density, pseudopotentials, collected wavefunctions

     init_run     :      0.33s CPU      0.37s WALL (       1 calls)
     electrons    :      0.14s CPU      0.19s WALL (       1 calls)

     Called by init_run:
     wfcinit      :      0.01s CPU      0.02s WALL (       1 calls)
     potinit      :      0.02s CPU      0.03s WALL (       1 calls)
     hinit0       :      0.28s CPU      0.29s WALL (       1 calls)

     Called by electrons:
     c_bands      :      0.08s CPU      0.10s WALL (       6 calls)
     sum_band     :      0.03s CPU      0.04s WALL (       6 calls)
     v_of_rho     :      0.02s CPU      0.03s WALL (       6 calls)
     newd         :      0.01s CPU      0.01s WALL (       6 calls)
     mix_rho      :      0.00s CPU      0.00s WALL (       6 calls)

     Called by c_bands:
     init_us_2    :      0.00s CPU      0.00s WALL (      52 calls)
     cegterg      :      0.07s CPU      0.08s WALL (      24 calls)

     Called by *egterg:
     cdiaghg      :      0.00s CPU      0.01s WALL (     100 calls)
     h_psi        :      0.06s CPU      0.07s WALL (     108 calls)
     s_psi        :      0.00s CPU      0.00s WALL (     108 calls)
     g_psi        :      0.00s CPU      0.00s WALL (      80 calls)

     Called by h_psi:
     h_psi:calbec :      0.01s CPU      0.01s WALL (     108 calls)
     vloc_psi     :      0.05s CPU      0.06s WALL (     108 calls)
     add_vuspsi   :      0.00s CPU      0.00s WALL (     108 calls)

     General routines
     calbec       :      0.01s CPU      0.01s WALL (     132 calls)
     fft          :      0.26s CPU      0.27s WALL (      67 calls)
     ffts         :      0.00s CPU      0.00s WALL (       6 calls)
     fftw         :      0.05s CPU      0.06s WALL (     844 calls)

     Parallel routines

     PWSCF        :      0.71s CPU      0.94s WALL


   This run was terminated on:  15:29:37   6Feb2026            

=------------------------------------------------------------------------------=
   JOB DONE.
=------------------------------------------------------------------------------=
