
     Program PWSCF v.7.3.1 starts on  9Feb2026 at 14:44:32 

     This program is part of the open-source Quantum ESPRESSO suite
     for quantum simulation of materials; please cite
         "P. Giannozzi et al., J. Phys.:Condens. Matter 21 395502 (2009);
         "P. Giannozzi et al., J. Phys.:Condens. Matter 29 465901 (2017);
         "P. Giannozzi et al., J. Chem. Phys. 152 154105 (2020);
          URL http://www.quantum-espresso.org", 
     in publications or presentations arising from this work. More details at
     http://www.quantum-espresso.org/quote

     Parallel version (MPI), running on   128 processors

     MPI processes distributed on     1 nodes
     241448 MiB available memory on the printing compute node when the environment starts

     Waiting for input...
     Reading input from standard input

     Current dimensions of program PWSCF are:
     Max number of different atomic species (ntypx) = 10
     Max number of k-points (npk) =  40000
     Max angular momentum in pseudopotentials (lmaxx) =  4

     K-points division:     npool     =       8
     R & G space division:  proc/nbgrp/npool/nimage =      16
     Subspace diagonalization in iterative solution of the eigenvalue problem:
     a serial algorithm will be used


     Parallelization info
     --------------------
     sticks:   dense  smooth     PW     G-vecs:    dense   smooth      PW
     Min          51      51     15                  958      958     164
     Max          52      52     16                  961      961     166
     Sum         817     817    253                15353    15353    2637

     Using Slab Decomposition



     bravais-lattice index     =            2
     lattice parameter (alat)  =       9.9214  a.u.
     unit-cell volume          =     244.1527 (a.u.)^3
     number of atoms/cell      =            2
     number of atomic types    =            1
     number of electrons       =         8.00
     number of Kohn-Sham states=            4
     kinetic-energy cutoff     =      60.0000  Ry
     charge density cutoff     =     240.0000  Ry
     scf convergence threshold =      1.0E-07
     mixing beta               =       0.7000
     number of iterations used =            8  plain     mixing
     Exchange-correlation=  SLA  PW   PBE  PBE
                           (   1   4   3   4   0   0   0)

     celldm(1)=   9.921420  celldm(2)=   0.000000  celldm(3)=   0.000000
     celldm(4)=   0.000000  celldm(5)=   0.000000  celldm(6)=   0.000000

     crystal axes: (cart. coord. in units of alat)
               a(1) = (  -0.500000   0.000000   0.500000 )  
               a(2) = (   0.000000   0.500000   0.500000 )  
               a(3) = (  -0.500000   0.500000   0.000000 )  

     reciprocal axes: (cart. coord. in units 2 pi/alat)
               b(1) = ( -1.000000 -1.000000  1.000000 )  
               b(2) = (  1.000000  1.000000  1.000000 )  
               b(3) = ( -1.000000  1.000000 -1.000000 )  


     PseudoPot. # 1 for Si read from file:
     ./Si.pbe-n-van.UPF
     MD5 check sum: 8a97496598b7338af554a5de8957bfee
     Pseudo is Ultrasoft + core correction, Zval =  4.0
     Generated by new atomic code, or converted to UPF format
     Using radial grid of  899 points,  6 beta functions with: 
                l(1) =   0
                l(2) =   0
                l(3) =   1
                l(4) =   1
                l(5) =   2
                l(6) =   2
     Q(r) pseudized with  8 coefficients,  rinner =    0.900   0.900   0.900
                                                       0.900   0.900

     atomic species   valence    mass     pseudopotential
     Si                4.00    28.08600     Si( 1.00)

     48 Sym. Ops., with inversion, found (24 have fractional translation)



   Cartesian axes

     site n.     atom                  positions (alat units)
         1        Si     tau(   1) = (  -0.7500000   0.7500000   0.7500000  )
         2        Si     tau(   2) = (   0.0000000   0.0000000   0.0000000  )

     number of k points=    29
                       cart. coord. in units 2pi/alat
        k(    1) = (   0.0000000   0.0000000   0.0000000), wk =   0.0039062
        k(    2) = (  -0.1250000   0.1250000  -0.1250000), wk =   0.0312500
        k(    3) = (  -0.2500000   0.2500000  -0.2500000), wk =   0.0312500
        k(    4) = (  -0.3750000   0.3750000  -0.3750000), wk =   0.0312500
        k(    5) = (   0.5000000  -0.5000000   0.5000000), wk =   0.0156250
        k(    6) = (   0.0000000   0.2500000   0.0000000), wk =   0.0234375
        k(    7) = (  -0.1250000   0.3750000  -0.1250000), wk =   0.0937500
        k(    8) = (  -0.2500000   0.5000000  -0.2500000), wk =   0.0937500
        k(    9) = (   0.6250000  -0.3750000   0.6250000), wk =   0.0937500
        k(   10) = (   0.5000000  -0.2500000   0.5000000), wk =   0.0937500
        k(   11) = (   0.3750000  -0.1250000   0.3750000), wk =   0.0937500
        k(   12) = (   0.2500000   0.0000000   0.2500000), wk =   0.0468750
        k(   13) = (   0.0000000   0.5000000   0.0000000), wk =   0.0234375
        k(   14) = (  -0.1250000   0.6250000  -0.1250000), wk =   0.0937500
        k(   15) = (   0.7500000  -0.2500000   0.7500000), wk =   0.0937500
        k(   16) = (   0.6250000  -0.1250000   0.6250000), wk =   0.0937500
        k(   17) = (   0.5000000   0.0000000   0.5000000), wk =   0.0468750
        k(   18) = (   0.0000000   0.7500000   0.0000000), wk =   0.0234375
        k(   19) = (   0.8750000  -0.1250000   0.8750000), wk =   0.0937500
        k(   20) = (   0.7500000   0.0000000   0.7500000), wk =   0.0468750
        k(   21) = (   0.0000000  -1.0000000   0.0000000), wk =   0.0117188
        k(   22) = (  -0.2500000   0.5000000   0.0000000), wk =   0.0937500
        k(   23) = (   0.6250000  -0.3750000   0.8750000), wk =   0.1875000
        k(   24) = (   0.5000000  -0.2500000   0.7500000), wk =   0.0937500
        k(   25) = (   0.7500000  -0.2500000   1.0000000), wk =   0.0937500
        k(   26) = (   0.6250000  -0.1250000   0.8750000), wk =   0.1875000
        k(   27) = (   0.5000000   0.0000000   0.7500000), wk =   0.0937500
        k(   28) = (  -0.2500000  -1.0000000   0.0000000), wk =   0.0468750
        k(   29) = (  -0.5000000  -1.0000000   0.0000000), wk =   0.0234375

     Dense  grid:    15353 G-vectors     FFT dimensions: (  36,  36,  36)

     Estimated max dynamical RAM per process >       2.37 MB

     Estimated total dynamical RAM >     276.58 MB

     Initial potential from superposition of free atoms

     starting charge       7.9987, renormalised to       8.0000
     Starting wfcs are    8 randomized atomic wfcs

     total cpu time spent up to now is        0.7 secs

     per-process dynamical memory:     9.9 Mb

     Self-consistent Calculation

     iteration #  1     ecut=    60.00 Ry     beta= 0.70
     Davidson diagonalization with overlap
     ethr =  1.00E-02,  avg # of iterations =  2.0

     Threshold (ethr) on eigenvalues was too large:
     Diagonalizing with lowered threshold

     Davidson diagonalization with overlap
     ethr =  7.68E-04,  avg # of iterations =  1.0

     total cpu time spent up to now is        0.8 secs

     total energy              =     -19.17573114 Ry
     estimated scf accuracy    <       0.06570935 Ry

     iteration #  2     ecut=    60.00 Ry     beta= 0.70
     Davidson diagonalization with overlap
     ethr =  8.21E-04,  avg # of iterations =  1.0

     total cpu time spent up to now is        0.8 secs

     total energy              =     -19.17882301 Ry
     estimated scf accuracy    <       0.00239115 Ry

     iteration #  3     ecut=    60.00 Ry     beta= 0.70
     Davidson diagonalization with overlap
     ethr =  2.99E-05,  avg # of iterations =  2.2

     total cpu time spent up to now is        0.8 secs

     total energy              =     -19.17936274 Ry
     estimated scf accuracy    <       0.00005192 Ry

     iteration #  4     ecut=    60.00 Ry     beta= 0.70
     Davidson diagonalization with overlap
     ethr =  6.49E-07,  avg # of iterations =  5.5

     total cpu time spent up to now is        0.8 secs

     total energy              =     -19.17942464 Ry
     estimated scf accuracy    <       0.00000052 Ry

     iteration #  5     ecut=    60.00 Ry     beta= 0.70
     Davidson diagonalization with overlap
     ethr =  6.54E-09,  avg # of iterations =  5.9

     total cpu time spent up to now is        0.9 secs

     End of self-consistent calculation

          k = 0.0000 0.0000 0.0000 (  1917 PWs)   bands (ev):

    -5.3849   7.3041   7.3041   7.3041

          k =-0.1250 0.1250-0.1250 (  1913 PWs)   bands (ev):

    -5.1624   5.6532   6.9842   6.9842

          k =-0.2500 0.2500-0.2500 (  1916 PWs)   bands (ev):

    -4.5109   3.1668   6.4769   6.4769

          k =-0.3750 0.3750-0.3750 (  1916 PWs)   bands (ev):

    -3.5204   0.9723   6.1315   6.1315

          k = 0.5000-0.5000 0.5000 (  1916 PWs)   bands (ev):

    -2.7851  -0.1750   6.0147   6.0147

          k = 0.0000 0.2500 0.0000 (  1928 PWs)   bands (ev):

    -5.0876   6.0505   6.3995   6.3995

          k =-0.1250 0.3750-0.1250 (  1930 PWs)   bands (ev):

    -4.5758   3.9758   5.8434   5.9896

          k =-0.2500 0.5000-0.2500 (  1922 PWs)   bands (ev):

    -3.6787   1.7285   5.3572   5.5616

          k = 0.6250-0.3750 0.6250 (  1917 PWs)   bands (ev):

    -2.7015   0.0996   4.8678   5.5999

          k = 0.5000-0.2500 0.5000 (  1928 PWs)   bands (ev):

    -2.9843   0.5186   4.6526   5.9329

          k = 0.3750-0.1250 0.3750 (  1919 PWs)   bands (ev):

    -4.0167   2.4509   4.7853   6.4753

          k = 0.2500 0.0000 0.2500 (  1923 PWs)   bands (ev):

    -4.7954   4.5637   5.4848   7.0012

          k = 0.0000 0.5000 0.0000 (  1924 PWs)   bands (ev):

    -4.2055   3.7946   5.2165   5.2165

          k =-0.1250 0.6250-0.1250 (  1913 PWs)   bands (ev):

    -3.4279   2.2359   4.3665   4.8743

          k = 0.7500-0.2500 0.7500 (  1913 PWs)   bands (ev):

    -2.3948   0.6220   3.4294   4.8841

          k = 0.6250-0.1250 0.6250 (  1920 PWs)   bands (ev):

    -2.1529   0.3185   2.9157   5.2383

          k = 0.5000 0.0000 0.5000 (  1923 PWs)   bands (ev):

    -3.1419   1.6197   3.1464   5.8578

          k = 0.0000 0.7500 0.0000 (  1936 PWs)   bands (ev):

    -2.7729   1.3984   4.4405   4.4405

          k = 0.8750-0.1250 0.8750 (  1916 PWs)   bands (ev):

    -1.7852   0.2224   3.4907   4.3600

          k = 0.7500 0.0000 0.7500 (  1906 PWs)   bands (ev):

    -1.2637  -0.2332   2.5035   4.6439

          k = 0.0000-1.0000 0.0000 (  1924 PWs)   bands (ev):

    -0.8607  -0.8607   4.1751   4.1751

          k =-0.2500 0.5000 0.0000 (  1918 PWs)   bands (ev):

    -3.9325   2.9058   4.2970   5.7491

          k = 0.6250-0.3750 0.8750 (  1916 PWs)   bands (ev):

    -2.9494   1.1893   3.6777   5.1749

          k = 0.5000-0.2500 0.7500 (  1908 PWs)   bands (ev):

    -2.2019   0.1126   3.5641   4.9106

          k = 0.7500-0.2500 1.0000 (  1906 PWs)   bands (ev):

    -2.5474   1.1627   3.5824   4.2362

          k = 0.6250-0.1250 0.8750 (  1905 PWs)   bands (ev):

    -1.5635   0.0949   2.7939   4.0124

          k = 0.5000 0.0000 0.7500 (  1908 PWs)   bands (ev):

    -1.9498   0.4857   2.6035   4.4355

          k =-0.2500-1.0000 0.0000 (  1912 PWs)   bands (ev):

    -0.7597  -0.7597   3.5102   3.5102

          k =-0.5000-1.0000 0.0000 (  1912 PWs)   bands (ev):

    -0.6455  -0.6455   3.0008   3.0008

     highest occupied level (ev):     7.3041

!    total energy              =     -19.17942603 Ry
     estimated scf accuracy    <       0.00000005 Ry

     The total energy is the sum of the following terms:
     one-electron contribution =       5.91458152 Ry
     hartree contribution      =       1.03048376 Ry
     xc contribution           =      -8.75021047 Ry
     ewald contribution        =     -17.37428084 Ry

     convergence has been achieved in   5 iterations

     Writing all to output data dir ./si-dia/si-dia.save/ :
     XML data file, charge density, pseudopotentials, collected wavefunctions

     init_run     :      0.33s CPU      0.37s WALL (       1 calls)
     electrons    :      0.14s CPU      0.21s WALL (       1 calls)

     Called by init_run:
     wfcinit      :      0.01s CPU      0.02s WALL (       1 calls)
     potinit      :      0.01s CPU      0.02s WALL (       1 calls)
     hinit0       :      0.29s CPU      0.30s WALL (       1 calls)

     Called by electrons:
     c_bands      :      0.08s CPU      0.11s WALL (       6 calls)
     sum_band     :      0.03s CPU      0.03s WALL (       6 calls)
     v_of_rho     :      0.02s CPU      0.03s WALL (       6 calls)
     newd         :      0.00s CPU      0.01s WALL (       6 calls)
     mix_rho      :      0.00s CPU      0.00s WALL (       6 calls)

     Called by c_bands:
     init_us_2    :      0.00s CPU      0.00s WALL (      52 calls)
     cegterg      :      0.07s CPU      0.08s WALL (      24 calls)

     Called by *egterg:
     cdiaghg      :      0.00s CPU      0.01s WALL (      99 calls)
     h_psi        :      0.06s CPU      0.08s WALL (     107 calls)
     s_psi        :      0.00s CPU      0.00s WALL (     107 calls)
     g_psi        :      0.00s CPU      0.00s WALL (      79 calls)

     Called by h_psi:
     h_psi:calbec :      0.00s CPU      0.01s WALL (     107 calls)
     vloc_psi     :      0.05s CPU      0.07s WALL (     107 calls)
     add_vuspsi   :      0.00s CPU      0.00s WALL (     107 calls)

     General routines
     calbec       :      0.01s CPU      0.01s WALL (     131 calls)
     fft          :      0.26s CPU      0.27s WALL (      67 calls)
     ffts         :      0.00s CPU      0.00s WALL (       6 calls)
     fftw         :      0.06s CPU      0.07s WALL (     844 calls)

     Parallel routines

     PWSCF        :      0.70s CPU      0.99s WALL


   This run was terminated on:  14:44:33   9Feb2026            

=------------------------------------------------------------------------------=
   JOB DONE.
=------------------------------------------------------------------------------=
