
     Program PWSCF v.7.3.1 starts on  6Feb2026 at 15:29:50 

     This program is part of the open-source Quantum ESPRESSO suite
     for quantum simulation of materials; please cite
         "P. Giannozzi et al., J. Phys.:Condens. Matter 21 395502 (2009);
         "P. Giannozzi et al., J. Phys.:Condens. Matter 29 465901 (2017);
         "P. Giannozzi et al., J. Chem. Phys. 152 154105 (2020);
          URL http://www.quantum-espresso.org", 
     in publications or presentations arising from this work. More details at
     http://www.quantum-espresso.org/quote

     Parallel version (MPI), running on   128 processors

     MPI processes distributed on     1 nodes
     241373 MiB available memory on the printing compute node when the environment starts

     Waiting for input...
     Reading input from standard input

     Current dimensions of program PWSCF are:
     Max number of different atomic species (ntypx) = 10
     Max number of k-points (npk) =  40000
     Max angular momentum in pseudopotentials (lmaxx) =  4

     K-points division:     npool     =       8
     R & G space division:  proc/nbgrp/npool/nimage =      16
     Subspace diagonalization in iterative solution of the eigenvalue problem:
     a serial algorithm will be used


     Parallelization info
     --------------------
     sticks:   dense  smooth     PW     G-vecs:    dense   smooth      PW
     Min          51      51     15                  966      966     164
     Max          52      52     16                  969      969     166
     Sum         823     823    253                15473    15473    2637

     Using Slab Decomposition



     bravais-lattice index     =            2
     lattice parameter (alat)  =       9.9522  a.u.
     unit-cell volume          =     246.4321 (a.u.)^3
     number of atoms/cell      =            2
     number of atomic types    =            1
     number of electrons       =         8.00
     number of Kohn-Sham states=            4
     kinetic-energy cutoff     =      60.0000  Ry
     charge density cutoff     =     240.0000  Ry
     scf convergence threshold =      1.0E-07
     mixing beta               =       0.7000
     number of iterations used =            8  plain     mixing
     Exchange-correlation=  SLA  PW   PBE  PBE
                           (   1   4   3   4   0   0   0)

     celldm(1)=   9.952200  celldm(2)=   0.000000  celldm(3)=   0.000000
     celldm(4)=   0.000000  celldm(5)=   0.000000  celldm(6)=   0.000000

     crystal axes: (cart. coord. in units of alat)
               a(1) = (  -0.500000   0.000000   0.500000 )  
               a(2) = (   0.000000   0.500000   0.500000 )  
               a(3) = (  -0.500000   0.500000   0.000000 )  

     reciprocal axes: (cart. coord. in units 2 pi/alat)
               b(1) = ( -1.000000 -1.000000  1.000000 )  
               b(2) = (  1.000000  1.000000  1.000000 )  
               b(3) = ( -1.000000  1.000000 -1.000000 )  


     PseudoPot. # 1 for Si read from file:
     ./Si.pbe-n-van.UPF
     MD5 check sum: 8a97496598b7338af554a5de8957bfee
     Pseudo is Ultrasoft + core correction, Zval =  4.0
     Generated by new atomic code, or converted to UPF format
     Using radial grid of  899 points,  6 beta functions with: 
                l(1) =   0
                l(2) =   0
                l(3) =   1
                l(4) =   1
                l(5) =   2
                l(6) =   2
     Q(r) pseudized with  8 coefficients,  rinner =    0.900   0.900   0.900
                                                       0.900   0.900

     atomic species   valence    mass     pseudopotential
     Si                4.00    28.08600     Si( 1.00)

     48 Sym. Ops., with inversion, found (24 have fractional translation)



   Cartesian axes

     site n.     atom                  positions (alat units)
         1        Si     tau(   1) = (  -0.7500000   0.7500000   0.7500000  )
         2        Si     tau(   2) = (   0.0000000   0.0000000   0.0000000  )

     number of k points=    29
                       cart. coord. in units 2pi/alat
        k(    1) = (   0.0000000   0.0000000   0.0000000), wk =   0.0039062
        k(    2) = (  -0.1250000   0.1250000  -0.1250000), wk =   0.0312500
        k(    3) = (  -0.2500000   0.2500000  -0.2500000), wk =   0.0312500
        k(    4) = (  -0.3750000   0.3750000  -0.3750000), wk =   0.0312500
        k(    5) = (   0.5000000  -0.5000000   0.5000000), wk =   0.0156250
        k(    6) = (   0.0000000   0.2500000   0.0000000), wk =   0.0234375
        k(    7) = (  -0.1250000   0.3750000  -0.1250000), wk =   0.0937500
        k(    8) = (  -0.2500000   0.5000000  -0.2500000), wk =   0.0937500
        k(    9) = (   0.6250000  -0.3750000   0.6250000), wk =   0.0937500
        k(   10) = (   0.5000000  -0.2500000   0.5000000), wk =   0.0937500
        k(   11) = (   0.3750000  -0.1250000   0.3750000), wk =   0.0937500
        k(   12) = (   0.2500000   0.0000000   0.2500000), wk =   0.0468750
        k(   13) = (   0.0000000   0.5000000   0.0000000), wk =   0.0234375
        k(   14) = (  -0.1250000   0.6250000  -0.1250000), wk =   0.0937500
        k(   15) = (   0.7500000  -0.2500000   0.7500000), wk =   0.0937500
        k(   16) = (   0.6250000  -0.1250000   0.6250000), wk =   0.0937500
        k(   17) = (   0.5000000   0.0000000   0.5000000), wk =   0.0468750
        k(   18) = (   0.0000000   0.7500000   0.0000000), wk =   0.0234375
        k(   19) = (   0.8750000  -0.1250000   0.8750000), wk =   0.0937500
        k(   20) = (   0.7500000   0.0000000   0.7500000), wk =   0.0468750
        k(   21) = (   0.0000000  -1.0000000   0.0000000), wk =   0.0117188
        k(   22) = (  -0.2500000   0.5000000   0.0000000), wk =   0.0937500
        k(   23) = (   0.6250000  -0.3750000   0.8750000), wk =   0.1875000
        k(   24) = (   0.5000000  -0.2500000   0.7500000), wk =   0.0937500
        k(   25) = (   0.7500000  -0.2500000   1.0000000), wk =   0.0937500
        k(   26) = (   0.6250000  -0.1250000   0.8750000), wk =   0.1875000
        k(   27) = (   0.5000000   0.0000000   0.7500000), wk =   0.0937500
        k(   28) = (  -0.2500000  -1.0000000   0.0000000), wk =   0.0468750
        k(   29) = (  -0.5000000  -1.0000000   0.0000000), wk =   0.0234375

     Dense  grid:    15473 G-vectors     FFT dimensions: (  36,  36,  36)

     Estimated max dynamical RAM per process >       2.38 MB

     Estimated total dynamical RAM >     277.67 MB

     Initial potential from superposition of free atoms

     starting charge       7.9987, renormalised to       8.0000
     Starting wfcs are    8 randomized atomic wfcs

     total cpu time spent up to now is        0.7 secs

     per-process dynamical memory:     9.9 Mb

     Self-consistent Calculation

     iteration #  1     ecut=    60.00 Ry     beta= 0.70
     Davidson diagonalization with overlap
     ethr =  1.00E-02,  avg # of iterations =  2.0

     Threshold (ethr) on eigenvalues was too large:
     Diagonalizing with lowered threshold

     Davidson diagonalization with overlap
     ethr =  7.56E-04,  avg # of iterations =  1.0

     total cpu time spent up to now is        0.7 secs

     total energy              =     -19.17794535 Ry
     estimated scf accuracy    <       0.06471519 Ry

     iteration #  2     ecut=    60.00 Ry     beta= 0.70
     Davidson diagonalization with overlap
     ethr =  8.09E-04,  avg # of iterations =  1.0

     total cpu time spent up to now is        0.8 secs

     total energy              =     -19.18092511 Ry
     estimated scf accuracy    <       0.00239850 Ry

     iteration #  3     ecut=    60.00 Ry     beta= 0.70
     Davidson diagonalization with overlap
     ethr =  3.00E-05,  avg # of iterations =  2.2

     total cpu time spent up to now is        0.8 secs

     total energy              =     -19.18144259 Ry
     estimated scf accuracy    <       0.00005050 Ry

     iteration #  4     ecut=    60.00 Ry     beta= 0.70
     Davidson diagonalization with overlap
     ethr =  6.31E-07,  avg # of iterations =  5.6

     total cpu time spent up to now is        0.8 secs

     total energy              =     -19.18150205 Ry
     estimated scf accuracy    <       0.00000045 Ry

     iteration #  5     ecut=    60.00 Ry     beta= 0.70
     Davidson diagonalization with overlap
     ethr =  5.64E-09,  avg # of iterations =  6.0

     total cpu time spent up to now is        0.8 secs

     End of self-consistent calculation

          k = 0.0000 0.0000 0.0000 (  1917 PWs)   bands (ev):

    -5.4212   7.1981   7.1981   7.1981

          k =-0.1250 0.1250-0.1250 (  1934 PWs)   bands (ev):

    -5.2004   5.5536   6.8812   6.8812

          k =-0.2500 0.2500-0.2500 (  1934 PWs)   bands (ev):

    -4.5542   3.0821   6.3772   6.3772

          k =-0.3750 0.3750-0.3750 (  1922 PWs)   bands (ev):

    -3.5729   0.9040   6.0335   6.0335

          k = 0.5000-0.5000 0.5000 (  1916 PWs)   bands (ev):

    -2.8471  -0.2312   5.9170   5.9170

          k = 0.0000 0.2500 0.0000 (  1937 PWs)   bands (ev):

    -5.1262   5.9383   6.3029   6.3029

          k =-0.1250 0.3750-0.1250 (  1942 PWs)   bands (ev):

    -4.6185   3.8815   5.7510   5.8901

          k =-0.2500 0.5000-0.2500 (  1952 PWs)   bands (ev):

    -3.7291   1.6515   5.2617   5.4704

          k = 0.6250-0.3750 0.6250 (  1941 PWs)   bands (ev):

    -2.7631   0.0384   4.7765   5.5073

          k = 0.5000-0.2500 0.5000 (  1930 PWs)   bands (ev):

    -3.0422   0.4527   4.5645   5.8367

          k = 0.3750-0.1250 0.3750 (  1930 PWs)   bands (ev):

    -4.0642   2.3680   4.6990   6.3743

          k = 0.2500 0.0000 0.2500 (  1943 PWs)   bands (ev):

    -4.8364   4.4645   5.3972   6.8960

          k = 0.0000 0.5000 0.0000 (  1964 PWs)   bands (ev):

    -4.2510   3.6888   5.1294   5.1294

          k =-0.1250 0.6250-0.1250 (  1939 PWs)   bands (ev):

    -3.4798   2.1431   4.2858   4.7894

          k = 0.7500-0.2500 0.7500 (  1923 PWs)   bands (ev):

    -2.4569   0.5458   3.3555   4.7985

          k = 0.6250-0.1250 0.6250 (  1931 PWs)   bands (ev):

    -2.2187   0.2468   2.8470   5.1493

          k = 0.5000 0.0000 0.5000 (  1947 PWs)   bands (ev):

    -3.1970   1.5342   3.0791   5.7629

          k = 0.0000 0.7500 0.0000 (  1952 PWs)   bands (ev):

    -2.8297   1.3084   4.3589   4.3589

          k = 0.8750-0.1250 0.8750 (  1935 PWs)   bands (ev):

    -1.8506   0.1410   3.4210   4.2788

          k = 0.7500 0.0000 0.7500 (  1926 PWs)   bands (ev):

    -1.3374  -0.3089   2.4455   4.5602

          k = 0.0000-1.0000 0.0000 (  1964 PWs)   bands (ev):

    -0.9329  -0.9329   4.0953   4.0953

          k =-0.2500 0.5000 0.0000 (  1936 PWs)   bands (ev):

    -3.9804   2.8113   4.2191   5.6551

          k = 0.6250-0.3750 0.8750 (  1931 PWs)   bands (ev):

    -3.0063   1.1107   3.6004   5.0880

          k = 0.5000-0.2500 0.7500 (  1918 PWs)   bands (ev):

    -2.2682   0.0469   3.4852   4.8271

          k = 0.7500-0.2500 1.0000 (  1936 PWs)   bands (ev):

    -2.6068   1.0742   3.5107   4.1599

          k = 0.6250-0.1250 0.8750 (  1928 PWs)   bands (ev):

    -1.6335   0.0161   2.7309   3.9383

          k = 0.5000 0.0000 0.7500 (  1926 PWs)   bands (ev):

    -2.0163   0.4042   2.5429   4.3569

          k =-0.2500-1.0000 0.0000 (  1928 PWs)   bands (ev):

    -0.8343  -0.8343   3.4404   3.4404

          k =-0.5000-1.0000 0.0000 (  1912 PWs)   bands (ev):

    -0.7230  -0.7230   2.9382   2.9382

     highest occupied level (ev):     7.1981

!    total energy              =     -19.18150345 Ry
     estimated scf accuracy    <       0.00000004 Ry

     The total energy is the sum of the following terms:
     one-electron contribution =       5.83900983 Ry
     hartree contribution      =       1.03832888 Ry
     xc contribution           =      -8.73829621 Ry
     ewald contribution        =     -17.32054595 Ry

     convergence has been achieved in   5 iterations

     Writing all to output data dir ./si-dia/si-dia.save/ :
     XML data file, charge density, pseudopotentials, collected wavefunctions

     init_run     :      0.32s CPU      0.38s WALL (       1 calls)
     electrons    :      0.13s CPU      0.19s WALL (       1 calls)

     Called by init_run:
     wfcinit      :      0.01s CPU      0.02s WALL (       1 calls)
     potinit      :      0.01s CPU      0.02s WALL (       1 calls)
     hinit0       :      0.28s CPU      0.30s WALL (       1 calls)

     Called by electrons:
     c_bands      :      0.08s CPU      0.10s WALL (       6 calls)
     sum_band     :      0.03s CPU      0.03s WALL (       6 calls)
     v_of_rho     :      0.02s CPU      0.03s WALL (       6 calls)
     newd         :      0.00s CPU      0.01s WALL (       6 calls)
     mix_rho      :      0.00s CPU      0.00s WALL (       6 calls)

     Called by c_bands:
     init_us_2    :      0.00s CPU      0.00s WALL (      52 calls)
     cegterg      :      0.06s CPU      0.08s WALL (      24 calls)

     Called by *egterg:
     cdiaghg      :      0.00s CPU      0.01s WALL (     100 calls)
     h_psi        :      0.06s CPU      0.07s WALL (     108 calls)
     s_psi        :      0.00s CPU      0.00s WALL (     108 calls)
     g_psi        :      0.00s CPU      0.00s WALL (      80 calls)

     Called by h_psi:
     h_psi:calbec :      0.01s CPU      0.01s WALL (     108 calls)
     vloc_psi     :      0.05s CPU      0.06s WALL (     108 calls)
     add_vuspsi   :      0.00s CPU      0.00s WALL (     108 calls)

     General routines
     calbec       :      0.01s CPU      0.01s WALL (     132 calls)
     fft          :      0.26s CPU      0.27s WALL (      67 calls)
     ffts         :      0.00s CPU      0.00s WALL (       6 calls)
     fftw         :      0.05s CPU      0.06s WALL (     848 calls)

     Parallel routines

     PWSCF        :      0.68s CPU      0.96s WALL


   This run was terminated on:  15:29:51   6Feb2026            

=------------------------------------------------------------------------------=
   JOB DONE.
=------------------------------------------------------------------------------=
