
     Program PWSCF v.7.3.1 starts on  6Feb2026 at 15:30: 7 

     This program is part of the open-source Quantum ESPRESSO suite
     for quantum simulation of materials; please cite
         "P. Giannozzi et al., J. Phys.:Condens. Matter 21 395502 (2009);
         "P. Giannozzi et al., J. Phys.:Condens. Matter 29 465901 (2017);
         "P. Giannozzi et al., J. Chem. Phys. 152 154105 (2020);
          URL http://www.quantum-espresso.org", 
     in publications or presentations arising from this work. More details at
     http://www.quantum-espresso.org/quote

     Parallel version (MPI), running on   128 processors

     MPI processes distributed on     1 nodes
     241353 MiB available memory on the printing compute node when the environment starts

     Waiting for input...
     Reading input from standard input

     Current dimensions of program PWSCF are:
     Max number of different atomic species (ntypx) = 10
     Max number of k-points (npk) =  40000
     Max angular momentum in pseudopotentials (lmaxx) =  4

     K-points division:     npool     =       8
     R & G space division:  proc/nbgrp/npool/nimage =      16
     Subspace diagonalization in iterative solution of the eigenvalue problem:
     a serial algorithm will be used


     Parallelization info
     --------------------
     sticks:   dense  smooth     PW     G-vecs:    dense   smooth      PW
     Min          52      52     15                 1002     1002     166
     Max          53      53     16                 1004     1004     169
     Sum         847     847    253                16049    16049    2685

     Using Slab Decomposition



     bravais-lattice index     =            2
     lattice parameter (alat)  =      10.0343  a.u.
     unit-cell volume          =     252.5798 (a.u.)^3
     number of atoms/cell      =            2
     number of atomic types    =            1
     number of electrons       =         8.00
     number of Kohn-Sham states=            4
     kinetic-energy cutoff     =      60.0000  Ry
     charge density cutoff     =     240.0000  Ry
     scf convergence threshold =      1.0E-07
     mixing beta               =       0.7000
     number of iterations used =            8  plain     mixing
     Exchange-correlation=  SLA  PW   PBE  PBE
                           (   1   4   3   4   0   0   0)

     celldm(1)=  10.034280  celldm(2)=   0.000000  celldm(3)=   0.000000
     celldm(4)=   0.000000  celldm(5)=   0.000000  celldm(6)=   0.000000

     crystal axes: (cart. coord. in units of alat)
               a(1) = (  -0.500000   0.000000   0.500000 )  
               a(2) = (   0.000000   0.500000   0.500000 )  
               a(3) = (  -0.500000   0.500000   0.000000 )  

     reciprocal axes: (cart. coord. in units 2 pi/alat)
               b(1) = ( -1.000000 -1.000000  1.000000 )  
               b(2) = (  1.000000  1.000000  1.000000 )  
               b(3) = ( -1.000000  1.000000 -1.000000 )  


     PseudoPot. # 1 for Si read from file:
     ./Si.pbe-n-van.UPF
     MD5 check sum: 8a97496598b7338af554a5de8957bfee
     Pseudo is Ultrasoft + core correction, Zval =  4.0
     Generated by new atomic code, or converted to UPF format
     Using radial grid of  899 points,  6 beta functions with: 
                l(1) =   0
                l(2) =   0
                l(3) =   1
                l(4) =   1
                l(5) =   2
                l(6) =   2
     Q(r) pseudized with  8 coefficients,  rinner =    0.900   0.900   0.900
                                                       0.900   0.900

     atomic species   valence    mass     pseudopotential
     Si                4.00    28.08600     Si( 1.00)

     48 Sym. Ops., with inversion, found (24 have fractional translation)



   Cartesian axes

     site n.     atom                  positions (alat units)
         1        Si     tau(   1) = (  -0.7500000   0.7500000   0.7500000  )
         2        Si     tau(   2) = (   0.0000000   0.0000000   0.0000000  )

     number of k points=    29
                       cart. coord. in units 2pi/alat
        k(    1) = (   0.0000000   0.0000000   0.0000000), wk =   0.0039062
        k(    2) = (  -0.1250000   0.1250000  -0.1250000), wk =   0.0312500
        k(    3) = (  -0.2500000   0.2500000  -0.2500000), wk =   0.0312500
        k(    4) = (  -0.3750000   0.3750000  -0.3750000), wk =   0.0312500
        k(    5) = (   0.5000000  -0.5000000   0.5000000), wk =   0.0156250
        k(    6) = (   0.0000000   0.2500000   0.0000000), wk =   0.0234375
        k(    7) = (  -0.1250000   0.3750000  -0.1250000), wk =   0.0937500
        k(    8) = (  -0.2500000   0.5000000  -0.2500000), wk =   0.0937500
        k(    9) = (   0.6250000  -0.3750000   0.6250000), wk =   0.0937500
        k(   10) = (   0.5000000  -0.2500000   0.5000000), wk =   0.0937500
        k(   11) = (   0.3750000  -0.1250000   0.3750000), wk =   0.0937500
        k(   12) = (   0.2500000   0.0000000   0.2500000), wk =   0.0468750
        k(   13) = (   0.0000000   0.5000000   0.0000000), wk =   0.0234375
        k(   14) = (  -0.1250000   0.6250000  -0.1250000), wk =   0.0937500
        k(   15) = (   0.7500000  -0.2500000   0.7500000), wk =   0.0937500
        k(   16) = (   0.6250000  -0.1250000   0.6250000), wk =   0.0937500
        k(   17) = (   0.5000000   0.0000000   0.5000000), wk =   0.0468750
        k(   18) = (   0.0000000   0.7500000   0.0000000), wk =   0.0234375
        k(   19) = (   0.8750000  -0.1250000   0.8750000), wk =   0.0937500
        k(   20) = (   0.7500000   0.0000000   0.7500000), wk =   0.0468750
        k(   21) = (   0.0000000  -1.0000000   0.0000000), wk =   0.0117188
        k(   22) = (  -0.2500000   0.5000000   0.0000000), wk =   0.0937500
        k(   23) = (   0.6250000  -0.3750000   0.8750000), wk =   0.1875000
        k(   24) = (   0.5000000  -0.2500000   0.7500000), wk =   0.0937500
        k(   25) = (   0.7500000  -0.2500000   1.0000000), wk =   0.0937500
        k(   26) = (   0.6250000  -0.1250000   0.8750000), wk =   0.1875000
        k(   27) = (   0.5000000   0.0000000   0.7500000), wk =   0.0937500
        k(   28) = (  -0.2500000  -1.0000000   0.0000000), wk =   0.0468750
        k(   29) = (  -0.5000000  -1.0000000   0.0000000), wk =   0.0234375

     Dense  grid:    16049 G-vectors     FFT dimensions: (  36,  36,  36)

     Estimated max dynamical RAM per process >       2.41 MB

     Estimated total dynamical RAM >     280.47 MB

     Initial potential from superposition of free atoms

     starting charge       7.9987, renormalised to       8.0000
     Starting wfcs are    8 randomized atomic wfcs

     total cpu time spent up to now is        0.7 secs

     per-process dynamical memory:     9.8 Mb

     Self-consistent Calculation

     iteration #  1     ecut=    60.00 Ry     beta= 0.70
     Davidson diagonalization with overlap
     ethr =  1.00E-02,  avg # of iterations =  2.0

     Threshold (ethr) on eigenvalues was too large:
     Diagonalizing with lowered threshold

     Davidson diagonalization with overlap
     ethr =  7.27E-04,  avg # of iterations =  1.0

     total cpu time spent up to now is        0.7 secs

     total energy              =     -19.18286041 Ry
     estimated scf accuracy    <       0.06227143 Ry

     iteration #  2     ecut=    60.00 Ry     beta= 0.70
     Davidson diagonalization with overlap
     ethr =  7.78E-04,  avg # of iterations =  1.0

     total cpu time spent up to now is        0.7 secs

     total energy              =     -19.18559717 Ry
     estimated scf accuracy    <       0.00240996 Ry

     iteration #  3     ecut=    60.00 Ry     beta= 0.70
     Davidson diagonalization with overlap
     ethr =  3.01E-05,  avg # of iterations =  2.1

     total cpu time spent up to now is        0.8 secs

     total energy              =     -19.18607129 Ry
     estimated scf accuracy    <       0.00004967 Ry

     iteration #  4     ecut=    60.00 Ry     beta= 0.70
     Davidson diagonalization with overlap
     ethr =  6.21E-07,  avg # of iterations =  5.5

     total cpu time spent up to now is        0.8 secs

     total energy              =     -19.18613413 Ry
     estimated scf accuracy    <       0.00000043 Ry

     iteration #  5     ecut=    60.00 Ry     beta= 0.70
     Davidson diagonalization with overlap
     ethr =  5.32E-09,  avg # of iterations =  6.0

     total cpu time spent up to now is        0.8 secs

     End of self-consistent calculation

          k = 0.0000 0.0000 0.0000 (  1989 PWs)   bands (ev):

    -5.5158   6.9215   6.9215   6.9215

          k =-0.1250 0.1250-0.1250 (  1989 PWs)   bands (ev):

    -5.2996   5.2923   6.6122   6.6122

          k =-0.2500 0.2500-0.2500 (  1973 PWs)   bands (ev):

    -4.6672   2.8601   6.1172   6.1172

          k =-0.3750 0.3750-0.3750 (  1976 PWs)   bands (ev):

    -3.7100   0.7251   5.7777   5.7777

          k = 0.5000-0.5000 0.5000 (  2006 PWs)   bands (ev):

    -3.0090  -0.3786   5.6624   5.6624

          k = 0.0000 0.2500 0.0000 (  1989 PWs)   bands (ev):

    -5.2268   5.6442   6.0508   6.0508

          k =-0.1250 0.3750-0.1250 (  1973 PWs)   bands (ev):

    -4.7298   3.6337   5.5098   5.6307

          k =-0.2500 0.5000-0.2500 (  1976 PWs)   bands (ev):

    -3.8608   1.4496   5.0127   5.2324

          k = 0.6250-0.3750 0.6250 (  1975 PWs)   bands (ev):

    -2.9240  -0.1222   4.5385   5.2658

          k = 0.5000-0.2500 0.5000 (  1980 PWs)   bands (ev):

    -3.1933   0.2799   4.3350   5.5860

          k = 0.3750-0.1250 0.3750 (  1981 PWs)   bands (ev):

    -4.1880   2.1506   4.4740   6.1109

          k = 0.2500 0.0000 0.2500 (  1971 PWs)   bands (ev):

    -4.9431   4.2044   5.1683   6.6215

          k = 0.0000 0.5000 0.0000 (  1996 PWs)   bands (ev):

    -4.3697   3.4120   4.9020   4.9020

          k =-0.1250 0.6250-0.1250 (  1984 PWs)   bands (ev):

    -3.6153   1.9000   4.0755   4.5679

          k = 0.7500-0.2500 0.7500 (  1983 PWs)   bands (ev):

    -2.6192   0.3460   3.1633   4.5753

          k = 0.6250-0.1250 0.6250 (  1981 PWs)   bands (ev):

    -2.3906   0.0585   2.6686   4.9171

          k = 0.5000 0.0000 0.5000 (  1971 PWs)   bands (ev):

    -3.3411   1.3102   2.9036   5.5156

          k = 0.0000 0.7500 0.0000 (  1988 PWs)   bands (ev):

    -2.9782   1.0730   4.1462   4.1462

          k = 0.8750-0.1250 0.8750 (  1989 PWs)   bands (ev):

    -2.0216  -0.0719   3.2389   4.0671

          k = 0.7500 0.0000 0.7500 (  1954 PWs)   bands (ev):

    -1.5295  -0.5069   2.2940   4.3420

          k = 0.0000-1.0000 0.0000 (  2012 PWs)   bands (ev):

    -1.1217  -1.1217   3.8875   3.8875

          k =-0.2500 0.5000 0.0000 (  1980 PWs)   bands (ev):

    -4.1055   2.5638   4.0159   5.4100

          k = 0.6250-0.3750 0.8750 (  1982 PWs)   bands (ev):

    -3.1550   0.9046   3.3992   4.8614

          k = 0.5000-0.2500 0.7500 (  1994 PWs)   bands (ev):

    -2.4410  -0.1261   3.2800   4.6093

          k = 0.7500-0.2500 1.0000 (  1987 PWs)   bands (ev):

    -2.7621   0.8428   3.3239   3.9608

          k = 0.6250-0.1250 0.8750 (  1976 PWs)   bands (ev):

    -1.8162  -0.1902   2.5667   3.7448

          k = 0.5000 0.0000 0.7500 (  1980 PWs)   bands (ev):

    -2.1901   0.1910   2.3847   4.1516

          k =-0.2500-1.0000 0.0000 (  1984 PWs)   bands (ev):

    -1.0290  -1.0290   3.2582   3.2582

          k =-0.5000-1.0000 0.0000 (  1964 PWs)   bands (ev):

    -0.9251  -0.9251   2.7747   2.7747

     highest occupied level (ev):     6.9215

!    total energy              =     -19.18613554 Ry
     estimated scf accuracy    <       0.00000005 Ry

     The total energy is the sum of the following terms:
     one-electron contribution =       5.64056496 Ry
     hartree contribution      =       1.05921586 Ry
     xc contribution           =      -8.70705176 Ry
     ewald contribution        =     -17.17886460 Ry

     convergence has been achieved in   5 iterations

     Writing all to output data dir ./si-dia/si-dia.save/ :
     XML data file, charge density, pseudopotentials, collected wavefunctions

     init_run     :      0.34s CPU      0.37s WALL (       1 calls)
     electrons    :      0.15s CPU      0.19s WALL (       1 calls)

     Called by init_run:
     wfcinit      :      0.01s CPU      0.02s WALL (       1 calls)
     potinit      :      0.01s CPU      0.02s WALL (       1 calls)
     hinit0       :      0.29s CPU      0.30s WALL (       1 calls)

     Called by electrons:
     c_bands      :      0.09s CPU      0.10s WALL (       6 calls)
     sum_band     :      0.03s CPU      0.03s WALL (       6 calls)
     v_of_rho     :      0.02s CPU      0.02s WALL (       6 calls)
     newd         :      0.01s CPU      0.01s WALL (       6 calls)
     mix_rho      :      0.00s CPU      0.00s WALL (       6 calls)

     Called by c_bands:
     init_us_2    :      0.00s CPU      0.00s WALL (      52 calls)
     cegterg      :      0.08s CPU      0.08s WALL (      24 calls)

     Called by *egterg:
     cdiaghg      :      0.00s CPU      0.01s WALL (     100 calls)
     h_psi        :      0.07s CPU      0.07s WALL (     108 calls)
     s_psi        :      0.00s CPU      0.00s WALL (     108 calls)
     g_psi        :      0.00s CPU      0.00s WALL (      80 calls)

     Called by h_psi:
     h_psi:calbec :      0.01s CPU      0.01s WALL (     108 calls)
     vloc_psi     :      0.06s CPU      0.06s WALL (     108 calls)
     add_vuspsi   :      0.00s CPU      0.00s WALL (     108 calls)

     General routines
     calbec       :      0.01s CPU      0.01s WALL (     132 calls)
     fft          :      0.27s CPU      0.27s WALL (      67 calls)
     ffts         :      0.00s CPU      0.00s WALL (       6 calls)
     fftw         :      0.06s CPU      0.07s WALL (     844 calls)

     Parallel routines

     PWSCF        :      0.70s CPU      0.94s WALL


   This run was terminated on:  15:30: 8   6Feb2026            

=------------------------------------------------------------------------------=
   JOB DONE.
=------------------------------------------------------------------------------=
