
     Program PWSCF v.7.3.1 starts on  9Feb2026 at 14:45:32 

     This program is part of the open-source Quantum ESPRESSO suite
     for quantum simulation of materials; please cite
         "P. Giannozzi et al., J. Phys.:Condens. Matter 21 395502 (2009);
         "P. Giannozzi et al., J. Phys.:Condens. Matter 29 465901 (2017);
         "P. Giannozzi et al., J. Chem. Phys. 152 154105 (2020);
          URL http://www.quantum-espresso.org", 
     in publications or presentations arising from this work. More details at
     http://www.quantum-espresso.org/quote

     Parallel version (MPI), running on   128 processors

     MPI processes distributed on     1 nodes
     241481 MiB available memory on the printing compute node when the environment starts

     Waiting for input...
     Reading input from standard input

     Current dimensions of program PWSCF are:
     Max number of different atomic species (ntypx) = 10
     Max number of k-points (npk) =  40000
     Max angular momentum in pseudopotentials (lmaxx) =  4

     K-points division:     npool     =       8
     R & G space division:  proc/nbgrp/npool/nimage =      16
     Subspace diagonalization in iterative solution of the eigenvalue problem:
     a serial algorithm will be used


     Parallelization info
     --------------------
     sticks:   dense  smooth     PW     G-vecs:    dense   smooth      PW
     Min          52      52     15                 1029     1029     168
     Max          53      53     16                 1034     1034     172
     Sum         847     847    253                16529    16529    2733

     Using Slab Decomposition



     bravais-lattice index     =            2
     lattice parameter (alat)  =      10.1677  a.u.
     unit-cell volume          =     262.7865 (a.u.)^3
     number of atoms/cell      =            2
     number of atomic types    =            1
     number of electrons       =         8.00
     number of Kohn-Sham states=            4
     kinetic-energy cutoff     =      60.0000  Ry
     charge density cutoff     =     240.0000  Ry
     scf convergence threshold =      1.0E-07
     mixing beta               =       0.7000
     number of iterations used =            8  plain     mixing
     Exchange-correlation=  SLA  PW   PBE  PBE
                           (   1   4   3   4   0   0   0)

     celldm(1)=  10.167660  celldm(2)=   0.000000  celldm(3)=   0.000000
     celldm(4)=   0.000000  celldm(5)=   0.000000  celldm(6)=   0.000000

     crystal axes: (cart. coord. in units of alat)
               a(1) = (  -0.500000   0.000000   0.500000 )  
               a(2) = (   0.000000   0.500000   0.500000 )  
               a(3) = (  -0.500000   0.500000   0.000000 )  

     reciprocal axes: (cart. coord. in units 2 pi/alat)
               b(1) = ( -1.000000 -1.000000  1.000000 )  
               b(2) = (  1.000000  1.000000  1.000000 )  
               b(3) = ( -1.000000  1.000000 -1.000000 )  


     PseudoPot. # 1 for Si read from file:
     ./Si.pbe-n-van.UPF
     MD5 check sum: 8a97496598b7338af554a5de8957bfee
     Pseudo is Ultrasoft + core correction, Zval =  4.0
     Generated by new atomic code, or converted to UPF format
     Using radial grid of  899 points,  6 beta functions with: 
                l(1) =   0
                l(2) =   0
                l(3) =   1
                l(4) =   1
                l(5) =   2
                l(6) =   2
     Q(r) pseudized with  8 coefficients,  rinner =    0.900   0.900   0.900
                                                       0.900   0.900

     atomic species   valence    mass     pseudopotential
     Si                4.00    28.08600     Si( 1.00)

     48 Sym. Ops., with inversion, found (24 have fractional translation)



   Cartesian axes

     site n.     atom                  positions (alat units)
         1        Si     tau(   1) = (  -0.7500000   0.7500000   0.7500000  )
         2        Si     tau(   2) = (   0.0000000   0.0000000   0.0000000  )

     number of k points=    29
                       cart. coord. in units 2pi/alat
        k(    1) = (   0.0000000   0.0000000   0.0000000), wk =   0.0039062
        k(    2) = (  -0.1250000   0.1250000  -0.1250000), wk =   0.0312500
        k(    3) = (  -0.2500000   0.2500000  -0.2500000), wk =   0.0312500
        k(    4) = (  -0.3750000   0.3750000  -0.3750000), wk =   0.0312500
        k(    5) = (   0.5000000  -0.5000000   0.5000000), wk =   0.0156250
        k(    6) = (   0.0000000   0.2500000   0.0000000), wk =   0.0234375
        k(    7) = (  -0.1250000   0.3750000  -0.1250000), wk =   0.0937500
        k(    8) = (  -0.2500000   0.5000000  -0.2500000), wk =   0.0937500
        k(    9) = (   0.6250000  -0.3750000   0.6250000), wk =   0.0937500
        k(   10) = (   0.5000000  -0.2500000   0.5000000), wk =   0.0937500
        k(   11) = (   0.3750000  -0.1250000   0.3750000), wk =   0.0937500
        k(   12) = (   0.2500000   0.0000000   0.2500000), wk =   0.0468750
        k(   13) = (   0.0000000   0.5000000   0.0000000), wk =   0.0234375
        k(   14) = (  -0.1250000   0.6250000  -0.1250000), wk =   0.0937500
        k(   15) = (   0.7500000  -0.2500000   0.7500000), wk =   0.0937500
        k(   16) = (   0.6250000  -0.1250000   0.6250000), wk =   0.0937500
        k(   17) = (   0.5000000   0.0000000   0.5000000), wk =   0.0468750
        k(   18) = (   0.0000000   0.7500000   0.0000000), wk =   0.0234375
        k(   19) = (   0.8750000  -0.1250000   0.8750000), wk =   0.0937500
        k(   20) = (   0.7500000   0.0000000   0.7500000), wk =   0.0468750
        k(   21) = (   0.0000000  -1.0000000   0.0000000), wk =   0.0117188
        k(   22) = (  -0.2500000   0.5000000   0.0000000), wk =   0.0937500
        k(   23) = (   0.6250000  -0.3750000   0.8750000), wk =   0.1875000
        k(   24) = (   0.5000000  -0.2500000   0.7500000), wk =   0.0937500
        k(   25) = (   0.7500000  -0.2500000   1.0000000), wk =   0.0937500
        k(   26) = (   0.6250000  -0.1250000   0.8750000), wk =   0.1875000
        k(   27) = (   0.5000000   0.0000000   0.7500000), wk =   0.0937500
        k(   28) = (  -0.2500000  -1.0000000   0.0000000), wk =   0.0468750
        k(   29) = (  -0.5000000  -1.0000000   0.0000000), wk =   0.0234375

     Dense  grid:    16529 G-vectors     FFT dimensions: (  36,  36,  36)

     Estimated max dynamical RAM per process >       2.43 MB

     Estimated total dynamical RAM >     283.28 MB

     Initial potential from superposition of free atoms

     starting charge       7.9987, renormalised to       8.0000
     Starting wfcs are    8 randomized atomic wfcs

     total cpu time spent up to now is        0.7 secs

     per-process dynamical memory:     9.9 Mb

     Self-consistent Calculation

     iteration #  1     ecut=    60.00 Ry     beta= 0.70
     Davidson diagonalization with overlap
     ethr =  1.00E-02,  avg # of iterations =  2.0

     Threshold (ethr) on eigenvalues was too large:
     Diagonalizing with lowered threshold

     Davidson diagonalization with overlap
     ethr =  6.81E-04,  avg # of iterations =  1.0

     total cpu time spent up to now is        0.7 secs

     total energy              =     -19.18820370 Ry
     estimated scf accuracy    <       0.05838841 Ry

     iteration #  2     ecut=    60.00 Ry     beta= 0.70
     Davidson diagonalization with overlap
     ethr =  7.30E-04,  avg # of iterations =  1.0

     total cpu time spent up to now is        0.8 secs

     total energy              =     -19.19056316 Ry
     estimated scf accuracy    <       0.00243185 Ry

     iteration #  3     ecut=    60.00 Ry     beta= 0.70
     Davidson diagonalization with overlap
     ethr =  3.04E-05,  avg # of iterations =  2.1

     total cpu time spent up to now is        0.8 secs

     total energy              =     -19.19097110 Ry
     estimated scf accuracy    <       0.00004592 Ry

     iteration #  4     ecut=    60.00 Ry     beta= 0.70
     Davidson diagonalization with overlap
     ethr =  5.74E-07,  avg # of iterations =  5.5

     total cpu time spent up to now is        0.8 secs

     total energy              =     -19.19103960 Ry
     estimated scf accuracy    <       0.00000021 Ry

     iteration #  5     ecut=    60.00 Ry     beta= 0.70
     Davidson diagonalization with overlap
     ethr =  2.68E-09,  avg # of iterations =  7.1

     total cpu time spent up to now is        0.9 secs

     End of self-consistent calculation

          k = 0.0000 0.0000 0.0000 (  2085 PWs)   bands (ev):

    -5.6632   6.4894   6.4894   6.4894

          k =-0.1250 0.1250-0.1250 (  2061 PWs)   bands (ev):

    -5.4542   4.8806   6.1923   6.1923

          k =-0.2500 0.2500-0.2500 (  2060 PWs)   bands (ev):

    -4.8437   2.5103   5.7115   5.7115

          k =-0.3750 0.3750-0.3750 (  2054 PWs)   bands (ev):

    -3.9243   0.4436   5.3791   5.3791

          k = 0.5000-0.5000 0.5000 (  2060 PWs)   bands (ev):

    -3.2612  -0.6114   5.2658   5.2658

          k = 0.0000 0.2500 0.0000 (  2045 PWs)   bands (ev):

    -5.3838   5.1808   5.6571   5.6571

          k =-0.1250 0.3750-0.1250 (  2054 PWs)   bands (ev):

    -4.9036   3.2422   5.1333   5.2271

          k =-0.2500 0.5000-0.2500 (  2057 PWs)   bands (ev):

    -4.0668   1.1313   4.6250   4.8613

          k = 0.6250-0.3750 0.6250 (  2058 PWs)   bands (ev):

    -3.1751  -0.3758   4.1679   4.8892

          k = 0.5000-0.2500 0.5000 (  2060 PWs)   bands (ev):

    -3.4295   0.0075   3.9775   5.1952

          k = 0.3750-0.1250 0.3750 (  2055 PWs)   bands (ev):

    -4.3815   1.8075   4.1236   5.7002

          k = 0.2500 0.0000 0.2500 (  2047 PWs)   bands (ev):

    -5.1097   3.7945   4.8110   6.1934

          k = 0.0000 0.5000 0.0000 (  2045 PWs)   bands (ev):

    -4.5552   2.9771   4.5473   4.5473

          k =-0.1250 0.6250-0.1250 (  2060 PWs)   bands (ev):

    -3.8272   1.5179   3.7481   4.2226

          k = 0.7500-0.2500 0.7500 (  2067 PWs)   bands (ev):

    -2.8729   0.0310   2.8649   4.2274

          k = 0.6250-0.1250 0.6250 (  2066 PWs)   bands (ev):

    -2.6590  -0.2389   2.3918   4.5552

          k = 0.5000 0.0000 0.5000 (  2065 PWs)   bands (ev):

    -3.5664   0.9580   2.6303   5.1298

          k = 0.0000 0.7500 0.0000 (  2068 PWs)   bands (ev):

    -3.2106   0.7039   3.8147   3.8147

          k = 0.8750-0.1250 0.8750 (  2068 PWs)   bands (ev):

    -2.2894  -0.4055   2.9547   3.7373

          k = 0.7500 0.0000 0.7500 (  2065 PWs)   bands (ev):

    -1.8295  -0.8174   2.0573   4.0019

          k = 0.0000-1.0000 0.0000 (  2068 PWs)   bands (ev):

    -1.4176  -1.4176   3.5637   3.5637

          k =-0.2500 0.5000 0.0000 (  2054 PWs)   bands (ev):

    -4.3010   2.1744   3.6991   5.0278

          k = 0.6250-0.3750 0.8750 (  2066 PWs)   bands (ev):

    -3.3875   0.5794   3.0871   4.5076

          k = 0.5000-0.2500 0.7500 (  2062 PWs)   bands (ev):

    -2.7106  -0.3999   2.9620   4.2690

          k = 0.7500-0.2500 1.0000 (  2067 PWs)   bands (ev):

    -3.0050   0.4802   3.0327   3.6495

          k = 0.6250-0.1250 0.8750 (  2070 PWs)   bands (ev):

    -2.1017  -0.5138   2.3109   3.4427

          k = 0.5000 0.0000 0.7500 (  2064 PWs)   bands (ev):

    -2.4617  -0.1434   2.1381   3.8309

          k =-0.2500-1.0000 0.0000 (  2076 PWs)   bands (ev):

    -1.3338  -1.3338   2.9739   2.9739

          k =-0.5000-1.0000 0.0000 (  2048 PWs)   bands (ev):

    -1.2409  -1.2409   2.5192   2.5192

     highest occupied level (ev):     6.4894

!    total energy              =     -19.19104104 Ry
     estimated scf accuracy    <       0.00000004 Ry

     The total energy is the sum of the following terms:
     one-electron contribution =       5.32721749 Ry
     hartree contribution      =       1.09319531 Ry
     xc contribution           =      -8.65794266 Ry
     ewald contribution        =     -16.95351118 Ry

     convergence has been achieved in   5 iterations

     Writing all to output data dir ./si-dia/si-dia.save/ :
     XML data file, charge density, pseudopotentials, collected wavefunctions

     init_run     :      0.34s CPU      0.37s WALL (       1 calls)
     electrons    :      0.14s CPU      0.21s WALL (       1 calls)

     Called by init_run:
     wfcinit      :      0.01s CPU      0.02s WALL (       1 calls)
     potinit      :      0.02s CPU      0.02s WALL (       1 calls)
     hinit0       :      0.28s CPU      0.29s WALL (       1 calls)

     Called by electrons:
     c_bands      :      0.07s CPU      0.11s WALL (       6 calls)
     sum_band     :      0.03s CPU      0.03s WALL (       6 calls)
     v_of_rho     :      0.02s CPU      0.02s WALL (       6 calls)
     newd         :      0.01s CPU      0.01s WALL (       6 calls)
     mix_rho      :      0.00s CPU      0.00s WALL (       6 calls)

     Called by c_bands:
     init_us_2    :      0.00s CPU      0.00s WALL (      52 calls)
     cegterg      :      0.06s CPU      0.08s WALL (      24 calls)

     Called by *egterg:
     cdiaghg      :      0.00s CPU      0.01s WALL (     100 calls)
     h_psi        :      0.06s CPU      0.08s WALL (     108 calls)
     s_psi        :      0.00s CPU      0.00s WALL (     108 calls)
     g_psi        :      0.00s CPU      0.00s WALL (      80 calls)

     Called by h_psi:
     h_psi:calbec :      0.01s CPU      0.01s WALL (     108 calls)
     vloc_psi     :      0.05s CPU      0.07s WALL (     108 calls)
     add_vuspsi   :      0.00s CPU      0.00s WALL (     108 calls)

     General routines
     calbec       :      0.01s CPU      0.01s WALL (     132 calls)
     fft          :      0.26s CPU      0.27s WALL (      67 calls)
     ffts         :      0.00s CPU      0.00s WALL (       6 calls)
     fftw         :      0.05s CPU      0.07s WALL (     872 calls)

     Parallel routines

     PWSCF        :      0.72s CPU      0.99s WALL


   This run was terminated on:  14:45:33   9Feb2026            

=------------------------------------------------------------------------------=
   JOB DONE.
=------------------------------------------------------------------------------=
