
     Program PWSCF v.7.3.1 starts on  9Feb2026 at 14:45:43 

     This program is part of the open-source Quantum ESPRESSO suite
     for quantum simulation of materials; please cite
         "P. Giannozzi et al., J. Phys.:Condens. Matter 21 395502 (2009);
         "P. Giannozzi et al., J. Phys.:Condens. Matter 29 465901 (2017);
         "P. Giannozzi et al., J. Chem. Phys. 152 154105 (2020);
          URL http://www.quantum-espresso.org", 
     in publications or presentations arising from this work. More details at
     http://www.quantum-espresso.org/quote

     Parallel version (MPI), running on   128 processors

     MPI processes distributed on     1 nodes
     241496 MiB available memory on the printing compute node when the environment starts

     Waiting for input...
     Reading input from standard input

     Current dimensions of program PWSCF are:
     Max number of different atomic species (ntypx) = 10
     Max number of k-points (npk) =  40000
     Max angular momentum in pseudopotentials (lmaxx) =  4

     K-points division:     npool     =       8
     R & G space division:  proc/nbgrp/npool/nimage =      16
     Subspace diagonalization in iterative solution of the eigenvalue problem:
     a serial algorithm will be used


     Parallelization info
     --------------------
     sticks:   dense  smooth     PW     G-vecs:    dense   smooth      PW
     Min          53      53     15                 1052     1052     168
     Max          54      54     16                 1055     1055     173
     Sum         859     859    253                16865    16865    2741

     Using Slab Decomposition



     bravais-lattice index     =            2
     lattice parameter (alat)  =      10.2292  a.u.
     unit-cell volume          =     267.5886 (a.u.)^3
     number of atoms/cell      =            2
     number of atomic types    =            1
     number of electrons       =         8.00
     number of Kohn-Sham states=            4
     kinetic-energy cutoff     =      60.0000  Ry
     charge density cutoff     =     240.0000  Ry
     scf convergence threshold =      1.0E-07
     mixing beta               =       0.7000
     number of iterations used =            8  plain     mixing
     Exchange-correlation=  SLA  PW   PBE  PBE
                           (   1   4   3   4   0   0   0)

     celldm(1)=  10.229220  celldm(2)=   0.000000  celldm(3)=   0.000000
     celldm(4)=   0.000000  celldm(5)=   0.000000  celldm(6)=   0.000000

     crystal axes: (cart. coord. in units of alat)
               a(1) = (  -0.500000   0.000000   0.500000 )  
               a(2) = (   0.000000   0.500000   0.500000 )  
               a(3) = (  -0.500000   0.500000   0.000000 )  

     reciprocal axes: (cart. coord. in units 2 pi/alat)
               b(1) = ( -1.000000 -1.000000  1.000000 )  
               b(2) = (  1.000000  1.000000  1.000000 )  
               b(3) = ( -1.000000  1.000000 -1.000000 )  


     PseudoPot. # 1 for Si read from file:
     ./Si.pbe-n-van.UPF
     MD5 check sum: 8a97496598b7338af554a5de8957bfee
     Pseudo is Ultrasoft + core correction, Zval =  4.0
     Generated by new atomic code, or converted to UPF format
     Using radial grid of  899 points,  6 beta functions with: 
                l(1) =   0
                l(2) =   0
                l(3) =   1
                l(4) =   1
                l(5) =   2
                l(6) =   2
     Q(r) pseudized with  8 coefficients,  rinner =    0.900   0.900   0.900
                                                       0.900   0.900

     atomic species   valence    mass     pseudopotential
     Si                4.00    28.08600     Si( 1.00)

     48 Sym. Ops., with inversion, found (24 have fractional translation)



   Cartesian axes

     site n.     atom                  positions (alat units)
         1        Si     tau(   1) = (  -0.7500000   0.7500000   0.7500000  )
         2        Si     tau(   2) = (   0.0000000   0.0000000   0.0000000  )

     number of k points=    29
                       cart. coord. in units 2pi/alat
        k(    1) = (   0.0000000   0.0000000   0.0000000), wk =   0.0039062
        k(    2) = (  -0.1250000   0.1250000  -0.1250000), wk =   0.0312500
        k(    3) = (  -0.2500000   0.2500000  -0.2500000), wk =   0.0312500
        k(    4) = (  -0.3750000   0.3750000  -0.3750000), wk =   0.0312500
        k(    5) = (   0.5000000  -0.5000000   0.5000000), wk =   0.0156250
        k(    6) = (   0.0000000   0.2500000   0.0000000), wk =   0.0234375
        k(    7) = (  -0.1250000   0.3750000  -0.1250000), wk =   0.0937500
        k(    8) = (  -0.2500000   0.5000000  -0.2500000), wk =   0.0937500
        k(    9) = (   0.6250000  -0.3750000   0.6250000), wk =   0.0937500
        k(   10) = (   0.5000000  -0.2500000   0.5000000), wk =   0.0937500
        k(   11) = (   0.3750000  -0.1250000   0.3750000), wk =   0.0937500
        k(   12) = (   0.2500000   0.0000000   0.2500000), wk =   0.0468750
        k(   13) = (   0.0000000   0.5000000   0.0000000), wk =   0.0234375
        k(   14) = (  -0.1250000   0.6250000  -0.1250000), wk =   0.0937500
        k(   15) = (   0.7500000  -0.2500000   0.7500000), wk =   0.0937500
        k(   16) = (   0.6250000  -0.1250000   0.6250000), wk =   0.0937500
        k(   17) = (   0.5000000   0.0000000   0.5000000), wk =   0.0468750
        k(   18) = (   0.0000000   0.7500000   0.0000000), wk =   0.0234375
        k(   19) = (   0.8750000  -0.1250000   0.8750000), wk =   0.0937500
        k(   20) = (   0.7500000   0.0000000   0.7500000), wk =   0.0468750
        k(   21) = (   0.0000000  -1.0000000   0.0000000), wk =   0.0117188
        k(   22) = (  -0.2500000   0.5000000   0.0000000), wk =   0.0937500
        k(   23) = (   0.6250000  -0.3750000   0.8750000), wk =   0.1875000
        k(   24) = (   0.5000000  -0.2500000   0.7500000), wk =   0.0937500
        k(   25) = (   0.7500000  -0.2500000   1.0000000), wk =   0.0937500
        k(   26) = (   0.6250000  -0.1250000   0.8750000), wk =   0.1875000
        k(   27) = (   0.5000000   0.0000000   0.7500000), wk =   0.0937500
        k(   28) = (  -0.2500000  -1.0000000   0.0000000), wk =   0.0468750
        k(   29) = (  -0.5000000  -1.0000000   0.0000000), wk =   0.0234375

     Dense  grid:    16865 G-vectors     FFT dimensions: (  36,  36,  36)

     Estimated max dynamical RAM per process >       2.45 MB

     Estimated total dynamical RAM >     284.90 MB

     Initial potential from superposition of free atoms

     starting charge       7.9987, renormalised to       8.0000
     Starting wfcs are    8 randomized atomic wfcs

     total cpu time spent up to now is        0.7 secs

     per-process dynamical memory:     9.9 Mb

     Self-consistent Calculation

     iteration #  1     ecut=    60.00 Ry     beta= 0.70
     Davidson diagonalization with overlap
     ethr =  1.00E-02,  avg # of iterations =  2.0

     Threshold (ethr) on eigenvalues was too large:
     Diagonalizing with lowered threshold

     Davidson diagonalization with overlap
     ethr =  6.61E-04,  avg # of iterations =  1.0

     total cpu time spent up to now is        0.7 secs

     total energy              =     -19.18964540 Ry
     estimated scf accuracy    <       0.05669647 Ry

     iteration #  2     ecut=    60.00 Ry     beta= 0.70
     Davidson diagonalization with overlap
     ethr =  7.09E-04,  avg # of iterations =  1.0

     total cpu time spent up to now is        0.8 secs

     total energy              =     -19.19184468 Ry
     estimated scf accuracy    <       0.00243812 Ry

     iteration #  3     ecut=    60.00 Ry     beta= 0.70
     Davidson diagonalization with overlap
     ethr =  3.05E-05,  avg # of iterations =  2.0

     total cpu time spent up to now is        0.8 secs

     total energy              =     -19.19222647 Ry
     estimated scf accuracy    <       0.00004477 Ry

     iteration #  4     ecut=    60.00 Ry     beta= 0.70
     Davidson diagonalization with overlap
     ethr =  5.60E-07,  avg # of iterations =  5.6

     total cpu time spent up to now is        0.8 secs

     total energy              =     -19.19229644 Ry
     estimated scf accuracy    <       0.00000020 Ry

     iteration #  5     ecut=    60.00 Ry     beta= 0.70
     Davidson diagonalization with overlap
     ethr =  2.49E-09,  avg # of iterations =  7.2

     total cpu time spent up to now is        0.8 secs

     End of self-consistent calculation

          k = 0.0000 0.0000 0.0000 (  2085 PWs)   bands (ev):

    -5.7287   6.2971   6.2971   6.2971

          k =-0.1250 0.1250-0.1250 (  2094 PWs)   bands (ev):

    -5.5229   4.6957   6.0053   6.0053

          k =-0.2500 0.2500-0.2500 (  2091 PWs)   bands (ev):

    -4.9222   2.3532   5.5310   5.5310

          k =-0.3750 0.3750-0.3750 (  2099 PWs)   bands (ev):

    -4.0197   0.3173   5.2020   5.2020

          k = 0.5000-0.5000 0.5000 (  2120 PWs)   bands (ev):

    -3.3734  -0.7161   5.0896   5.0896

          k = 0.0000 0.2500 0.0000 (  2093 PWs)   bands (ev):

    -5.4535   4.9727   5.4817   5.4817

          k =-0.1250 0.3750-0.1250 (  2089 PWs)   bands (ev):

    -4.9809   3.0660   4.9658   5.0481

          k =-0.2500 0.5000-0.2500 (  2102 PWs)   bands (ev):

    -4.1585   0.9883   4.4530   4.6963

          k = 0.6250-0.3750 0.6250 (  2094 PWs)   bands (ev):

    -3.2869  -0.4899   4.0034   4.7218

          k = 0.5000-0.2500 0.5000 (  2098 PWs)   bands (ev):

    -3.5347  -0.1150   3.8188   5.0215

          k = 0.3750-0.1250 0.3750 (  2094 PWs)   bands (ev):

    -4.4677   1.6533   3.9680   5.5177

          k = 0.2500 0.0000 0.2500 (  2079 PWs)   bands (ev):

    -5.1838   3.6103   4.6520   6.0030

          k = 0.0000 0.5000 0.0000 (  2085 PWs)   bands (ev):

    -4.6378   2.7825   4.3895   4.3895

          k =-0.1250 0.6250-0.1250 (  2095 PWs)   bands (ev):

    -3.9216   1.3467   3.6028   4.0691

          k = 0.7500-0.2500 0.7500 (  2101 PWs)   bands (ev):

    -2.9860  -0.1105   2.7328   4.0727

          k = 0.6250-0.1250 0.6250 (  2102 PWs)   bands (ev):

    -2.7785  -0.3728   2.2693   4.3944

          k = 0.5000 0.0000 0.5000 (  2099 PWs)   bands (ev):

    -3.6668   0.8002   2.5090   4.9583

          k = 0.0000 0.7500 0.0000 (  2104 PWs)   bands (ev):

    -3.3143   0.5389   3.6674   3.6674

          k = 0.8750-0.1250 0.8750 (  2101 PWs)   bands (ev):

    -2.4089  -0.5545   2.8283   3.5908

          k = 0.7500 0.0000 0.7500 (  2097 PWs)   bands (ev):

    -1.9630  -0.9562   1.9519   3.8508

          k = 0.0000-1.0000 0.0000 (  2100 PWs)   bands (ev):

    -1.5497  -1.5497   3.4199   3.4199

          k =-0.2500 0.5000 0.0000 (  2088 PWs)   bands (ev):

    -4.3880   1.9998   3.5583   4.8580

          k = 0.6250-0.3750 0.8750 (  2095 PWs)   bands (ev):

    -3.4912   0.4332   2.9490   4.3502

          k = 0.5000-0.2500 0.7500 (  2100 PWs)   bands (ev):

    -2.8305  -0.5234   2.8214   4.1175

          k = 0.7500-0.2500 1.0000 (  2101 PWs)   bands (ev):

    -3.1133   0.3183   2.9033   3.5109

          k = 0.6250-0.1250 0.8750 (  2115 PWs)   bands (ev):

    -2.2289  -0.6585   2.1973   3.3081

          k = 0.5000 0.0000 0.7500 (  2107 PWs)   bands (ev):

    -2.5827  -0.2928   2.0285   3.6882

          k =-0.2500-1.0000 0.0000 (  2110 PWs)   bands (ev):

    -1.4698  -1.4698   2.8474   2.8474

          k =-0.5000-1.0000 0.0000 (  2120 PWs)   bands (ev):

    -1.3816  -1.3816   2.4053   2.4053

     highest occupied level (ev):     6.2971

!    total energy              =     -19.19229792 Ry
     estimated scf accuracy    <       0.00000004 Ry

     The total energy is the sum of the following terms:
     one-electron contribution =       5.18624360 Ry
     hartree contribution      =       1.10889375 Ry
     xc contribution           =      -8.63595125 Ry
     ewald contribution        =     -16.85148403 Ry

     convergence has been achieved in   5 iterations

     Writing all to output data dir ./si-dia/si-dia.save/ :
     XML data file, charge density, pseudopotentials, collected wavefunctions

     init_run     :      0.34s CPU      0.37s WALL (       1 calls)
     electrons    :      0.14s CPU      0.20s WALL (       1 calls)

     Called by init_run:
     wfcinit      :      0.02s CPU      0.02s WALL (       1 calls)
     potinit      :      0.01s CPU      0.02s WALL (       1 calls)
     hinit0       :      0.28s CPU      0.29s WALL (       1 calls)

     Called by electrons:
     c_bands      :      0.08s CPU      0.11s WALL (       6 calls)
     sum_band     :      0.03s CPU      0.03s WALL (       6 calls)
     v_of_rho     :      0.02s CPU      0.02s WALL (       6 calls)
     newd         :      0.01s CPU      0.01s WALL (       6 calls)
     mix_rho      :      0.00s CPU      0.00s WALL (       6 calls)

     Called by c_bands:
     init_us_2    :      0.00s CPU      0.00s WALL (      52 calls)
     cegterg      :      0.07s CPU      0.09s WALL (      24 calls)

     Called by *egterg:
     cdiaghg      :      0.00s CPU      0.01s WALL (     103 calls)
     h_psi        :      0.08s CPU      0.09s WALL (     111 calls)
     s_psi        :      0.00s CPU      0.00s WALL (     111 calls)
     g_psi        :      0.00s CPU      0.00s WALL (      83 calls)

     Called by h_psi:
     h_psi:calbec :      0.01s CPU      0.01s WALL (     111 calls)
     vloc_psi     :      0.06s CPU      0.07s WALL (     111 calls)
     add_vuspsi   :      0.00s CPU      0.00s WALL (     111 calls)

     General routines
     calbec       :      0.01s CPU      0.01s WALL (     135 calls)
     fft          :      0.26s CPU      0.27s WALL (      67 calls)
     ffts         :      0.00s CPU      0.00s WALL (       6 calls)
     fftw         :      0.07s CPU      0.07s WALL (     900 calls)

     Parallel routines

     PWSCF        :      0.70s CPU      0.97s WALL


   This run was terminated on:  14:45:44   9Feb2026            

=------------------------------------------------------------------------------=
   JOB DONE.
=------------------------------------------------------------------------------=
