
     Program PWSCF v.7.3.1 starts on 25Feb2026 at 19:49:30 

     This program is part of the open-source Quantum ESPRESSO suite
     for quantum simulation of materials; please cite
         "P. Giannozzi et al., J. Phys.:Condens. Matter 21 395502 (2009);
         "P. Giannozzi et al., J. Phys.:Condens. Matter 29 465901 (2017);
         "P. Giannozzi et al., J. Chem. Phys. 152 154105 (2020);
          URL http://www.quantum-espresso.org", 
     in publications or presentations arising from this work. More details at
     http://www.quantum-espresso.org/quote

     Parallel version (MPI), running on   128 processors

     MPI processes distributed on     1 nodes
     239377 MiB available memory on the printing compute node when the environment starts

     Waiting for input...
     Reading input from standard input
     Message from routine read_cards :
     DEPRECATED: no units specified in ATOMIC_POSITIONS card
     Message from routine read_cards :
     ATOMIC_POSITIONS: units set to alat

     Current dimensions of program PWSCF are:
     Max number of different atomic species (ntypx) = 10
     Max number of k-points (npk) =  40000
     Max angular momentum in pseudopotentials (lmaxx) =  4

     K-points division:     npool     =       4
     R & G space division:  proc/nbgrp/npool/nimage =      32
     Subspace diagonalization in iterative solution of the eigenvalue problem:
     a serial algorithm will be used


     Parallelization info
     --------------------
     sticks:   dense  smooth     PW     G-vecs:    dense   smooth      PW
     Min         248     248     65                14652    14652    2020
     Max         249     249     66                14655    14655    2025
     Sum        7963    7963   2107               468905   468905   64767

     Using Slab Decomposition



     bravais-lattice index     =            2
     lattice parameter (alat)  =      12.4991  a.u.
     unit-cell volume          =     488.1711 (a.u.)^3
     number of atoms/cell      =            2
     number of atomic types    =            1
     number of electrons       =        28.00
     number of Kohn-Sham states=           14
     kinetic-energy cutoff     =     370.0000  Ry
     charge density cutoff     =    1480.0000  Ry
     scf convergence threshold =      1.0E-07
     mixing beta               =       0.7000
     number of iterations used =            8  plain     mixing
     Exchange-correlation=  SLA  PW   GGX  GGC
                           (   1   4   2   2   0   0   0)

     celldm(1)=  12.499060  celldm(2)=   0.000000  celldm(3)=   0.000000
     celldm(4)=   0.000000  celldm(5)=   0.000000  celldm(6)=   0.000000

     crystal axes: (cart. coord. in units of alat)
               a(1) = (  -0.500000   0.000000   0.500000 )  
               a(2) = (   0.000000   0.500000   0.500000 )  
               a(3) = (  -0.500000   0.500000   0.000000 )  

     reciprocal axes: (cart. coord. in units 2 pi/alat)
               b(1) = ( -1.000000 -1.000000  1.000000 )  
               b(2) = (  1.000000  1.000000  1.000000 )  
               b(3) = ( -1.000000  1.000000 -1.000000 )  


     PseudoPot. # 1 for Sn read from file:
     ./Sn.pw91-n-van.UPF
     MD5 check sum: a38d2a872edd1a4efd76c0a1a38f7031
     Pseudo is Ultrasoft + core correction, Zval = 14.0
     Generated by new atomic code, or converted to UPF format
     Using radial grid of  891 points,  6 beta functions with: 
                l(1) =   0
                l(2) =   0
                l(3) =   1
                l(4) =   1
                l(5) =   2
                l(6) =   2
     Q(r) pseudized with  8 coefficients,  rinner =    1.100   1.100   1.100
                                                       1.100   1.100

     atomic species   valence    mass     pseudopotential
     Sn               14.00   118.70000     Sn( 1.00)

     48 Sym. Ops., with inversion, found (24 have fractional translation)



   Cartesian axes

     site n.     atom                  positions (alat units)
         1        Sn     tau(   1) = (   0.0000000   0.0000000   0.0000000  )
         2        Sn     tau(   2) = (   0.2500000   0.2500000   0.2500000  )

     number of k points=   104

     Number of k-points >= 100: set verbosity='high' to print them.

     Dense  grid:   468905 G-vectors     FFT dimensions: ( 120, 120, 120)

     Estimated max dynamical RAM per process >      35.39 MB

     Estimated total dynamical RAM >       4.09 GB

     Initial potential from superposition of free atoms

     starting charge      27.9964, renormalised to      28.0000
     Starting wfcs are   18 randomized atomic wfcs

     total cpu time spent up to now is        2.8 secs

     per-process dynamical memory:    32.3 Mb

     Self-consistent Calculation

     iteration #  1     ecut=   370.00 Ry     beta= 0.70
     Davidson diagonalization with overlap
     ethr =  1.00E-02,  avg # of iterations =  2.7

     Threshold (ethr) on eigenvalues was too large:
     Diagonalizing with lowered threshold

     Davidson diagonalization with overlap
     ethr =  6.05E-05,  avg # of iterations =  4.2

     negative rho (up, down):  3.392E-08 0.000E+00

     total cpu time spent up to now is        8.1 secs

     total energy              =    -325.56926330 Ry
     estimated scf accuracy    <       0.02007126 Ry

     iteration #  2     ecut=   370.00 Ry     beta= 0.70
     Davidson diagonalization with overlap
     ethr =  7.17E-05,  avg # of iterations =  4.9

     total cpu time spent up to now is       11.6 secs

     total energy              =    -325.62288136 Ry
     estimated scf accuracy    <       0.02994189 Ry

     iteration #  3     ecut=   370.00 Ry     beta= 0.70
     Davidson diagonalization with overlap
     ethr =  7.17E-05,  avg # of iterations =  1.7

     total cpu time spent up to now is       13.8 secs

     total energy              =    -325.64959147 Ry
     estimated scf accuracy    <       0.01239888 Ry

     iteration #  4     ecut=   370.00 Ry     beta= 0.70
     Davidson diagonalization with overlap
     ethr =  4.43E-05,  avg # of iterations =  2.2

     total cpu time spent up to now is       16.2 secs

     total energy              =    -325.65444303 Ry
     estimated scf accuracy    <       0.00011741 Ry

     iteration #  5     ecut=   370.00 Ry     beta= 0.70
     Davidson diagonalization with overlap
     ethr =  4.19E-07,  avg # of iterations =  3.8

     total cpu time spent up to now is       19.0 secs

     total energy              =    -325.65513434 Ry
     estimated scf accuracy    <       0.00009326 Ry

     iteration #  6     ecut=   370.00 Ry     beta= 0.70
     Davidson diagonalization with overlap
     ethr =  3.33E-07,  avg # of iterations =  2.0

     total cpu time spent up to now is       21.3 secs

     total energy              =    -325.65521338 Ry
     estimated scf accuracy    <       0.00000040 Ry

     iteration #  7     ecut=   370.00 Ry     beta= 0.70
     Davidson diagonalization with overlap
     ethr =  1.43E-09,  avg # of iterations =  4.2

     total cpu time spent up to now is       24.5 secs

     total energy              =    -325.65521802 Ry
     estimated scf accuracy    <       0.00000041 Ry

     iteration #  8     ecut=   370.00 Ry     beta= 0.70
     Davidson diagonalization with overlap
     ethr =  1.43E-09,  avg # of iterations =  2.1

     total cpu time spent up to now is       26.8 secs

     End of self-consistent calculation

     Number of k-points >= 100: set verbosity='high' to print the bands.

     highest occupied level (ev):     7.2108

!    total energy              =    -325.65521825 Ry
     estimated scf accuracy    <       0.00000005 Ry

     The total energy is the sum of the following terms:
     one-electron contribution =    -156.97208795 Ry
     hartree contribution      =      95.41835374 Ry
     xc contribution           =     -95.15879289 Ry
     ewald contribution        =    -168.94269115 Ry

     convergence has been achieved in   8 iterations

     Writing all to output data dir ./alpha-EOS/alpha.save/ :
     XML data file, charge density, pseudopotentials, collected wavefunctions

     init_run     :      2.47s CPU      2.56s WALL (       1 calls)
     electrons    :     23.60s CPU     24.06s WALL (       1 calls)

     Called by init_run:
     wfcinit      :      0.98s CPU      0.99s WALL (       1 calls)
     potinit      :      0.08s CPU      0.09s WALL (       1 calls)
     hinit0       :      0.89s CPU      0.92s WALL (       1 calls)

     Called by electrons:
     c_bands      :     19.22s CPU     19.52s WALL (       9 calls)
     sum_band     :      3.58s CPU      3.62s WALL (       9 calls)
     v_of_rho     :      0.55s CPU      0.58s WALL (       9 calls)
     newd         :      0.21s CPU      0.23s WALL (       9 calls)
     mix_rho      :      0.07s CPU      0.07s WALL (       9 calls)

     Called by c_bands:
     init_us_2    :      0.48s CPU      0.49s WALL (     494 calls)
     cegterg      :     18.04s CPU     18.22s WALL (     234 calls)

     Called by *egterg:
     cdiaghg      :      0.38s CPU      0.39s WALL (    1014 calls)
     h_psi        :     16.41s CPU     16.56s WALL (    1066 calls)
     s_psi        :      0.32s CPU      0.32s WALL (    1066 calls)
     g_psi        :      0.04s CPU      0.04s WALL (     806 calls)

     Called by h_psi:
     h_psi:calbec :      0.79s CPU      0.80s WALL (    1066 calls)
     vloc_psi     :     15.14s CPU     15.29s WALL (    1066 calls)
     add_vuspsi   :      0.36s CPU      0.36s WALL (    1066 calls)

     General routines
     calbec       :      0.92s CPU      0.93s WALL (    1300 calls)
     fft          :      1.14s CPU      1.17s WALL (     100 calls)
     ffts         :      0.02s CPU      0.03s WALL (       9 calls)
     fftw         :     15.32s CPU     15.46s WALL (   21316 calls)

     Parallel routines

     PWSCF        :     26.92s CPU     29.09s WALL


   This run was terminated on:  19:49:59  25Feb2026            

=------------------------------------------------------------------------------=
   JOB DONE.
=------------------------------------------------------------------------------=
