
     Program PWSCF v.7.3.1 starts on 25Feb2026 at 19:50: 2 

     This program is part of the open-source Quantum ESPRESSO suite
     for quantum simulation of materials; please cite
         "P. Giannozzi et al., J. Phys.:Condens. Matter 21 395502 (2009);
         "P. Giannozzi et al., J. Phys.:Condens. Matter 29 465901 (2017);
         "P. Giannozzi et al., J. Chem. Phys. 152 154105 (2020);
          URL http://www.quantum-espresso.org", 
     in publications or presentations arising from this work. More details at
     http://www.quantum-espresso.org/quote

     Parallel version (MPI), running on   128 processors

     MPI processes distributed on     1 nodes
     239394 MiB available memory on the printing compute node when the environment starts

     Waiting for input...
     Reading input from standard input
     Message from routine read_cards :
     DEPRECATED: no units specified in ATOMIC_POSITIONS card
     Message from routine read_cards :
     ATOMIC_POSITIONS: units set to alat

     Current dimensions of program PWSCF are:
     Max number of different atomic species (ntypx) = 10
     Max number of k-points (npk) =  40000
     Max angular momentum in pseudopotentials (lmaxx) =  4

     K-points division:     npool     =       4
     R & G space division:  proc/nbgrp/npool/nimage =      32
     Subspace diagonalization in iterative solution of the eigenvalue problem:
     a serial algorithm will be used


     Parallelization info
     --------------------
     sticks:   dense  smooth     PW     G-vecs:    dense   smooth      PW
     Min         250     250     67                14753    14753    2044
     Max         251     251     68                14755    14755    2045
     Sum        8011    8011   2149               472145   472145   65427

     Using Slab Decomposition



     bravais-lattice index     =            2
     lattice parameter (alat)  =      12.5235  a.u.
     unit-cell volume          =     491.0427 (a.u.)^3
     number of atoms/cell      =            2
     number of atomic types    =            1
     number of electrons       =        28.00
     number of Kohn-Sham states=           14
     kinetic-energy cutoff     =     370.0000  Ry
     charge density cutoff     =    1480.0000  Ry
     scf convergence threshold =      1.0E-07
     mixing beta               =       0.7000
     number of iterations used =            8  plain     mixing
     Exchange-correlation=  SLA  PW   GGX  GGC
                           (   1   4   2   2   0   0   0)

     celldm(1)=  12.523520  celldm(2)=   0.000000  celldm(3)=   0.000000
     celldm(4)=   0.000000  celldm(5)=   0.000000  celldm(6)=   0.000000

     crystal axes: (cart. coord. in units of alat)
               a(1) = (  -0.500000   0.000000   0.500000 )  
               a(2) = (   0.000000   0.500000   0.500000 )  
               a(3) = (  -0.500000   0.500000   0.000000 )  

     reciprocal axes: (cart. coord. in units 2 pi/alat)
               b(1) = ( -1.000000 -1.000000  1.000000 )  
               b(2) = (  1.000000  1.000000  1.000000 )  
               b(3) = ( -1.000000  1.000000 -1.000000 )  


     PseudoPot. # 1 for Sn read from file:
     ./Sn.pw91-n-van.UPF
     MD5 check sum: a38d2a872edd1a4efd76c0a1a38f7031
     Pseudo is Ultrasoft + core correction, Zval = 14.0
     Generated by new atomic code, or converted to UPF format
     Using radial grid of  891 points,  6 beta functions with: 
                l(1) =   0
                l(2) =   0
                l(3) =   1
                l(4) =   1
                l(5) =   2
                l(6) =   2
     Q(r) pseudized with  8 coefficients,  rinner =    1.100   1.100   1.100
                                                       1.100   1.100

     atomic species   valence    mass     pseudopotential
     Sn               14.00   118.70000     Sn( 1.00)

     48 Sym. Ops., with inversion, found (24 have fractional translation)



   Cartesian axes

     site n.     atom                  positions (alat units)
         1        Sn     tau(   1) = (   0.0000000   0.0000000   0.0000000  )
         2        Sn     tau(   2) = (   0.2500000   0.2500000   0.2500000  )

     number of k points=   104

     Number of k-points >= 100: set verbosity='high' to print them.

     Dense  grid:   472145 G-vectors     FFT dimensions: ( 120, 120, 120)

     Estimated max dynamical RAM per process >      35.57 MB

     Estimated total dynamical RAM >       4.11 GB

     Initial potential from superposition of free atoms

     starting charge      27.9964, renormalised to      28.0000

     negative rho (up, down):  2.079E-07 0.000E+00
     Starting wfcs are   18 randomized atomic wfcs

     total cpu time spent up to now is        2.8 secs

     per-process dynamical memory:    32.7 Mb

     Self-consistent Calculation

     iteration #  1     ecut=   370.00 Ry     beta= 0.70
     Davidson diagonalization with overlap
     ethr =  1.00E-02,  avg # of iterations =  2.7

     Threshold (ethr) on eigenvalues was too large:
     Diagonalizing with lowered threshold

     Davidson diagonalization with overlap
     ethr =  6.10E-05,  avg # of iterations =  4.2

     negative rho (up, down):  2.382E-07 0.000E+00

     total cpu time spent up to now is        8.3 secs

     total energy              =    -325.57100087 Ry
     estimated scf accuracy    <       0.02013834 Ry

     iteration #  2     ecut=   370.00 Ry     beta= 0.70
     Davidson diagonalization with overlap
     ethr =  7.19E-05,  avg # of iterations =  5.0

     total cpu time spent up to now is       11.8 secs

     total energy              =    -325.62392494 Ry
     estimated scf accuracy    <       0.02956658 Ry

     iteration #  3     ecut=   370.00 Ry     beta= 0.70
     Davidson diagonalization with overlap
     ethr =  7.19E-05,  avg # of iterations =  1.8

     total cpu time spent up to now is       14.0 secs

     total energy              =    -325.65065348 Ry
     estimated scf accuracy    <       0.01223943 Ry

     iteration #  4     ecut=   370.00 Ry     beta= 0.70
     Davidson diagonalization with overlap
     ethr =  4.37E-05,  avg # of iterations =  2.2

     total cpu time spent up to now is       16.4 secs

     total energy              =    -325.65502470 Ry
     estimated scf accuracy    <       0.00012709 Ry

     iteration #  5     ecut=   370.00 Ry     beta= 0.70
     Davidson diagonalization with overlap
     ethr =  4.54E-07,  avg # of iterations =  3.7

     total cpu time spent up to now is       19.2 secs

     total energy              =    -325.65524807 Ry
     estimated scf accuracy    <       0.00009358 Ry

     iteration #  6     ecut=   370.00 Ry     beta= 0.70
     Davidson diagonalization with overlap
     ethr =  3.34E-07,  avg # of iterations =  2.0

     total cpu time spent up to now is       21.6 secs

     total energy              =    -325.65527687 Ry
     estimated scf accuracy    <       0.00000084 Ry

     iteration #  7     ecut=   370.00 Ry     beta= 0.70
     Davidson diagonalization with overlap
     ethr =  3.00E-09,  avg # of iterations =  3.9

     total cpu time spent up to now is       24.3 secs

     total energy              =    -325.65528142 Ry
     estimated scf accuracy    <       0.00000080 Ry

     iteration #  8     ecut=   370.00 Ry     beta= 0.70
     Davidson diagonalization with overlap
     ethr =  2.87E-09,  avg # of iterations =  2.0

     total cpu time spent up to now is       26.7 secs

     End of self-consistent calculation

     Number of k-points >= 100: set verbosity='high' to print the bands.

     highest occupied level (ev):     7.1408

!    total energy              =    -325.65528156 Ry
     estimated scf accuracy    <       0.00000007 Ry

     The total energy is the sum of the following terms:
     one-electron contribution =    -157.51035946 Ry
     hartree contribution      =      95.62087515 Ry
     xc contribution           =     -95.15307228 Ry
     ewald contribution        =    -168.61272496 Ry

     convergence has been achieved in   8 iterations

     Writing all to output data dir ./alpha-EOS/alpha.save/ :
     XML data file, charge density, pseudopotentials, collected wavefunctions

     init_run     :      2.45s CPU      2.55s WALL (       1 calls)
     electrons    :     23.40s CPU     23.94s WALL (       1 calls)

     Called by init_run:
     wfcinit      :      0.98s CPU      1.01s WALL (       1 calls)
     potinit      :      0.07s CPU      0.09s WALL (       1 calls)
     hinit0       :      0.91s CPU      0.93s WALL (       1 calls)

     Called by electrons:
     c_bands      :     18.98s CPU     19.33s WALL (       9 calls)
     sum_band     :      3.60s CPU      3.67s WALL (       9 calls)
     v_of_rho     :      0.54s CPU      0.58s WALL (       9 calls)
     newd         :      0.23s CPU      0.24s WALL (       9 calls)
     mix_rho      :      0.07s CPU      0.07s WALL (       9 calls)

     Called by c_bands:
     init_us_2    :      0.48s CPU      0.50s WALL (     494 calls)
     cegterg      :     17.72s CPU     17.91s WALL (     234 calls)

     Called by *egterg:
     cdiaghg      :      0.37s CPU      0.37s WALL (    1004 calls)
     h_psi        :     16.17s CPU     16.34s WALL (    1056 calls)
     s_psi        :      0.31s CPU      0.31s WALL (    1056 calls)
     g_psi        :      0.04s CPU      0.04s WALL (     796 calls)

     Called by h_psi:
     h_psi:calbec :      0.79s CPU      0.79s WALL (    1056 calls)
     vloc_psi     :     14.92s CPU     15.07s WALL (    1056 calls)
     add_vuspsi   :      0.36s CPU      0.36s WALL (    1056 calls)

     General routines
     calbec       :      0.92s CPU      0.93s WALL (    1290 calls)
     fft          :      1.11s CPU      1.16s WALL (     100 calls)
     ffts         :      0.03s CPU      0.03s WALL (       9 calls)
     fftw         :     15.14s CPU     15.30s WALL (   20810 calls)

     Parallel routines

     PWSCF        :     26.62s CPU     28.91s WALL


   This run was terminated on:  19:50:31  25Feb2026            

=------------------------------------------------------------------------------=
   JOB DONE.
=------------------------------------------------------------------------------=
