
     Program PWSCF v.7.3.1 starts on 25Feb2026 at 19:52:57 

     This program is part of the open-source Quantum ESPRESSO suite
     for quantum simulation of materials; please cite
         "P. Giannozzi et al., J. Phys.:Condens. Matter 21 395502 (2009);
         "P. Giannozzi et al., J. Phys.:Condens. Matter 29 465901 (2017);
         "P. Giannozzi et al., J. Chem. Phys. 152 154105 (2020);
          URL http://www.quantum-espresso.org", 
     in publications or presentations arising from this work. More details at
     http://www.quantum-espresso.org/quote

     Parallel version (MPI), running on   128 processors

     MPI processes distributed on     1 nodes
     239407 MiB available memory on the printing compute node when the environment starts

     Waiting for input...
     Reading input from standard input
     Message from routine read_cards :
     DEPRECATED: no units specified in ATOMIC_POSITIONS card
     Message from routine read_cards :
     ATOMIC_POSITIONS: units set to alat

     Current dimensions of program PWSCF are:
     Max number of different atomic species (ntypx) = 10
     Max number of k-points (npk) =  40000
     Max angular momentum in pseudopotentials (lmaxx) =  4

     K-points division:     npool     =       4
     R & G space division:  proc/nbgrp/npool/nimage =      32
     Subspace diagonalization in iterative solution of the eigenvalue problem:
     a serial algorithm will be used


     Parallelization info
     --------------------
     sticks:   dense  smooth     PW     G-vecs:    dense   smooth      PW
     Min         254     254     68                15193    15193    2095
     Max         255     255     69                15199    15199    2098
     Sum        8137    8137   2185               486257   486257   67097

     Using Slab Decomposition



     bravais-lattice index     =            2
     lattice parameter (alat)  =      12.6458  a.u.
     unit-cell volume          =     505.5697 (a.u.)^3
     number of atoms/cell      =            2
     number of atomic types    =            1
     number of electrons       =        28.00
     number of Kohn-Sham states=           14
     kinetic-energy cutoff     =     370.0000  Ry
     charge density cutoff     =    1480.0000  Ry
     scf convergence threshold =      1.0E-07
     mixing beta               =       0.7000
     number of iterations used =            8  plain     mixing
     Exchange-correlation=  SLA  PW   GGX  GGC
                           (   1   4   2   2   0   0   0)

     celldm(1)=  12.645820  celldm(2)=   0.000000  celldm(3)=   0.000000
     celldm(4)=   0.000000  celldm(5)=   0.000000  celldm(6)=   0.000000

     crystal axes: (cart. coord. in units of alat)
               a(1) = (  -0.500000   0.000000   0.500000 )  
               a(2) = (   0.000000   0.500000   0.500000 )  
               a(3) = (  -0.500000   0.500000   0.000000 )  

     reciprocal axes: (cart. coord. in units 2 pi/alat)
               b(1) = ( -1.000000 -1.000000  1.000000 )  
               b(2) = (  1.000000  1.000000  1.000000 )  
               b(3) = ( -1.000000  1.000000 -1.000000 )  


     PseudoPot. # 1 for Sn read from file:
     ./Sn.pw91-n-van.UPF
     MD5 check sum: a38d2a872edd1a4efd76c0a1a38f7031
     Pseudo is Ultrasoft + core correction, Zval = 14.0
     Generated by new atomic code, or converted to UPF format
     Using radial grid of  891 points,  6 beta functions with: 
                l(1) =   0
                l(2) =   0
                l(3) =   1
                l(4) =   1
                l(5) =   2
                l(6) =   2
     Q(r) pseudized with  8 coefficients,  rinner =    1.100   1.100   1.100
                                                       1.100   1.100

     atomic species   valence    mass     pseudopotential
     Sn               14.00   118.70000     Sn( 1.00)

     48 Sym. Ops., with inversion, found (24 have fractional translation)



   Cartesian axes

     site n.     atom                  positions (alat units)
         1        Sn     tau(   1) = (   0.0000000   0.0000000   0.0000000  )
         2        Sn     tau(   2) = (   0.2500000   0.2500000   0.2500000  )

     number of k points=   104

     Number of k-points >= 100: set verbosity='high' to print them.

     Dense  grid:   486257 G-vectors     FFT dimensions: ( 120, 120, 120)

     Estimated max dynamical RAM per process >      36.42 MB

     Estimated total dynamical RAM >       4.20 GB

     Initial potential from superposition of free atoms

     starting charge      27.9964, renormalised to      28.0000

     negative rho (up, down):  4.878E-06 0.000E+00
     Starting wfcs are   18 randomized atomic wfcs

     total cpu time spent up to now is        2.9 secs

     per-process dynamical memory:    32.6 Mb

     Self-consistent Calculation

     iteration #  1     ecut=   370.00 Ry     beta= 0.70
     Davidson diagonalization with overlap
     ethr =  1.00E-02,  avg # of iterations =  2.7

     Threshold (ethr) on eigenvalues was too large:
     Diagonalizing with lowered threshold

     Davidson diagonalization with overlap
     ethr =  5.93E-05,  avg # of iterations =  4.3

     negative rho (up, down):  6.586E-07 0.000E+00

     total cpu time spent up to now is        8.4 secs

     total energy              =    -325.57960762 Ry
     estimated scf accuracy    <       0.01962288 Ry

     iteration #  2     ecut=   370.00 Ry     beta= 0.70
     Davidson diagonalization with overlap
     ethr =  7.01E-05,  avg # of iterations =  4.8

     total cpu time spent up to now is       11.9 secs

     total energy              =    -325.62271341 Ry
     estimated scf accuracy    <       0.02529811 Ry

     iteration #  3     ecut=   370.00 Ry     beta= 0.70
     Davidson diagonalization with overlap
     ethr =  7.01E-05,  avg # of iterations =  2.0

     total cpu time spent up to now is       14.2 secs

     total energy              =    -325.64846994 Ry
     estimated scf accuracy    <       0.01054990 Ry

     iteration #  4     ecut=   370.00 Ry     beta= 0.70
     Davidson diagonalization with overlap
     ethr =  3.77E-05,  avg # of iterations =  2.1

     total cpu time spent up to now is       16.6 secs

     total energy              =    -325.65385223 Ry
     estimated scf accuracy    <       0.00005160 Ry

     iteration #  5     ecut=   370.00 Ry     beta= 0.70
     Davidson diagonalization with overlap
     ethr =  1.84E-07,  avg # of iterations =  4.4

     total cpu time spent up to now is       19.8 secs

     total energy              =    -325.65482853 Ry
     estimated scf accuracy    <       0.00008877 Ry

     iteration #  6     ecut=   370.00 Ry     beta= 0.70
     Davidson diagonalization with overlap
     ethr =  1.84E-07,  avg # of iterations =  2.0

     total cpu time spent up to now is       22.4 secs

     total energy              =    -325.65495678 Ry
     estimated scf accuracy    <       0.00000157 Ry

     iteration #  7     ecut=   370.00 Ry     beta= 0.70
     Davidson diagonalization with overlap
     ethr =  5.62E-09,  avg # of iterations =  3.8

     total cpu time spent up to now is       25.1 secs

     total energy              =    -325.65497293 Ry
     estimated scf accuracy    <       0.00000026 Ry

     iteration #  8     ecut=   370.00 Ry     beta= 0.70
     Davidson diagonalization with overlap
     ethr =  9.22E-10,  avg # of iterations =  2.4

     total cpu time spent up to now is       27.9 secs

     total energy              =    -325.65497359 Ry
     estimated scf accuracy    <       0.00000011 Ry

     iteration #  9     ecut=   370.00 Ry     beta= 0.70
     Davidson diagonalization with overlap
     ethr =  3.78E-10,  avg # of iterations =  2.0

     total cpu time spent up to now is       30.3 secs

     End of self-consistent calculation

     Number of k-points >= 100: set verbosity='high' to print the bands.

     highest occupied level (ev):     6.7978

!    total energy              =    -325.65497360 Ry
     estimated scf accuracy    <          1.3E-09 Ry

     The total energy is the sum of the following terms:
     one-electron contribution =    -160.17689819 Ry
     hartree contribution      =      96.62984266 Ry
     xc contribution           =     -95.12587711 Ry
     ewald contribution        =    -166.98204097 Ry

     convergence has been achieved in   9 iterations

     Writing all to output data dir ./alpha-EOS/alpha.save/ :
     XML data file, charge density, pseudopotentials, collected wavefunctions

     init_run     :      2.46s CPU      2.61s WALL (       1 calls)
     electrons    :     26.92s CPU     27.52s WALL (       1 calls)

     Called by init_run:
     wfcinit      :      0.98s CPU      1.01s WALL (       1 calls)
     potinit      :      0.05s CPU      0.10s WALL (       1 calls)
     hinit0       :      0.90s CPU      0.92s WALL (       1 calls)

     Called by electrons:
     c_bands      :     21.94s CPU     22.31s WALL (      10 calls)
     sum_band     :      4.06s CPU      4.13s WALL (      10 calls)
     v_of_rho     :      0.59s CPU      0.64s WALL (      10 calls)
     newd         :      0.23s CPU      0.26s WALL (      10 calls)
     mix_rho      :      0.08s CPU      0.09s WALL (      10 calls)

     Called by c_bands:
     init_us_2    :      0.55s CPU      0.57s WALL (     546 calls)
     cegterg      :     20.59s CPU     20.79s WALL (     260 calls)

     Called by *egterg:
     cdiaghg      :      0.42s CPU      0.43s WALL (    1130 calls)
     h_psi        :     18.61s CPU     18.78s WALL (    1182 calls)
     s_psi        :      0.36s CPU      0.36s WALL (    1182 calls)
     g_psi        :      0.05s CPU      0.05s WALL (     896 calls)

     Called by h_psi:
     h_psi:calbec :      0.93s CPU      0.94s WALL (    1182 calls)
     vloc_psi     :     17.14s CPU     17.29s WALL (    1182 calls)
     add_vuspsi   :      0.42s CPU      0.42s WALL (    1182 calls)

     General routines
     calbec       :      1.09s CPU      1.10s WALL (    1442 calls)
     fft          :      1.14s CPU      1.19s WALL (     111 calls)
     ffts         :      0.03s CPU      0.03s WALL (      10 calls)
     fftw         :     17.38s CPU     17.53s WALL (   23680 calls)

     Parallel routines

     PWSCF        :     30.17s CPU     32.64s WALL


   This run was terminated on:  19:53:30  25Feb2026            

=------------------------------------------------------------------------------=
   JOB DONE.
=------------------------------------------------------------------------------=
