
     Program PWSCF v.7.3.1 starts on 25Feb2026 at 20: 3:42 

     This program is part of the open-source Quantum ESPRESSO suite
     for quantum simulation of materials; please cite
         "P. Giannozzi et al., J. Phys.:Condens. Matter 21 395502 (2009);
         "P. Giannozzi et al., J. Phys.:Condens. Matter 29 465901 (2017);
         "P. Giannozzi et al., J. Chem. Phys. 152 154105 (2020);
          URL http://www.quantum-espresso.org", 
     in publications or presentations arising from this work. More details at
     http://www.quantum-espresso.org/quote

     Parallel version (MPI), running on   128 processors

     MPI processes distributed on     1 nodes
     239127 MiB available memory on the printing compute node when the environment starts

     Waiting for input...
     Reading input from standard input
     Message from routine read_cards :
     DEPRECATED: no units specified in ATOMIC_POSITIONS card
     Message from routine read_cards :
     ATOMIC_POSITIONS: units set to alat

     Current dimensions of program PWSCF are:
     Max number of different atomic species (ntypx) = 10
     Max number of k-points (npk) =  40000
     Max angular momentum in pseudopotentials (lmaxx) =  4

     K-points division:     npool     =       4
     R & G space division:  proc/nbgrp/npool/nimage =      32
     Subspace diagonalization in iterative solution of the eigenvalue problem:
     a serial algorithm will be used


     Parallelization info
     --------------------
     sticks:   dense  smooth     PW     G-vecs:    dense   smooth      PW
     Min         272     272     72                16843    16843    2317
     Max         273     273     73                16847    16847    2321
     Sum        8731    8731   2335               539049   539049   74249

     Using Slab Decomposition



     bravais-lattice index     =            2
     lattice parameter (alat)  =      13.0861  a.u.
     unit-cell volume          =     560.2356 (a.u.)^3
     number of atoms/cell      =            2
     number of atomic types    =            1
     number of electrons       =        28.00
     number of Kohn-Sham states=           14
     kinetic-energy cutoff     =     370.0000  Ry
     charge density cutoff     =    1480.0000  Ry
     scf convergence threshold =      1.0E-07
     mixing beta               =       0.7000
     number of iterations used =            8  plain     mixing
     Exchange-correlation=  SLA  PW   GGX  GGC
                           (   1   4   2   2   0   0   0)

     celldm(1)=  13.086100  celldm(2)=   0.000000  celldm(3)=   0.000000
     celldm(4)=   0.000000  celldm(5)=   0.000000  celldm(6)=   0.000000

     crystal axes: (cart. coord. in units of alat)
               a(1) = (  -0.500000   0.000000   0.500000 )  
               a(2) = (   0.000000   0.500000   0.500000 )  
               a(3) = (  -0.500000   0.500000   0.000000 )  

     reciprocal axes: (cart. coord. in units 2 pi/alat)
               b(1) = ( -1.000000 -1.000000  1.000000 )  
               b(2) = (  1.000000  1.000000  1.000000 )  
               b(3) = ( -1.000000  1.000000 -1.000000 )  


     PseudoPot. # 1 for Sn read from file:
     ./Sn.pw91-n-van.UPF
     MD5 check sum: a38d2a872edd1a4efd76c0a1a38f7031
     Pseudo is Ultrasoft + core correction, Zval = 14.0
     Generated by new atomic code, or converted to UPF format
     Using radial grid of  891 points,  6 beta functions with: 
                l(1) =   0
                l(2) =   0
                l(3) =   1
                l(4) =   1
                l(5) =   2
                l(6) =   2
     Q(r) pseudized with  8 coefficients,  rinner =    1.100   1.100   1.100
                                                       1.100   1.100

     atomic species   valence    mass     pseudopotential
     Sn               14.00   118.70000     Sn( 1.00)

     48 Sym. Ops., with inversion, found (24 have fractional translation)



   Cartesian axes

     site n.     atom                  positions (alat units)
         1        Sn     tau(   1) = (   0.0000000   0.0000000   0.0000000  )
         2        Sn     tau(   2) = (   0.2500000   0.2500000   0.2500000  )

     number of k points=   104

     Number of k-points >= 100: set verbosity='high' to print them.

     Dense  grid:   539049 G-vectors     FFT dimensions: ( 120, 120, 120)

     Estimated max dynamical RAM per process >      39.61 MB

     Estimated total dynamical RAM >       4.57 GB

     Initial potential from superposition of free atoms

     starting charge      27.9964, renormalised to      28.0000

     negative rho (up, down):  9.233E-07 0.000E+00
     Starting wfcs are   18 randomized atomic wfcs

     total cpu time spent up to now is        3.0 secs

     per-process dynamical memory:    34.9 Mb

     Self-consistent Calculation

     iteration #  1     ecut=   370.00 Ry     beta= 0.70
     Davidson diagonalization with overlap
     ethr =  1.00E-02,  avg # of iterations =  2.3

     Threshold (ethr) on eigenvalues was too large:
     Diagonalizing with lowered threshold

     Davidson diagonalization with overlap
     ethr =  5.92E-05,  avg # of iterations =  4.4

     negative rho (up, down):  6.800E-07 0.000E+00

     total cpu time spent up to now is        8.7 secs

     total energy              =    -325.59496597 Ry
     estimated scf accuracy    <       0.01920631 Ry

     iteration #  2     ecut=   370.00 Ry     beta= 0.70
     Davidson diagonalization with overlap
     ethr =  6.86E-05,  avg # of iterations =  4.5

     total cpu time spent up to now is       12.4 secs

     total energy              =    -325.61521629 Ry
     estimated scf accuracy    <       0.01559887 Ry

     iteration #  3     ecut=   370.00 Ry     beta= 0.70
     Davidson diagonalization with overlap
     ethr =  5.57E-05,  avg # of iterations =  2.5

     total cpu time spent up to now is       15.0 secs

     total energy              =    -325.63148221 Ry
     estimated scf accuracy    <       0.00745383 Ry

     iteration #  4     ecut=   370.00 Ry     beta= 0.70
     Davidson diagonalization with overlap
     ethr =  2.66E-05,  avg # of iterations =  2.0

     total cpu time spent up to now is       17.5 secs

     total energy              =    -325.64525722 Ry
     estimated scf accuracy    <       0.00086847 Ry

     iteration #  5     ecut=   370.00 Ry     beta= 0.70
     Davidson diagonalization with overlap
     ethr =  3.10E-06,  avg # of iterations =  3.5

     total cpu time spent up to now is       20.4 secs

     total energy              =    -325.64642120 Ry
     estimated scf accuracy    <       0.00012303 Ry

     iteration #  6     ecut=   370.00 Ry     beta= 0.70
     Davidson diagonalization with overlap
     ethr =  4.39E-07,  avg # of iterations =  2.1

     total cpu time spent up to now is       22.8 secs

     total energy              =    -325.64662017 Ry
     estimated scf accuracy    <       0.00000770 Ry

     iteration #  7     ecut=   370.00 Ry     beta= 0.70
     Davidson diagonalization with overlap
     ethr =  2.75E-08,  avg # of iterations =  3.3

     total cpu time spent up to now is       25.7 secs

     total energy              =    -325.64664565 Ry
     estimated scf accuracy    <       0.00000074 Ry

     iteration #  8     ecut=   370.00 Ry     beta= 0.70
     Davidson diagonalization with overlap
     ethr =  2.66E-09,  avg # of iterations =  2.3

     total cpu time spent up to now is       28.3 secs

     End of self-consistent calculation

     Number of k-points >= 100: set verbosity='high' to print the bands.

     highest occupied level (ev):     5.6787

!    total energy              =    -325.64664699 Ry
     estimated scf accuracy    <       0.00000005 Ry

     The total energy is the sum of the following terms:
     one-electron contribution =    -169.40841982 Ry
     hartree contribution      =     100.16229010 Ry
     xc contribution           =     -95.03656367 Ry
     ewald contribution        =    -161.36395361 Ry

     convergence has been achieved in   8 iterations

     Writing all to output data dir ./alpha-EOS/alpha.save/ :
     XML data file, charge density, pseudopotentials, collected wavefunctions

     init_run     :      2.64s CPU      2.74s WALL (       1 calls)
     electrons    :     24.82s CPU     25.38s WALL (       1 calls)

     Called by init_run:
     wfcinit      :      1.03s CPU      1.06s WALL (       1 calls)
     potinit      :      0.07s CPU      0.10s WALL (       1 calls)
     hinit0       :      0.91s CPU      0.92s WALL (       1 calls)

     Called by electrons:
     c_bands      :     20.07s CPU     20.41s WALL (       9 calls)
     sum_band     :      3.87s CPU      3.94s WALL (       9 calls)
     v_of_rho     :      0.55s CPU      0.59s WALL (       9 calls)
     newd         :      0.24s CPU      0.26s WALL (       9 calls)
     mix_rho      :      0.08s CPU      0.08s WALL (       9 calls)

     Called by c_bands:
     init_us_2    :      0.56s CPU      0.59s WALL (     494 calls)
     cegterg      :     18.84s CPU     19.02s WALL (     234 calls)

     Called by *egterg:
     cdiaghg      :      0.38s CPU      0.39s WALL (    1022 calls)
     h_psi        :     16.94s CPU     17.09s WALL (    1074 calls)
     s_psi        :      0.35s CPU      0.36s WALL (    1074 calls)
     g_psi        :      0.05s CPU      0.05s WALL (     814 calls)

     Called by h_psi:
     h_psi:calbec :      0.96s CPU      0.97s WALL (    1074 calls)
     vloc_psi     :     15.42s CPU     15.56s WALL (    1074 calls)
     add_vuspsi   :      0.42s CPU      0.43s WALL (    1074 calls)

     General routines
     calbec       :      1.13s CPU      1.14s WALL (    1308 calls)
     fft          :      1.14s CPU      1.18s WALL (     100 calls)
     ffts         :      0.03s CPU      0.03s WALL (       9 calls)
     fftw         :     15.65s CPU     15.79s WALL (   20904 calls)

     Parallel routines

     PWSCF        :     28.10s CPU     30.72s WALL


   This run was terminated on:  20: 4:12  25Feb2026            

=------------------------------------------------------------------------------=
   JOB DONE.
=------------------------------------------------------------------------------=
