
     Program PWSCF v.7.3.1 starts on 25Feb2026 at 20: 4:54 

     This program is part of the open-source Quantum ESPRESSO suite
     for quantum simulation of materials; please cite
         "P. Giannozzi et al., J. Phys.:Condens. Matter 21 395502 (2009);
         "P. Giannozzi et al., J. Phys.:Condens. Matter 29 465901 (2017);
         "P. Giannozzi et al., J. Chem. Phys. 152 154105 (2020);
          URL http://www.quantum-espresso.org", 
     in publications or presentations arising from this work. More details at
     http://www.quantum-espresso.org/quote

     Parallel version (MPI), running on   128 processors

     MPI processes distributed on     1 nodes
     239139 MiB available memory on the printing compute node when the environment starts

     Waiting for input...
     Reading input from standard input
     Message from routine read_cards :
     DEPRECATED: no units specified in ATOMIC_POSITIONS card
     Message from routine read_cards :
     ATOMIC_POSITIONS: units set to alat

     Current dimensions of program PWSCF are:
     Max number of different atomic species (ntypx) = 10
     Max number of k-points (npk) =  40000
     Max angular momentum in pseudopotentials (lmaxx) =  4

     K-points division:     npool     =       4
     R & G space division:  proc/nbgrp/npool/nimage =      32
     Subspace diagonalization in iterative solution of the eigenvalue problem:
     a serial algorithm will be used


     Parallelization info
     --------------------
     sticks:   dense  smooth     PW     G-vecs:    dense   smooth      PW
     Min         274     274     73                17024    17024    2345
     Max         275     275     74                17029    17029    2349
     Sum        8791    8791   2347               544833   544833   75089

     Using Slab Decomposition



     bravais-lattice index     =            2
     lattice parameter (alat)  =      13.1350  a.u.
     unit-cell volume          =     566.5421 (a.u.)^3
     number of atoms/cell      =            2
     number of atomic types    =            1
     number of electrons       =        28.00
     number of Kohn-Sham states=           14
     kinetic-energy cutoff     =     370.0000  Ry
     charge density cutoff     =    1480.0000  Ry
     scf convergence threshold =      1.0E-07
     mixing beta               =       0.7000
     number of iterations used =            8  plain     mixing
     Exchange-correlation=  SLA  PW   GGX  GGC
                           (   1   4   2   2   0   0   0)

     celldm(1)=  13.135020  celldm(2)=   0.000000  celldm(3)=   0.000000
     celldm(4)=   0.000000  celldm(5)=   0.000000  celldm(6)=   0.000000

     crystal axes: (cart. coord. in units of alat)
               a(1) = (  -0.500000   0.000000   0.500000 )  
               a(2) = (   0.000000   0.500000   0.500000 )  
               a(3) = (  -0.500000   0.500000   0.000000 )  

     reciprocal axes: (cart. coord. in units 2 pi/alat)
               b(1) = ( -1.000000 -1.000000  1.000000 )  
               b(2) = (  1.000000  1.000000  1.000000 )  
               b(3) = ( -1.000000  1.000000 -1.000000 )  


     PseudoPot. # 1 for Sn read from file:
     ./Sn.pw91-n-van.UPF
     MD5 check sum: a38d2a872edd1a4efd76c0a1a38f7031
     Pseudo is Ultrasoft + core correction, Zval = 14.0
     Generated by new atomic code, or converted to UPF format
     Using radial grid of  891 points,  6 beta functions with: 
                l(1) =   0
                l(2) =   0
                l(3) =   1
                l(4) =   1
                l(5) =   2
                l(6) =   2
     Q(r) pseudized with  8 coefficients,  rinner =    1.100   1.100   1.100
                                                       1.100   1.100

     atomic species   valence    mass     pseudopotential
     Sn               14.00   118.70000     Sn( 1.00)

     48 Sym. Ops., with inversion, found (24 have fractional translation)



   Cartesian axes

     site n.     atom                  positions (alat units)
         1        Sn     tau(   1) = (   0.0000000   0.0000000   0.0000000  )
         2        Sn     tau(   2) = (   0.2500000   0.2500000   0.2500000  )

     number of k points=   104

     Number of k-points >= 100: set verbosity='high' to print them.

     Dense  grid:   544833 G-vectors     FFT dimensions: ( 120, 120, 120)

     Estimated max dynamical RAM per process >      39.96 MB

     Estimated total dynamical RAM >       4.61 GB

     Initial potential from superposition of free atoms

     starting charge      27.9964, renormalised to      28.0000

     negative rho (up, down):  1.114E-06 0.000E+00
     Starting wfcs are   18 randomized atomic wfcs

     total cpu time spent up to now is        3.1 secs

     per-process dynamical memory:    34.8 Mb

     Self-consistent Calculation

     iteration #  1     ecut=   370.00 Ry     beta= 0.70
     Davidson diagonalization with overlap
     ethr =  1.00E-02,  avg # of iterations =  2.3

     Threshold (ethr) on eigenvalues was too large:
     Diagonalizing with lowered threshold

     Davidson diagonalization with overlap
     ethr =  5.95E-05,  avg # of iterations =  4.4

     negative rho (up, down):  5.643E-07 0.000E+00

     total cpu time spent up to now is        8.8 secs

     total energy              =    -325.59446108 Ry
     estimated scf accuracy    <       0.01948160 Ry

     iteration #  2     ecut=   370.00 Ry     beta= 0.70
     Davidson diagonalization with overlap
     ethr =  6.96E-05,  avg # of iterations =  4.4

     total cpu time spent up to now is       12.4 secs

     total energy              =    -325.61294750 Ry
     estimated scf accuracy    <       0.01500917 Ry

     iteration #  3     ecut=   370.00 Ry     beta= 0.70
     Davidson diagonalization with overlap
     ethr =  5.36E-05,  avg # of iterations =  3.0

     total cpu time spent up to now is       15.2 secs

     total energy              =    -325.62588629 Ry
     estimated scf accuracy    <       0.00759865 Ry

     iteration #  4     ecut=   370.00 Ry     beta= 0.70
     Davidson diagonalization with overlap
     ethr =  2.71E-05,  avg # of iterations =  2.0

     total cpu time spent up to now is       17.6 secs

     total energy              =    -325.64354095 Ry
     estimated scf accuracy    <       0.00178422 Ry

     iteration #  5     ecut=   370.00 Ry     beta= 0.70
     Davidson diagonalization with overlap
     ethr =  6.37E-06,  avg # of iterations =  3.3

     total cpu time spent up to now is       20.4 secs

     total energy              =    -325.64460682 Ry
     estimated scf accuracy    <       0.00017121 Ry

     iteration #  6     ecut=   370.00 Ry     beta= 0.70
     Davidson diagonalization with overlap
     ethr =  6.11E-07,  avg # of iterations =  2.2

     total cpu time spent up to now is       22.9 secs

     total energy              =    -325.64490634 Ry
     estimated scf accuracy    <       0.00000944 Ry

     iteration #  7     ecut=   370.00 Ry     beta= 0.70
     Davidson diagonalization with overlap
     ethr =  3.37E-08,  avg # of iterations =  3.6

     total cpu time spent up to now is       26.2 secs

     total energy              =    -325.64514709 Ry
     estimated scf accuracy    <       0.00000260 Ry

     iteration #  8     ecut=   370.00 Ry     beta= 0.70
     Davidson diagonalization with overlap
     ethr =  9.29E-09,  avg # of iterations =  2.1

     total cpu time spent up to now is       28.7 secs

     total energy              =    -325.64514761 Ry
     estimated scf accuracy    <       0.00000037 Ry

     iteration #  9     ecut=   370.00 Ry     beta= 0.70
     Davidson diagonalization with overlap
     ethr =  1.32E-09,  avg # of iterations =  2.2

     total cpu time spent up to now is       31.3 secs

     End of self-consistent calculation

     Number of k-points >= 100: set verbosity='high' to print the bands.

     highest occupied level (ev):     5.5648

!    total energy              =    -325.64514765 Ry
     estimated scf accuracy    <       0.00000003 Ry

     The total energy is the sum of the following terms:
     one-electron contribution =    -170.40074219 Ry
     hartree contribution      =     100.54616419 Ry
     xc contribution           =     -95.02759911 Ry
     ewald contribution        =    -160.76297054 Ry

     convergence has been achieved in   9 iterations

     Writing all to output data dir ./alpha-EOS/alpha.save/ :
     XML data file, charge density, pseudopotentials, collected wavefunctions

     init_run     :      2.66s CPU      2.76s WALL (       1 calls)
     electrons    :     27.78s CPU     28.34s WALL (       1 calls)

     Called by init_run:
     wfcinit      :      1.05s CPU      1.08s WALL (       1 calls)
     potinit      :      0.08s CPU      0.10s WALL (       1 calls)
     hinit0       :      0.90s CPU      0.91s WALL (       1 calls)

     Called by electrons:
     c_bands      :     22.44s CPU     22.78s WALL (      10 calls)
     sum_band     :      4.35s CPU      4.40s WALL (      10 calls)
     v_of_rho     :      0.62s CPU      0.66s WALL (      10 calls)
     newd         :      0.28s CPU      0.29s WALL (      10 calls)
     mix_rho      :      0.10s CPU      0.10s WALL (      10 calls)

     Called by c_bands:
     init_us_2    :      0.63s CPU      0.66s WALL (     546 calls)
     cegterg      :     21.08s CPU     21.24s WALL (     260 calls)

     Called by *egterg:
     cdiaghg      :      0.41s CPU      0.41s WALL (    1103 calls)
     h_psi        :     18.91s CPU     19.07s WALL (    1155 calls)
     s_psi        :      0.39s CPU      0.39s WALL (    1155 calls)
     g_psi        :      0.05s CPU      0.05s WALL (     869 calls)

     Called by h_psi:
     h_psi:calbec :      1.06s CPU      1.07s WALL (    1155 calls)
     vloc_psi     :     17.22s CPU     17.36s WALL (    1155 calls)
     add_vuspsi   :      0.47s CPU      0.48s WALL (    1155 calls)

     General routines
     calbec       :      1.25s CPU      1.27s WALL (    1415 calls)
     fft          :      1.18s CPU      1.22s WALL (     111 calls)
     ffts         :      0.04s CPU      0.04s WALL (      10 calls)
     fftw         :     17.50s CPU     17.64s WALL (   23098 calls)

     Parallel routines

     PWSCF        :     31.16s CPU     33.47s WALL


   This run was terminated on:  20: 5:27  25Feb2026            

=------------------------------------------------------------------------------=
   JOB DONE.
=------------------------------------------------------------------------------=
