
     Program PWSCF v.7.3.1 starts on 25Feb2026 at 19:21:27 

     This program is part of the open-source Quantum ESPRESSO suite
     for quantum simulation of materials; please cite
         "P. Giannozzi et al., J. Phys.:Condens. Matter 21 395502 (2009);
         "P. Giannozzi et al., J. Phys.:Condens. Matter 29 465901 (2017);
         "P. Giannozzi et al., J. Chem. Phys. 152 154105 (2020);
          URL http://www.quantum-espresso.org", 
     in publications or presentations arising from this work. More details at
     http://www.quantum-espresso.org/quote

     Parallel version (MPI), running on   128 processors

     MPI processes distributed on     1 nodes
     241343 MiB available memory on the printing compute node when the environment starts

     Waiting for input...
     Reading input from standard input
     Message from routine read_cards :
     DEPRECATED: no units specified in ATOMIC_POSITIONS card
     Message from routine read_cards :
     ATOMIC_POSITIONS: units set to alat

     Current dimensions of program PWSCF are:
     Max number of different atomic species (ntypx) = 10
     Max number of k-points (npk) =  40000
     Max angular momentum in pseudopotentials (lmaxx) =  4

     K-points division:     npool     =       4
     R & G space division:  proc/nbgrp/npool/nimage =      32
     Subspace diagonalization in iterative solution of the eigenvalue problem:
     a serial algorithm will be used


     Parallelization info
     --------------------
     sticks:   dense  smooth     PW     G-vecs:    dense   smooth      PW
     Min         193     193     51                10025    10025    1402
     Max         194     194     52                10028    10028    1407
     Sum        6181    6181   1663               320843   320843   44975

     Using Slab Decomposition



     bravais-lattice index     =            2
     lattice parameter (alat)  =      11.0070  a.u.
     unit-cell volume          =     333.3857 (a.u.)^3
     number of atoms/cell      =            2
     number of atomic types    =            1
     number of electrons       =        28.00
     number of Kohn-Sham states=           14
     kinetic-energy cutoff     =     370.0000  Ry
     charge density cutoff     =    1480.0000  Ry
     scf convergence threshold =      1.0E-07
     mixing beta               =       0.7000
     number of iterations used =            8  plain     mixing
     Exchange-correlation=  SLA  PW   GGX  GGC
                           (   1   4   2   2   0   0   0)

     celldm(1)=  11.007000  celldm(2)=   0.000000  celldm(3)=   0.000000
     celldm(4)=   0.000000  celldm(5)=   0.000000  celldm(6)=   0.000000

     crystal axes: (cart. coord. in units of alat)
               a(1) = (  -0.500000   0.000000   0.500000 )  
               a(2) = (   0.000000   0.500000   0.500000 )  
               a(3) = (  -0.500000   0.500000   0.000000 )  

     reciprocal axes: (cart. coord. in units 2 pi/alat)
               b(1) = ( -1.000000 -1.000000  1.000000 )  
               b(2) = (  1.000000  1.000000  1.000000 )  
               b(3) = ( -1.000000  1.000000 -1.000000 )  


     PseudoPot. # 1 for Sn read from file:
     ./Sn.pw91-n-van.UPF
     MD5 check sum: a38d2a872edd1a4efd76c0a1a38f7031
     Pseudo is Ultrasoft + core correction, Zval = 14.0
     Generated by new atomic code, or converted to UPF format
     Using radial grid of  891 points,  6 beta functions with: 
                l(1) =   0
                l(2) =   0
                l(3) =   1
                l(4) =   1
                l(5) =   2
                l(6) =   2
     Q(r) pseudized with  8 coefficients,  rinner =    1.100   1.100   1.100
                                                       1.100   1.100

     atomic species   valence    mass     pseudopotential
     Sn               14.00   118.70000     Sn( 1.00)

     48 Sym. Ops., with inversion, found (24 have fractional translation)



   Cartesian axes

     site n.     atom                  positions (alat units)
         1        Sn     tau(   1) = (   0.0000000   0.0000000   0.0000000  )
         2        Sn     tau(   2) = (   0.2500000   0.2500000   0.2500000  )

     number of k points=   104

     Number of k-points >= 100: set verbosity='high' to print them.

     Dense  grid:   320843 G-vectors     FFT dimensions: (  96,  96,  96)

     Estimated max dynamical RAM per process >      24.36 MB

     Estimated total dynamical RAM >       2.82 GB

     Initial potential from superposition of free atoms

     starting charge      27.9964, renormalised to      28.0000
     Starting wfcs are   18 randomized atomic wfcs

     total cpu time spent up to now is        7.6 secs

     per-process dynamical memory:    24.6 Mb

     Self-consistent Calculation

     iteration #  1     ecut=   370.00 Ry     beta= 0.70
     Davidson diagonalization with overlap
     ethr =  1.00E-02,  avg # of iterations =  3.3

     Threshold (ethr) on eigenvalues was too large:
     Diagonalizing with lowered threshold

     Davidson diagonalization with overlap
     ethr =  5.69E-05,  avg # of iterations =  4.0

     total cpu time spent up to now is       14.5 secs

     total energy              =    -325.40400317 Ry
     estimated scf accuracy    <       0.01913046 Ry

     iteration #  2     ecut=   370.00 Ry     beta= 0.70
     Davidson diagonalization with overlap
     ethr =  6.83E-05,  avg # of iterations =  4.9

     total cpu time spent up to now is       16.4 secs

     total energy              =    -325.48481792 Ry
     estimated scf accuracy    <       0.04103870 Ry

     iteration #  3     ecut=   370.00 Ry     beta= 0.70
     Davidson diagonalization with overlap
     ethr =  6.83E-05,  avg # of iterations =  2.0

     total cpu time spent up to now is       17.6 secs

     total energy              =    -325.51237714 Ry
     estimated scf accuracy    <       0.01755002 Ry

     iteration #  4     ecut=   370.00 Ry     beta= 0.70
     Davidson diagonalization with overlap
     ethr =  6.27E-05,  avg # of iterations =  2.1

     total cpu time spent up to now is       18.9 secs

     total energy              =    -325.51622405 Ry
     estimated scf accuracy    <       0.00094670 Ry

     iteration #  5     ecut=   370.00 Ry     beta= 0.70
     Davidson diagonalization with overlap
     ethr =  3.38E-06,  avg # of iterations =  2.0

     total cpu time spent up to now is       20.2 secs

     total energy              =    -325.51645364 Ry
     estimated scf accuracy    <       0.00003093 Ry

     iteration #  6     ecut=   370.00 Ry     beta= 0.70
     Davidson diagonalization with overlap
     ethr =  1.10E-07,  avg # of iterations =  2.4

     total cpu time spent up to now is       21.7 secs

     total energy              =    -325.51646143 Ry
     estimated scf accuracy    <       0.00000454 Ry

     iteration #  7     ecut=   370.00 Ry     beta= 0.70
     Davidson diagonalization with overlap
     ethr =  1.62E-08,  avg # of iterations =  2.2

     total cpu time spent up to now is       23.2 secs

     total energy              =    -325.51646226 Ry
     estimated scf accuracy    <       0.00000031 Ry

     iteration #  8     ecut=   370.00 Ry     beta= 0.70
     Davidson diagonalization with overlap
     ethr =  1.10E-09,  avg # of iterations =  2.1

     total cpu time spent up to now is       24.4 secs

     End of self-consistent calculation

     Number of k-points >= 100: set verbosity='high' to print the bands.

     highest occupied level (ev):    12.9597

!    total energy              =    -325.51646229 Ry
     estimated scf accuracy    <          2.4E-09 Ry

     The total energy is the sum of the following terms:
     one-electron contribution =    -120.12721733 Ry
     hartree contribution      =      82.07457758 Ry
     xc contribution           =     -95.62001103 Ry
     ewald contribution        =    -191.84381151 Ry

     convergence has been achieved in   8 iterations

     Writing all to output data dir ./alpha-EOS/alpha.save/ :
     XML data file, charge density, pseudopotentials, collected wavefunctions

     init_run     :      1.53s CPU      1.72s WALL (       1 calls)
     electrons    :     12.59s CPU     16.94s WALL (       1 calls)

     Called by init_run:
     wfcinit      :      0.55s CPU      0.60s WALL (       1 calls)
     potinit      :      0.04s CPU      0.06s WALL (       1 calls)
     hinit0       :      0.70s CPU      0.77s WALL (       1 calls)

     Called by electrons:
     c_bands      :     10.20s CPU     14.34s WALL (       9 calls)
     sum_band     :      1.92s CPU      1.95s WALL (       9 calls)
     v_of_rho     :      0.25s CPU      0.28s WALL (       9 calls)
     newd         :      0.14s CPU      0.16s WALL (       9 calls)
     mix_rho      :      0.05s CPU      0.05s WALL (       9 calls)

     Called by c_bands:
     init_us_2    :      0.27s CPU      0.28s WALL (     494 calls)
     cegterg      :      9.56s CPU     13.58s WALL (     234 calls)

     Called by *egterg:
     cdiaghg      :      0.34s CPU      4.22s WALL (     970 calls)
     h_psi        :      8.47s CPU      8.64s WALL (    1022 calls)
     s_psi        :      0.20s CPU      0.21s WALL (    1022 calls)
     g_psi        :      0.03s CPU      0.03s WALL (     762 calls)

     Called by h_psi:
     h_psi:calbec :      0.34s CPU      0.39s WALL (    1022 calls)
     vloc_psi     :      7.86s CPU      7.98s WALL (    1022 calls)
     add_vuspsi   :      0.22s CPU      0.22s WALL (    1022 calls)

     General routines
     calbec       :      0.41s CPU      0.46s WALL (    1256 calls)
     fft          :      0.80s CPU      0.88s WALL (     100 calls)
     ffts         :      0.02s CPU      0.02s WALL (       9 calls)
     fftw         :      8.21s CPU      8.34s WALL (   21536 calls)

     Parallel routines

     PWSCF        :     14.65s CPU     27.28s WALL


   This run was terminated on:  19:21:54  25Feb2026            

=------------------------------------------------------------------------------=
   JOB DONE.
=------------------------------------------------------------------------------=
