
     Program PWSCF v.7.3.1 starts on 25Feb2026 at 19:25: 7 

     This program is part of the open-source Quantum ESPRESSO suite
     for quantum simulation of materials; please cite
         "P. Giannozzi et al., J. Phys.:Condens. Matter 21 395502 (2009);
         "P. Giannozzi et al., J. Phys.:Condens. Matter 29 465901 (2017);
         "P. Giannozzi et al., J. Chem. Phys. 152 154105 (2020);
          URL http://www.quantum-espresso.org", 
     in publications or presentations arising from this work. More details at
     http://www.quantum-espresso.org/quote

     Parallel version (MPI), running on   128 processors

     MPI processes distributed on     1 nodes
     239863 MiB available memory on the printing compute node when the environment starts

     Waiting for input...
     Reading input from standard input
     Message from routine read_cards :
     DEPRECATED: no units specified in ATOMIC_POSITIONS card
     Message from routine read_cards :
     ATOMIC_POSITIONS: units set to alat

     Current dimensions of program PWSCF are:
     Max number of different atomic species (ntypx) = 10
     Max number of k-points (npk) =  40000
     Max angular momentum in pseudopotentials (lmaxx) =  4

     K-points division:     npool     =       4
     R & G space division:  proc/nbgrp/npool/nimage =      32
     Subspace diagonalization in iterative solution of the eigenvalue problem:
     a serial algorithm will be used


     Parallelization info
     --------------------
     sticks:   dense  smooth     PW     G-vecs:    dense   smooth      PW
     Min         201     201     54                10639    10639    1486
     Max         202     202     55                10644    10644    1489
     Sum        6433    6433   1735               340477   340477   47591

     Using Slab Decomposition



     bravais-lattice index     =            2
     lattice parameter (alat)  =      11.2271  a.u.
     unit-cell volume          =     353.7915 (a.u.)^3
     number of atoms/cell      =            2
     number of atomic types    =            1
     number of electrons       =        28.00
     number of Kohn-Sham states=           14
     kinetic-energy cutoff     =     370.0000  Ry
     charge density cutoff     =    1480.0000  Ry
     scf convergence threshold =      1.0E-07
     mixing beta               =       0.7000
     number of iterations used =            8  plain     mixing
     Exchange-correlation=  SLA  PW   GGX  GGC
                           (   1   4   2   2   0   0   0)

     celldm(1)=  11.227140  celldm(2)=   0.000000  celldm(3)=   0.000000
     celldm(4)=   0.000000  celldm(5)=   0.000000  celldm(6)=   0.000000

     crystal axes: (cart. coord. in units of alat)
               a(1) = (  -0.500000   0.000000   0.500000 )  
               a(2) = (   0.000000   0.500000   0.500000 )  
               a(3) = (  -0.500000   0.500000   0.000000 )  

     reciprocal axes: (cart. coord. in units 2 pi/alat)
               b(1) = ( -1.000000 -1.000000  1.000000 )  
               b(2) = (  1.000000  1.000000  1.000000 )  
               b(3) = ( -1.000000  1.000000 -1.000000 )  


     PseudoPot. # 1 for Sn read from file:
     ./Sn.pw91-n-van.UPF
     MD5 check sum: a38d2a872edd1a4efd76c0a1a38f7031
     Pseudo is Ultrasoft + core correction, Zval = 14.0
     Generated by new atomic code, or converted to UPF format
     Using radial grid of  891 points,  6 beta functions with: 
                l(1) =   0
                l(2) =   0
                l(3) =   1
                l(4) =   1
                l(5) =   2
                l(6) =   2
     Q(r) pseudized with  8 coefficients,  rinner =    1.100   1.100   1.100
                                                       1.100   1.100

     atomic species   valence    mass     pseudopotential
     Sn               14.00   118.70000     Sn( 1.00)

     48 Sym. Ops., with inversion, found (24 have fractional translation)



   Cartesian axes

     site n.     atom                  positions (alat units)
         1        Sn     tau(   1) = (   0.0000000   0.0000000   0.0000000  )
         2        Sn     tau(   2) = (   0.2500000   0.2500000   0.2500000  )

     number of k points=   104

     Number of k-points >= 100: set verbosity='high' to print them.

     Dense  grid:   340477 G-vectors     FFT dimensions: ( 100, 100, 100)

     Estimated max dynamical RAM per process >      26.40 MB

     Estimated total dynamical RAM >       3.06 GB

     Initial potential from superposition of free atoms

     starting charge      27.9964, renormalised to      28.0000

     negative rho (up, down):  7.390E-07 0.000E+00
     Starting wfcs are   18 randomized atomic wfcs

     total cpu time spent up to now is        1.9 secs

     per-process dynamical memory:    26.4 Mb

     Self-consistent Calculation

     iteration #  1     ecut=   370.00 Ry     beta= 0.70
     Davidson diagonalization with overlap
     ethr =  1.00E-02,  avg # of iterations =  3.2

     Threshold (ethr) on eigenvalues was too large:
     Diagonalizing with lowered threshold

     Davidson diagonalization with overlap
     ethr =  5.67E-05,  avg # of iterations =  4.2

     total cpu time spent up to now is        5.8 secs

     total energy              =    -325.43580806 Ry
     estimated scf accuracy    <       0.01995930 Ry

     iteration #  2     ecut=   370.00 Ry     beta= 0.70
     Davidson diagonalization with overlap
     ethr =  7.13E-05,  avg # of iterations =  4.9

     total cpu time spent up to now is        8.3 secs

     total energy              =    -325.52836159 Ry
     estimated scf accuracy    <       0.04684814 Ry

     iteration #  3     ecut=   370.00 Ry     beta= 0.70
     Davidson diagonalization with overlap
     ethr =  7.13E-05,  avg # of iterations =  2.0

     total cpu time spent up to now is       10.0 secs

     total energy              =    -325.55641926 Ry
     estimated scf accuracy    <       0.01991111 Ry

     iteration #  4     ecut=   370.00 Ry     beta= 0.70
     Davidson diagonalization with overlap
     ethr =  7.11E-05,  avg # of iterations =  2.1

     total cpu time spent up to now is       11.6 secs

     total energy              =    -325.56055544 Ry
     estimated scf accuracy    <       0.00071391 Ry

     iteration #  5     ecut=   370.00 Ry     beta= 0.70
     Davidson diagonalization with overlap
     ethr =  2.55E-06,  avg # of iterations =  2.3

     total cpu time spent up to now is       13.4 secs

     total energy              =    -325.56083197 Ry
     estimated scf accuracy    <       0.00003262 Ry

     iteration #  6     ecut=   370.00 Ry     beta= 0.70
     Davidson diagonalization with overlap
     ethr =  1.16E-07,  avg # of iterations =  2.3

     total cpu time spent up to now is       15.3 secs

     total energy              =    -325.56084317 Ry
     estimated scf accuracy    <       0.00000317 Ry

     iteration #  7     ecut=   370.00 Ry     beta= 0.70
     Davidson diagonalization with overlap
     ethr =  1.13E-08,  avg # of iterations =  2.3

     total cpu time spent up to now is       17.3 secs

     total energy              =    -325.56084380 Ry
     estimated scf accuracy    <       0.00000017 Ry

     iteration #  8     ecut=   370.00 Ry     beta= 0.70
     Davidson diagonalization with overlap
     ethr =  5.93E-10,  avg # of iterations =  2.3

     total cpu time spent up to now is       19.0 secs

     End of self-consistent calculation

     Number of k-points >= 100: set verbosity='high' to print the bands.

     highest occupied level (ev):    11.8899

!    total energy              =    -325.56084382 Ry
     estimated scf accuracy    <          2.5E-09 Ry

     The total energy is the sum of the following terms:
     one-electron contribution =    -126.11348511 Ry
     hartree contribution      =      84.16906345 Ry
     xc contribution           =     -95.53425401 Ry
     ewald contribution        =    -188.08216815 Ry

     convergence has been achieved in   8 iterations

     Writing all to output data dir ./alpha-EOS/alpha.save/ :
     XML data file, charge density, pseudopotentials, collected wavefunctions

     init_run     :      1.49s CPU      1.61s WALL (       1 calls)
     electrons    :     16.83s CPU     17.27s WALL (       1 calls)

     Called by init_run:
     wfcinit      :      0.71s CPU      0.73s WALL (       1 calls)
     potinit      :      0.04s CPU      0.06s WALL (       1 calls)
     hinit0       :      0.45s CPU      0.48s WALL (       1 calls)

     Called by electrons:
     c_bands      :     13.77s CPU     14.05s WALL (       9 calls)
     sum_band     :      2.51s CPU      2.55s WALL (       9 calls)
     v_of_rho     :      0.33s CPU      0.37s WALL (       9 calls)
     newd         :      0.16s CPU      0.17s WALL (       9 calls)
     mix_rho      :      0.05s CPU      0.05s WALL (       9 calls)

     Called by c_bands:
     init_us_2    :      0.30s CPU      0.31s WALL (     494 calls)
     cegterg      :     13.04s CPU     13.20s WALL (     234 calls)

     Called by *egterg:
     cdiaghg      :      0.37s CPU      0.37s WALL (    1006 calls)
     h_psi        :     11.90s CPU     12.06s WALL (    1058 calls)
     s_psi        :      0.22s CPU      0.22s WALL (    1058 calls)
     g_psi        :      0.03s CPU      0.03s WALL (     798 calls)

     Called by h_psi:
     h_psi:calbec :      0.43s CPU      0.43s WALL (    1058 calls)
     vloc_psi     :     11.16s CPU     11.32s WALL (    1058 calls)
     add_vuspsi   :      0.24s CPU      0.24s WALL (    1058 calls)

     General routines
     calbec       :      0.50s CPU      0.51s WALL (    1292 calls)
     fft          :      0.61s CPU      0.65s WALL (     100 calls)
     ffts         :      0.02s CPU      0.02s WALL (       9 calls)
     fftw         :     11.62s CPU     11.78s WALL (   21668 calls)

     Parallel routines

     PWSCF        :     18.82s CPU     20.75s WALL


   This run was terminated on:  19:25:28  25Feb2026            

=------------------------------------------------------------------------------=
   JOB DONE.
=------------------------------------------------------------------------------=
