
     Program PWSCF v.7.3.1 starts on  4Feb2026 at 14:43:51 

     This program is part of the open-source Quantum ESPRESSO suite
     for quantum simulation of materials; please cite
         "P. Giannozzi et al., J. Phys.:Condens. Matter 21 395502 (2009);
         "P. Giannozzi et al., J. Phys.:Condens. Matter 29 465901 (2017);
         "P. Giannozzi et al., J. Chem. Phys. 152 154105 (2020);
          URL http://www.quantum-espresso.org", 
     in publications or presentations arising from this work. More details at
     http://www.quantum-espresso.org/quote

     Parallel version (MPI), running on   128 processors

     MPI processes distributed on     1 nodes
     241834 MiB available memory on the printing compute node when the environment starts

     Waiting for input...
     Reading input from standard input

     Current dimensions of program PWSCF are:
     Max number of different atomic species (ntypx) = 10
     Max number of k-points (npk) =  40000
     Max angular momentum in pseudopotentials (lmaxx) =  4
     WARNING: atomic wfc #  2 for atom typeSi has zero norm
     WARNING: atomic wfc #  2 for atom typeO has zero norm
     WARNING: atomic wfc #  4 for atom typeO has zero norm
     WARNING: atomic wfc #  5 for atom typeO has zero norm

     R & G space division:  proc/nbgrp/npool/nimage =     128
     WARNING: too many processors for an effective parallelization!
     wavefunctions fft division:  task group distribution
                                  #TG    x Z-proc =       8     16
     Subspace diagonalization in iterative solution of the eigenvalue problem:
     a serial algorithm will be used


     Parallelization info
     --------------------
     sticks:   dense  smooth     PW     G-vecs:    dense   smooth      PW
     Min          27      27      6                 1473     1473     176
     Max          28      28      7                 1484     1484     189
     Sum        3571    3571    889               189349   189349   23595

     Using Pencil Decomposition



     bravais-lattice index     =            4
     lattice parameter (alat)  =       9.2850  a.u.
     unit-cell volume          =     762.5513 (a.u.)^3
     number of atoms/cell      =            9
     number of atomic types    =            2
     number of electrons       =        48.00
     number of Kohn-Sham states=           24
     kinetic-energy cutoff     =     150.0000  Ry
     charge density cutoff     =     600.0000  Ry
     scf convergence threshold =      1.0E-07
     mixing beta               =       0.7000
     number of iterations used =            8  plain     mixing
     Exchange-correlation=  SLA  PW   PBX  PBC
                           (   1   4   3   4   0   0   0)

     celldm(1)=   9.285000  celldm(2)=   0.000000  celldm(3)=   1.100000
     celldm(4)=   0.000000  celldm(5)=   0.000000  celldm(6)=   0.000000

     crystal axes: (cart. coord. in units of alat)
               a(1) = (   1.000000   0.000000   0.000000 )  
               a(2) = (  -0.500000   0.866025   0.000000 )  
               a(3) = (   0.000000   0.000000   1.100000 )  

     reciprocal axes: (cart. coord. in units 2 pi/alat)
               b(1) = (  1.000000  0.577350 -0.000000 )  
               b(2) = (  0.000000  1.154701  0.000000 )  
               b(3) = (  0.000000 -0.000000  0.909091 )  


     PseudoPot. # 1 for Si read from file:
     ./Si.pbe-van_gipaw.UPF
     MD5 check sum: 907f546cb6949dd03cdbc0a9de4be0c7
     Pseudo is Ultrasoft, Zval =  4.0
     Generated by new atomic code, or converted to UPF format
     Using radial grid of 1141 points,  4 beta functions with: 
                l(1) =   0
                l(2) =   0
                l(3) =   1
                l(4) =   1
     Q(r) pseudized with 0 coefficients 


     PseudoPot. # 2 for O  read from file:
     ./O.pbe-van_gipaw.UPF
     MD5 check sum: 5ce2a047509d4f331db576c963e74b29
     Pseudo is Ultrasoft, Zval =  6.0
     Generated by new atomic code, or converted to UPF format
     Using radial grid of 1095 points,  4 beta functions with: 
                l(1) =   0
                l(2) =   0
                l(3) =   1
                l(4) =   1
     Q(r) pseudized with 0 coefficients 


     atomic species   valence    mass     pseudopotential
     Si                4.00    28.08600     Si( 1.00)
     O                 6.00    16.00000     O ( 1.00)

      6 Sym. Ops. (no inversion) found ( 4 have fractional translation)



   Cartesian axes

     site n.     atom                  positions (alat units)
         1        Si     tau(   1) = (  -0.2349350   0.4069194   0.3666663  )
         2        Si     tau(   2) = (   0.4698700   0.0000000   0.7333330  )
         3        Si     tau(   3) = (   0.2650650   0.4591060   1.0999996  )
         4        O      tau(   4) = (   0.2800500   0.2321814   0.8640500  )
         5        O      tau(   5) = (   0.6589000   0.1264397   0.4973833  )
         6        O      tau(   6) = (   0.5610500   0.5074043   0.1307167  )
         7        O      tau(   7) = (   0.0610500   0.3586211   0.2359500  )
         8        O      tau(   8) = (  -0.2199500   0.6338440   0.6026167  )
         9        O      tau(   9) = (   0.1589000   0.7395857   0.9692833  )

     number of k points=     1
                       cart. coord. in units 2pi/alat
        k(    1) = (   0.0000000   0.0000000   0.0000000), wk =   2.0000000

     Dense  grid:   189349 G-vectors     FFT dimensions: (  75,  75,  81)

     Estimated max dynamical RAM per process >       3.55 MB

     Estimated total dynamical RAM >     454.17 MB
     Message from routine sym_rho_init:
     some processors have no G-vectors for symmetrization

     Initial potential from superposition of free atoms

     starting charge      45.3753, renormalised to      48.0000
     Starting wfcs are   60 randomized atomic wfcs

     total cpu time spent up to now is        8.5 secs

     per-process dynamical memory:    11.7 Mb

     Self-consistent Calculation

     iteration #  1     ecut=   150.00 Ry     beta= 0.70
     Davidson diagonalization with overlap
     ethr =  1.00E-02,  avg # of iterations =  3.0

     negative rho (up, down):  4.348E-03 0.000E+00

     total cpu time spent up to now is        8.6 secs

     total energy              =    -215.70093698 Ry
     estimated scf accuracy    <       0.48390083 Ry

     iteration #  2     ecut=   150.00 Ry     beta= 0.70
     Davidson diagonalization with overlap
     ethr =  1.01E-03,  avg # of iterations =  3.0

     negative rho (up, down):  1.996E-03 0.000E+00

     total cpu time spent up to now is        8.7 secs

     total energy              =    -215.86364990 Ry
     estimated scf accuracy    <       0.17152654 Ry

     iteration #  3     ecut=   150.00 Ry     beta= 0.70
     Davidson diagonalization with overlap
     ethr =  3.57E-04,  avg # of iterations =  2.0

     total cpu time spent up to now is        8.8 secs

     total energy              =    -215.89169926 Ry
     estimated scf accuracy    <       0.00654052 Ry

     iteration #  4     ecut=   150.00 Ry     beta= 0.70
     Davidson diagonalization with overlap
     ethr =  1.36E-05,  avg # of iterations =  5.0

     total cpu time spent up to now is        8.8 secs

     total energy              =    -215.89421630 Ry
     estimated scf accuracy    <       0.00277118 Ry

     iteration #  5     ecut=   150.00 Ry     beta= 0.70
     Davidson diagonalization with overlap
     ethr =  5.77E-06,  avg # of iterations =  2.0

     total cpu time spent up to now is        8.9 secs

     total energy              =    -215.89447519 Ry
     estimated scf accuracy    <       0.00019799 Ry

     iteration #  6     ecut=   150.00 Ry     beta= 0.70
     Davidson diagonalization with overlap
     ethr =  4.12E-07,  avg # of iterations =  4.0

     total cpu time spent up to now is        9.0 secs

     total energy              =    -215.89459129 Ry
     estimated scf accuracy    <       0.00005551 Ry

     iteration #  7     ecut=   150.00 Ry     beta= 0.70
     Davidson diagonalization with overlap
     ethr =  1.16E-07,  avg # of iterations =  2.0

     total cpu time spent up to now is        9.0 secs

     total energy              =    -215.89459402 Ry
     estimated scf accuracy    <       0.00000560 Ry

     iteration #  8     ecut=   150.00 Ry     beta= 0.70
     Davidson diagonalization with overlap
     ethr =  1.17E-08,  avg # of iterations =  5.0

     total cpu time spent up to now is        9.1 secs

     total energy              =    -215.89459740 Ry
     estimated scf accuracy    <       0.00000099 Ry

     iteration #  9     ecut=   150.00 Ry     beta= 0.70
     Davidson diagonalization with overlap
     ethr =  2.07E-09,  avg # of iterations =  2.0

     total cpu time spent up to now is        9.1 secs

     End of self-consistent calculation

          k = 0.0000 0.0000 0.0000 ( 23595 PWs)   bands (ev):

   -16.7723 -15.2310 -15.2310 -14.5882 -14.5361 -14.5361  -5.6830  -5.6830
    -2.8988  -2.8684  -2.7055  -2.7055  -0.3481  -0.3481  -0.0831   0.1690
     1.0965   1.0965   1.1211   1.6081   1.6081   1.9188   2.2840   2.2840

     highest occupied level (ev):     2.2840

!    total energy              =    -215.89459764 Ry
     estimated scf accuracy    <       0.00000002 Ry

     The total energy is the sum of the following terms:
     one-electron contribution =    -103.40125375 Ry
     hartree contribution      =      77.28577435 Ry
     xc contribution           =     -50.81651464 Ry
     ewald contribution        =    -138.96260361 Ry

     convergence has been achieved in   9 iterations

     Writing all to output data dir ./quartz-scf-us/quartz.save/ :
     XML data file, charge density, pseudopotentials, collected wavefunctions

     init_run     :      0.19s CPU      0.47s WALL (       1 calls)
     electrons    :      0.61s CPU      0.82s WALL (       1 calls)

     Called by init_run:
     wfcinit      :      0.04s CPU      0.19s WALL (       1 calls)
     potinit      :      0.02s CPU      0.03s WALL (       1 calls)
     hinit0       :      0.06s CPU      0.14s WALL (       1 calls)

     Called by electrons:
     c_bands      :      0.34s CPU      0.36s WALL (       9 calls)
     sum_band     :      0.10s CPU      0.11s WALL (       9 calls)
     v_of_rho     :      0.07s CPU      0.09s WALL (      10 calls)
     newd         :      0.03s CPU      0.03s WALL (      10 calls)
     mix_rho      :      0.03s CPU      0.03s WALL (       9 calls)

     Called by c_bands:
     init_us_2    :      0.00s CPU      0.00s WALL (      19 calls)
     cegterg      :      0.33s CPU      0.34s WALL (       9 calls)

     Called by *egterg:
     cdiaghg      :      0.04s CPU      0.13s WALL (      37 calls)
     h_psi        :      0.30s CPU      0.36s WALL (      38 calls)
     s_psi        :      0.00s CPU      0.00s WALL (      38 calls)
     g_psi        :      0.00s CPU      0.00s WALL (      28 calls)

     Called by h_psi:
     h_psi:calbec :      0.01s CPU      0.05s WALL (      38 calls)
     vloc_psi     :      0.28s CPU      0.30s WALL (      38 calls)
     vloc_psi:tg_ :      0.00s CPU      0.00s WALL (      38 calls)
     add_vuspsi   :      0.00s CPU      0.01s WALL (      38 calls)

     General routines
     calbec       :      0.01s CPU      0.05s WALL (      47 calls)
     fft          :      0.11s CPU      0.19s WALL (     109 calls)
     ffts         :      0.00s CPU      0.00s WALL (       9 calls)
     fftw         :      0.31s CPU      0.33s WALL (    1616 calls)

     Parallel routines
     fft_scatt_xy :      0.02s CPU      0.02s WALL (    1734 calls)
     fft_scatt_yz :      0.26s CPU      0.29s WALL (    1734 calls)
     fft_scatt_tg :      0.01s CPU      0.01s WALL (    1616 calls)

     PWSCF        :      1.24s CPU      9.95s WALL


   This run was terminated on:  14:44: 0   4Feb2026            

=------------------------------------------------------------------------------=
   JOB DONE.
=------------------------------------------------------------------------------=
