
     Program PWSCF v.7.3.1 starts on  4Feb2026 at 14:46:13 

     This program is part of the open-source Quantum ESPRESSO suite
     for quantum simulation of materials; please cite
         "P. Giannozzi et al., J. Phys.:Condens. Matter 21 395502 (2009);
         "P. Giannozzi et al., J. Phys.:Condens. Matter 29 465901 (2017);
         "P. Giannozzi et al., J. Chem. Phys. 152 154105 (2020);
          URL http://www.quantum-espresso.org", 
     in publications or presentations arising from this work. More details at
     http://www.quantum-espresso.org/quote

     Parallel version (MPI), running on   128 processors

     MPI processes distributed on     1 nodes
     240211 MiB available memory on the printing compute node when the environment starts

     Waiting for input...
     Reading input from standard input

     Current dimensions of program PWSCF are:
     Max number of different atomic species (ntypx) = 10
     Max number of k-points (npk) =  40000
     Max angular momentum in pseudopotentials (lmaxx) =  4
     WARNING: atomic wfc #  2 for atom typeSi has zero norm
     WARNING: atomic wfc #  2 for atom typeO has zero norm
     WARNING: atomic wfc #  4 for atom typeO has zero norm
     WARNING: atomic wfc #  5 for atom typeO has zero norm

     K-points division:     npool     =       4
     R & G space division:  proc/nbgrp/npool/nimage =      32
     Subspace diagonalization in iterative solution of the eigenvalue problem:
     a serial algorithm will be used


     Parallelization info
     --------------------
     sticks:   dense  smooth     PW     G-vecs:    dense   smooth      PW
     Min         111     111     29                 5915     5915     827
     Max         112     112     30                 5920     5920     834
     Sum        3571    3571    955               189349   189349   26615

     Using Slab Decomposition



     bravais-lattice index     =            4
     lattice parameter (alat)  =       9.2850  a.u.
     unit-cell volume          =     762.5513 (a.u.)^3
     number of atoms/cell      =            9
     number of atomic types    =            2
     number of electrons       =        48.00
     number of Kohn-Sham states=           24
     kinetic-energy cutoff     =     150.0000  Ry
     charge density cutoff     =     600.0000  Ry
     scf convergence threshold =      1.0E-07
     mixing beta               =       0.7000
     number of iterations used =            8  plain     mixing
     Exchange-correlation=  SLA  PW   PBX  PBC
                           (   1   4   3   4   0   0   0)

     celldm(1)=   9.285000  celldm(2)=   0.000000  celldm(3)=   1.100000
     celldm(4)=   0.000000  celldm(5)=   0.000000  celldm(6)=   0.000000

     crystal axes: (cart. coord. in units of alat)
               a(1) = (   1.000000   0.000000   0.000000 )  
               a(2) = (  -0.500000   0.866025   0.000000 )  
               a(3) = (   0.000000   0.000000   1.100000 )  

     reciprocal axes: (cart. coord. in units 2 pi/alat)
               b(1) = (  1.000000  0.577350 -0.000000 )  
               b(2) = (  0.000000  1.154701  0.000000 )  
               b(3) = (  0.000000 -0.000000  0.909091 )  


     PseudoPot. # 1 for Si read from file:
     ./Si.pbe-van_gipaw.UPF
     MD5 check sum: 907f546cb6949dd03cdbc0a9de4be0c7
     Pseudo is Ultrasoft, Zval =  4.0
     Generated by new atomic code, or converted to UPF format
     Using radial grid of 1141 points,  4 beta functions with: 
                l(1) =   0
                l(2) =   0
                l(3) =   1
                l(4) =   1
     Q(r) pseudized with 0 coefficients 


     PseudoPot. # 2 for O  read from file:
     ./O.pbe-van_gipaw.UPF
     MD5 check sum: 5ce2a047509d4f331db576c963e74b29
     Pseudo is Ultrasoft, Zval =  6.0
     Generated by new atomic code, or converted to UPF format
     Using radial grid of 1095 points,  4 beta functions with: 
                l(1) =   0
                l(2) =   0
                l(3) =   1
                l(4) =   1
     Q(r) pseudized with 0 coefficients 


     atomic species   valence    mass     pseudopotential
     Si                4.00    28.08600     Si( 1.00)
     O                 6.00    16.00000     O ( 1.00)

      6 Sym. Ops. (no inversion) found ( 4 have fractional translation)



   Cartesian axes

     site n.     atom                  positions (alat units)
         1        Si     tau(   1) = (  -0.2349350   0.4069194   0.3666663  )
         2        Si     tau(   2) = (   0.4698700   0.0000000   0.7333330  )
         3        Si     tau(   3) = (   0.2650650   0.4591060   1.0999996  )
         4        O      tau(   4) = (   0.2800500   0.2321814   0.8640500  )
         5        O      tau(   5) = (   0.6589000   0.1264397   0.4973833  )
         6        O      tau(   6) = (   0.5610500   0.5074043   0.1307167  )
         7        O      tau(   7) = (   0.0610500   0.3586211   0.2359500  )
         8        O      tau(   8) = (  -0.2199500   0.6338440   0.6026167  )
         9        O      tau(   9) = (   0.1589000   0.7395857   0.9692833  )

     number of k points=   146

     Number of k-points >= 100: set verbosity='high' to print them.

     Dense  grid:   189349 G-vectors     FFT dimensions: (  75,  75,  81)

     Estimated max dynamical RAM per process >      17.78 MB

     Estimated total dynamical RAM >       2.09 GB

     Initial potential from superposition of free atoms

     starting charge      45.3753, renormalised to      48.0000
     Starting wfcs are   60 randomized atomic wfcs

     total cpu time spent up to now is        2.8 secs

     per-process dynamical memory:    25.6 Mb

     Self-consistent Calculation

     iteration #  1     ecut=   150.00 Ry     beta= 0.70
     Davidson diagonalization with overlap
     ethr =  1.00E-02,  avg # of iterations =  3.0

     Threshold (ethr) on eigenvalues was too large:
     Diagonalizing with lowered threshold

     Davidson diagonalization with overlap
     ethr =  9.40E-04,  avg # of iterations =  2.0

     negative rho (up, down):  1.405E-03 0.000E+00

     total cpu time spent up to now is        8.0 secs

     total energy              =    -215.79291194 Ry
     estimated scf accuracy    <       0.44756935 Ry

     iteration #  2     ecut=   150.00 Ry     beta= 0.70
     Davidson diagonalization with overlap
     ethr =  9.32E-04,  avg # of iterations =  2.0

     negative rho (up, down):  8.757E-04 0.000E+00

     total cpu time spent up to now is       10.8 secs

     total energy              =    -215.91067454 Ry
     estimated scf accuracy    <       0.13516718 Ry

     iteration #  3     ecut=   150.00 Ry     beta= 0.70
     Davidson diagonalization with overlap
     ethr =  2.82E-04,  avg # of iterations =  2.0

     total cpu time spent up to now is       13.3 secs

     total energy              =    -215.93357883 Ry
     estimated scf accuracy    <       0.00457300 Ry

     iteration #  4     ecut=   150.00 Ry     beta= 0.70
     Davidson diagonalization with overlap
     ethr =  9.53E-06,  avg # of iterations =  3.1

     total cpu time spent up to now is       16.3 secs

     total energy              =    -215.93543206 Ry
     estimated scf accuracy    <       0.00161109 Ry

     iteration #  5     ecut=   150.00 Ry     beta= 0.70
     Davidson diagonalization with overlap
     ethr =  3.36E-06,  avg # of iterations =  2.0

     total cpu time spent up to now is       19.0 secs

     total energy              =    -215.93566663 Ry
     estimated scf accuracy    <       0.00008694 Ry

     iteration #  6     ecut=   150.00 Ry     beta= 0.70
     Davidson diagonalization with overlap
     ethr =  1.81E-07,  avg # of iterations =  3.7

     total cpu time spent up to now is       22.1 secs

     total energy              =    -215.93572900 Ry
     estimated scf accuracy    <       0.00001967 Ry

     iteration #  7     ecut=   150.00 Ry     beta= 0.70
     Davidson diagonalization with overlap
     ethr =  4.10E-08,  avg # of iterations =  2.0

     total cpu time spent up to now is       24.8 secs

     total energy              =    -215.93573259 Ry
     estimated scf accuracy    <       0.00000070 Ry

     iteration #  8     ecut=   150.00 Ry     beta= 0.70
     Davidson diagonalization with overlap
     ethr =  1.46E-09,  avg # of iterations =  5.0

     total cpu time spent up to now is       28.4 secs

     End of self-consistent calculation

     Number of k-points >= 100: set verbosity='high' to print the bands.

     highest occupied level (ev):     2.5777

!    total energy              =    -215.93573341 Ry
     estimated scf accuracy    <       0.00000002 Ry

     The total energy is the sum of the following terms:
     one-electron contribution =    -103.42188782 Ry
     hartree contribution      =      77.24800989 Ry
     xc contribution           =     -50.79925187 Ry
     ewald contribution        =    -138.96260361 Ry

     convergence has been achieved in   8 iterations

     Writing all to output data dir ./quartz-scf-us/quartz.save/ :
     XML data file, charge density, pseudopotentials, collected wavefunctions

     init_run     :      2.21s CPU      2.35s WALL (       1 calls)
     electrons    :     24.83s CPU     26.23s WALL (       1 calls)

     Called by init_run:
     wfcinit      :      1.93s CPU      1.99s WALL (       1 calls)
     potinit      :      0.01s CPU      0.05s WALL (       1 calls)
     hinit0       :      0.17s CPU      0.19s WALL (       1 calls)

     Called by electrons:
     c_bands      :     21.53s CPU     22.16s WALL (       9 calls)
     sum_band     :      3.14s CPU      3.21s WALL (       9 calls)
     v_of_rho     :      0.10s CPU      0.13s WALL (       9 calls)
     newd         :      0.02s CPU      0.03s WALL (       9 calls)
     mix_rho      :      0.02s CPU      0.02s WALL (       9 calls)

     Called by c_bands:
     init_us_2    :      0.29s CPU      0.31s WALL (     703 calls)
     cegterg      :     20.82s CPU     21.26s WALL (     333 calls)

     Called by *egterg:
     cdiaghg      :      1.24s CPU      1.26s WALL (    1228 calls)
     h_psi        :     18.73s CPU     19.16s WALL (    1302 calls)
     s_psi        :      0.56s CPU      0.57s WALL (    1302 calls)
     g_psi        :      0.05s CPU      0.05s WALL (     932 calls)

     Called by h_psi:
     h_psi:calbec :      0.85s CPU      0.86s WALL (    1302 calls)
     vloc_psi     :     17.18s CPU     17.57s WALL (    1302 calls)
     add_vuspsi   :      0.61s CPU      0.62s WALL (    1302 calls)

     General routines
     calbec       :      1.05s CPU      1.06s WALL (    1635 calls)
     fft          :      0.19s CPU      0.20s WALL (      99 calls)
     ffts         :      0.01s CPU      0.01s WALL (       9 calls)
     fftw         :     18.06s CPU     18.46s WALL (   59994 calls)

     Parallel routines

     PWSCF        :     28.97s CPU     36.75s WALL


   This run was terminated on:  14:46:49   4Feb2026            

=------------------------------------------------------------------------------=
   JOB DONE.
=------------------------------------------------------------------------------=
