
     Program PWSCF v.7.3.1 starts on  4Feb2026 at 14:44: 3 

     This program is part of the open-source Quantum ESPRESSO suite
     for quantum simulation of materials; please cite
         "P. Giannozzi et al., J. Phys.:Condens. Matter 21 395502 (2009);
         "P. Giannozzi et al., J. Phys.:Condens. Matter 29 465901 (2017);
         "P. Giannozzi et al., J. Chem. Phys. 152 154105 (2020);
          URL http://www.quantum-espresso.org", 
     in publications or presentations arising from this work. More details at
     http://www.quantum-espresso.org/quote

     Parallel version (MPI), running on   128 processors

     MPI processes distributed on     1 nodes
     241282 MiB available memory on the printing compute node when the environment starts

     Waiting for input...
     Reading input from standard input

     Current dimensions of program PWSCF are:
     Max number of different atomic species (ntypx) = 10
     Max number of k-points (npk) =  40000
     Max angular momentum in pseudopotentials (lmaxx) =  4
     WARNING: atomic wfc #  2 for atom typeSi has zero norm
     WARNING: atomic wfc #  2 for atom typeO has zero norm
     WARNING: atomic wfc #  4 for atom typeO has zero norm
     WARNING: atomic wfc #  5 for atom typeO has zero norm

     K-points division:     npool     =       4
     R & G space division:  proc/nbgrp/npool/nimage =      32
     Subspace diagonalization in iterative solution of the eigenvalue problem:
     a serial algorithm will be used


     Parallelization info
     --------------------
     sticks:   dense  smooth     PW     G-vecs:    dense   smooth      PW
     Min         111     111     29                 5915     5915     825
     Max         112     112     30                 5920     5920     832
     Sum        3571    3571    955               189349   189349   26555

     Using Slab Decomposition



     bravais-lattice index     =            4
     lattice parameter (alat)  =       9.2850  a.u.
     unit-cell volume          =     762.5513 (a.u.)^3
     number of atoms/cell      =            9
     number of atomic types    =            2
     number of electrons       =        48.00
     number of Kohn-Sham states=           24
     kinetic-energy cutoff     =     150.0000  Ry
     charge density cutoff     =     600.0000  Ry
     scf convergence threshold =      1.0E-07
     mixing beta               =       0.7000
     number of iterations used =            8  plain     mixing
     Exchange-correlation=  SLA  PW   PBX  PBC
                           (   1   4   3   4   0   0   0)

     celldm(1)=   9.285000  celldm(2)=   0.000000  celldm(3)=   1.100000
     celldm(4)=   0.000000  celldm(5)=   0.000000  celldm(6)=   0.000000

     crystal axes: (cart. coord. in units of alat)
               a(1) = (   1.000000   0.000000   0.000000 )  
               a(2) = (  -0.500000   0.866025   0.000000 )  
               a(3) = (   0.000000   0.000000   1.100000 )  

     reciprocal axes: (cart. coord. in units 2 pi/alat)
               b(1) = (  1.000000  0.577350 -0.000000 )  
               b(2) = (  0.000000  1.154701  0.000000 )  
               b(3) = (  0.000000 -0.000000  0.909091 )  


     PseudoPot. # 1 for Si read from file:
     ./Si.pbe-van_gipaw.UPF
     MD5 check sum: 907f546cb6949dd03cdbc0a9de4be0c7
     Pseudo is Ultrasoft, Zval =  4.0
     Generated by new atomic code, or converted to UPF format
     Using radial grid of 1141 points,  4 beta functions with: 
                l(1) =   0
                l(2) =   0
                l(3) =   1
                l(4) =   1
     Q(r) pseudized with 0 coefficients 


     PseudoPot. # 2 for O  read from file:
     ./O.pbe-van_gipaw.UPF
     MD5 check sum: 5ce2a047509d4f331db576c963e74b29
     Pseudo is Ultrasoft, Zval =  6.0
     Generated by new atomic code, or converted to UPF format
     Using radial grid of 1095 points,  4 beta functions with: 
                l(1) =   0
                l(2) =   0
                l(3) =   1
                l(4) =   1
     Q(r) pseudized with 0 coefficients 


     atomic species   valence    mass     pseudopotential
     Si                4.00    28.08600     Si( 1.00)
     O                 6.00    16.00000     O ( 1.00)

      6 Sym. Ops. (no inversion) found ( 4 have fractional translation)



   Cartesian axes

     site n.     atom                  positions (alat units)
         1        Si     tau(   1) = (  -0.2349350   0.4069194   0.3666663  )
         2        Si     tau(   2) = (   0.4698700   0.0000000   0.7333330  )
         3        Si     tau(   3) = (   0.2650650   0.4591060   1.0999996  )
         4        O      tau(   4) = (   0.2800500   0.2321814   0.8640500  )
         5        O      tau(   5) = (   0.6589000   0.1264397   0.4973833  )
         6        O      tau(   6) = (   0.5610500   0.5074043   0.1307167  )
         7        O      tau(   7) = (   0.0610500   0.3586211   0.2359500  )
         8        O      tau(   8) = (  -0.2199500   0.6338440   0.6026167  )
         9        O      tau(   9) = (   0.1589000   0.7395857   0.9692833  )

     number of k points=     4
                       cart. coord. in units 2pi/alat
        k(    1) = (   0.0000000   0.0000000   0.0000000), wk =   0.2500000
        k(    2) = (   0.0000000   0.0000000  -0.4545455), wk =   0.2500000
        k(    3) = (   0.0000000  -0.5773503   0.0000000), wk =   0.7500000
        k(    4) = (   0.0000000  -0.5773503  -0.4545455), wk =   0.7500000

     Dense  grid:   189349 G-vectors     FFT dimensions: (  75,  75,  81)

     Estimated max dynamical RAM per process >       7.76 MB

     Estimated total dynamical RAM >     854.78 MB

     Initial potential from superposition of free atoms

     starting charge      45.3753, renormalised to      48.0000
     Starting wfcs are   60 randomized atomic wfcs

     total cpu time spent up to now is        0.9 secs

     per-process dynamical memory:    16.0 Mb

     Self-consistent Calculation

     iteration #  1     ecut=   150.00 Ry     beta= 0.70
     Davidson diagonalization with overlap
     ethr =  1.00E-02,  avg # of iterations =  3.0

     Threshold (ethr) on eigenvalues was too large:
     Diagonalizing with lowered threshold

     Davidson diagonalization with overlap
     ethr =  9.41E-04,  avg # of iterations =  2.0

     negative rho (up, down):  1.031E-03 0.000E+00

     total cpu time spent up to now is        1.1 secs

     total energy              =    -215.79412807 Ry
     estimated scf accuracy    <       0.44458071 Ry

     iteration #  2     ecut=   150.00 Ry     beta= 0.70
     Davidson diagonalization with overlap
     ethr =  9.26E-04,  avg # of iterations =  2.0

     negative rho (up, down):  5.896E-04 0.000E+00

     total cpu time spent up to now is        1.2 secs

     total energy              =    -215.91069798 Ry
     estimated scf accuracy    <       0.13314076 Ry

     iteration #  3     ecut=   150.00 Ry     beta= 0.70
     Davidson diagonalization with overlap
     ethr =  2.77E-04,  avg # of iterations =  2.0

     total cpu time spent up to now is        1.3 secs

     total energy              =    -215.93316136 Ry
     estimated scf accuracy    <       0.00458717 Ry

     iteration #  4     ecut=   150.00 Ry     beta= 0.70
     Davidson diagonalization with overlap
     ethr =  9.56E-06,  avg # of iterations =  3.5

     total cpu time spent up to now is        1.4 secs

     total energy              =    -215.93504316 Ry
     estimated scf accuracy    <       0.00167331 Ry

     iteration #  5     ecut=   150.00 Ry     beta= 0.70
     Davidson diagonalization with overlap
     ethr =  3.49E-06,  avg # of iterations =  2.0

     total cpu time spent up to now is        1.5 secs

     total energy              =    -215.93526540 Ry
     estimated scf accuracy    <       0.00010366 Ry

     iteration #  6     ecut=   150.00 Ry     beta= 0.70
     Davidson diagonalization with overlap
     ethr =  2.16E-07,  avg # of iterations =  4.0

     total cpu time spent up to now is        1.7 secs

     total energy              =    -215.93533078 Ry
     estimated scf accuracy    <       0.00001913 Ry

     iteration #  7     ecut=   150.00 Ry     beta= 0.70
     Davidson diagonalization with overlap
     ethr =  3.99E-08,  avg # of iterations =  2.2

     total cpu time spent up to now is        1.8 secs

     total energy              =    -215.93533280 Ry
     estimated scf accuracy    <       0.00000193 Ry

     iteration #  8     ecut=   150.00 Ry     beta= 0.70
     Davidson diagonalization with overlap
     ethr =  4.02E-09,  avg # of iterations =  3.5

     total cpu time spent up to now is        1.9 secs

     End of self-consistent calculation

          k = 0.0000 0.0000 0.0000 ( 23595 PWs)   bands (ev):

   -16.7724 -15.2335 -15.2335 -14.5897 -14.5437 -14.5437  -5.6913  -5.6913
    -2.9069  -2.8888  -2.7165  -2.7165  -0.3504  -0.3504  -0.0979   0.1555
     1.0859   1.0859   1.1143   1.5943   1.5943   1.9055   2.2701   2.2701

          k = 0.0000 0.0000-0.4545 ( 23668 PWs)   bands (ev):

   -16.3037 -16.3037 -14.5914 -14.5775 -14.5775 -14.5168  -6.7813  -3.7278
    -3.7278  -3.0772  -3.0772  -2.1554  -0.1128  -0.1128  -0.0465   0.5830
     0.5830   0.7596   0.7596   1.0616   1.3841   2.3730   2.3730   2.4960

          k = 0.0000-0.5774 0.0000 ( 23646 PWs)   bands (ev):

   -16.2815 -15.8005 -15.1788 -14.6461 -14.6059 -14.5793  -5.8316  -4.8294
    -3.3577  -2.9141  -2.8938  -2.1179  -0.4694  -0.3008  -0.0949   0.2869
     0.5085   0.8461   0.9288   1.4817   1.5481   1.8013   2.3147   2.5465

          k = 0.0000-0.5774-0.4545 ( 23716 PWs)   bands (ev):

   -16.2105 -15.7664 -15.3160 -14.6712 -14.5898 -14.5660  -5.6847  -4.7139
    -3.8557  -2.7980  -2.5393  -2.4261  -0.6026  -0.5870   0.1564   0.4722
     0.4950   1.0336   1.3170   1.4420   1.7030   1.7590   1.9848   2.3912

     highest occupied level (ev):     2.5465

!    total energy              =    -215.93533390 Ry
     estimated scf accuracy    <       0.00000006 Ry

     The total energy is the sum of the following terms:
     one-electron contribution =    -103.42421615 Ry
     hartree contribution      =      77.25165610 Ry
     xc contribution           =     -50.80017023 Ry
     ewald contribution        =    -138.96260361 Ry

     convergence has been achieved in   8 iterations

     Writing all to output data dir ./quartz-scf-us/quartz.save/ :
     XML data file, charge density, pseudopotentials, collected wavefunctions

     init_run     :      0.33s CPU      0.43s WALL (       1 calls)
     electrons    :      0.90s CPU      1.33s WALL (       1 calls)

     Called by init_run:
     wfcinit      :      0.06s CPU      0.07s WALL (       1 calls)
     potinit      :      0.01s CPU      0.04s WALL (       1 calls)
     hinit0       :      0.17s CPU      0.20s WALL (       1 calls)

     Called by electrons:
     c_bands      :      0.58s CPU      0.62s WALL (       9 calls)
     sum_band     :      0.14s CPU      0.15s WALL (       9 calls)
     v_of_rho     :      0.12s CPU      0.13s WALL (       9 calls)
     newd         :      0.03s CPU      0.03s WALL (       9 calls)
     mix_rho      :      0.02s CPU      0.02s WALL (       9 calls)

     Called by c_bands:
     init_us_2    :      0.01s CPU      0.01s WALL (      19 calls)
     cegterg      :      0.56s CPU      0.59s WALL (       9 calls)

     Called by *egterg:
     cdiaghg      :      0.03s CPU      0.04s WALL (      35 calls)
     h_psi        :      0.50s CPU      0.53s WALL (      37 calls)
     s_psi        :      0.01s CPU      0.01s WALL (      37 calls)
     g_psi        :      0.00s CPU      0.00s WALL (      27 calls)

     Called by h_psi:
     h_psi:calbec :      0.03s CPU      0.03s WALL (      37 calls)
     vloc_psi     :      0.46s CPU      0.48s WALL (      37 calls)
     add_vuspsi   :      0.02s CPU      0.02s WALL (      37 calls)

     General routines
     calbec       :      0.03s CPU      0.03s WALL (      46 calls)
     fft          :      0.20s CPU      0.21s WALL (      99 calls)
     ffts         :      0.01s CPU      0.01s WALL (       9 calls)
     fftw         :      0.48s CPU      0.51s WALL (    1596 calls)

     Parallel routines

     PWSCF        :      1.92s CPU      3.00s WALL


   This run was terminated on:  14:44: 6   4Feb2026            

=------------------------------------------------------------------------------=
   JOB DONE.
=------------------------------------------------------------------------------=
