
     Program PWSCF v.7.3.1 starts on  4Feb2026 at 14:44: 9 

     This program is part of the open-source Quantum ESPRESSO suite
     for quantum simulation of materials; please cite
         "P. Giannozzi et al., J. Phys.:Condens. Matter 21 395502 (2009);
         "P. Giannozzi et al., J. Phys.:Condens. Matter 29 465901 (2017);
         "P. Giannozzi et al., J. Chem. Phys. 152 154105 (2020);
          URL http://www.quantum-espresso.org", 
     in publications or presentations arising from this work. More details at
     http://www.quantum-espresso.org/quote

     Parallel version (MPI), running on   128 processors

     MPI processes distributed on     1 nodes
     241283 MiB available memory on the printing compute node when the environment starts

     Waiting for input...
     Reading input from standard input

     Current dimensions of program PWSCF are:
     Max number of different atomic species (ntypx) = 10
     Max number of k-points (npk) =  40000
     Max angular momentum in pseudopotentials (lmaxx) =  4
     WARNING: atomic wfc #  2 for atom typeSi has zero norm
     WARNING: atomic wfc #  2 for atom typeO has zero norm
     WARNING: atomic wfc #  4 for atom typeO has zero norm
     WARNING: atomic wfc #  5 for atom typeO has zero norm

     K-points division:     npool     =       4
     R & G space division:  proc/nbgrp/npool/nimage =      32
     Subspace diagonalization in iterative solution of the eigenvalue problem:
     a serial algorithm will be used


     Parallelization info
     --------------------
     sticks:   dense  smooth     PW     G-vecs:    dense   smooth      PW
     Min         111     111     29                 5915     5915     825
     Max         112     112     30                 5920     5920     832
     Sum        3571    3571    955               189349   189349   26555

     Using Slab Decomposition



     bravais-lattice index     =            4
     lattice parameter (alat)  =       9.2850  a.u.
     unit-cell volume          =     762.5513 (a.u.)^3
     number of atoms/cell      =            9
     number of atomic types    =            2
     number of electrons       =        48.00
     number of Kohn-Sham states=           24
     kinetic-energy cutoff     =     150.0000  Ry
     charge density cutoff     =     600.0000  Ry
     scf convergence threshold =      1.0E-07
     mixing beta               =       0.7000
     number of iterations used =            8  plain     mixing
     Exchange-correlation=  SLA  PW   PBX  PBC
                           (   1   4   3   4   0   0   0)

     celldm(1)=   9.285000  celldm(2)=   0.000000  celldm(3)=   1.100000
     celldm(4)=   0.000000  celldm(5)=   0.000000  celldm(6)=   0.000000

     crystal axes: (cart. coord. in units of alat)
               a(1) = (   1.000000   0.000000   0.000000 )  
               a(2) = (  -0.500000   0.866025   0.000000 )  
               a(3) = (   0.000000   0.000000   1.100000 )  

     reciprocal axes: (cart. coord. in units 2 pi/alat)
               b(1) = (  1.000000  0.577350 -0.000000 )  
               b(2) = (  0.000000  1.154701  0.000000 )  
               b(3) = (  0.000000 -0.000000  0.909091 )  


     PseudoPot. # 1 for Si read from file:
     ./Si.pbe-van_gipaw.UPF
     MD5 check sum: 907f546cb6949dd03cdbc0a9de4be0c7
     Pseudo is Ultrasoft, Zval =  4.0
     Generated by new atomic code, or converted to UPF format
     Using radial grid of 1141 points,  4 beta functions with: 
                l(1) =   0
                l(2) =   0
                l(3) =   1
                l(4) =   1
     Q(r) pseudized with 0 coefficients 


     PseudoPot. # 2 for O  read from file:
     ./O.pbe-van_gipaw.UPF
     MD5 check sum: 5ce2a047509d4f331db576c963e74b29
     Pseudo is Ultrasoft, Zval =  6.0
     Generated by new atomic code, or converted to UPF format
     Using radial grid of 1095 points,  4 beta functions with: 
                l(1) =   0
                l(2) =   0
                l(3) =   1
                l(4) =   1
     Q(r) pseudized with 0 coefficients 


     atomic species   valence    mass     pseudopotential
     Si                4.00    28.08600     Si( 1.00)
     O                 6.00    16.00000     O ( 1.00)

      6 Sym. Ops. (no inversion) found ( 4 have fractional translation)



   Cartesian axes

     site n.     atom                  positions (alat units)
         1        Si     tau(   1) = (  -0.2349350   0.4069194   0.3666663  )
         2        Si     tau(   2) = (   0.4698700   0.0000000   0.7333330  )
         3        Si     tau(   3) = (   0.2650650   0.4591060   1.0999996  )
         4        O      tau(   4) = (   0.2800500   0.2321814   0.8640500  )
         5        O      tau(   5) = (   0.6589000   0.1264397   0.4973833  )
         6        O      tau(   6) = (   0.5610500   0.5074043   0.1307167  )
         7        O      tau(   7) = (   0.0610500   0.3586211   0.2359500  )
         8        O      tau(   8) = (  -0.2199500   0.6338440   0.6026167  )
         9        O      tau(   9) = (   0.1589000   0.7395857   0.9692833  )

     number of k points=     7
                       cart. coord. in units 2pi/alat
        k(    1) = (   0.0000000   0.0000000   0.0000000), wk =   0.0740741
        k(    2) = (   0.0000000   0.0000000   0.3030303), wk =   0.1481481
        k(    3) = (   0.0000000   0.3849002   0.0000000), wk =   0.4444444
        k(    4) = (   0.0000000   0.3849002   0.3030303), wk =   0.4444444
        k(    5) = (   0.3333333   0.5773503   0.0000000), wk =   0.1481481
        k(    6) = (   0.3333333   0.5773503   0.3030303), wk =   0.2962963
        k(    7) = (   0.0000000   0.3849002  -0.3030303), wk =   0.4444444

     Dense  grid:   189349 G-vectors     FFT dimensions: (  75,  75,  81)

     Estimated max dynamical RAM per process >       8.30 MB

     Estimated total dynamical RAM >     924.06 MB

     Initial potential from superposition of free atoms

     starting charge      45.3753, renormalised to      48.0000
     Starting wfcs are   60 randomized atomic wfcs

     total cpu time spent up to now is        1.0 secs

     per-process dynamical memory:    16.1 Mb

     Self-consistent Calculation

     iteration #  1     ecut=   150.00 Ry     beta= 0.70
     Davidson diagonalization with overlap
     ethr =  1.00E-02,  avg # of iterations =  3.0

     Threshold (ethr) on eigenvalues was too large:
     Diagonalizing with lowered threshold

     Davidson diagonalization with overlap
     ethr =  9.41E-04,  avg # of iterations =  2.0

     negative rho (up, down):  1.506E-03 0.000E+00

     total cpu time spent up to now is        1.4 secs

     total energy              =    -215.79244836 Ry
     estimated scf accuracy    <       0.44860994 Ry

     iteration #  2     ecut=   150.00 Ry     beta= 0.70
     Davidson diagonalization with overlap
     ethr =  9.35E-04,  avg # of iterations =  2.0

     negative rho (up, down):  9.443E-04 0.000E+00

     total cpu time spent up to now is        1.5 secs

     total energy              =    -215.91053801 Ry
     estimated scf accuracy    <       0.13575312 Ry

     iteration #  3     ecut=   150.00 Ry     beta= 0.70
     Davidson diagonalization with overlap
     ethr =  2.83E-04,  avg # of iterations =  2.0

     total cpu time spent up to now is        1.7 secs

     total energy              =    -215.93355734 Ry
     estimated scf accuracy    <       0.00456594 Ry

     iteration #  4     ecut=   150.00 Ry     beta= 0.70
     Davidson diagonalization with overlap
     ethr =  9.51E-06,  avg # of iterations =  3.0

     total cpu time spent up to now is        1.9 secs

     total energy              =    -215.93541844 Ry
     estimated scf accuracy    <       0.00158492 Ry

     iteration #  5     ecut=   150.00 Ry     beta= 0.70
     Davidson diagonalization with overlap
     ethr =  3.30E-06,  avg # of iterations =  2.0

     total cpu time spent up to now is        2.1 secs

     total energy              =    -215.93565280 Ry
     estimated scf accuracy    <       0.00008370 Ry

     iteration #  6     ecut=   150.00 Ry     beta= 0.70
     Davidson diagonalization with overlap
     ethr =  1.74E-07,  avg # of iterations =  4.0

     total cpu time spent up to now is        2.3 secs

     total energy              =    -215.93571348 Ry
     estimated scf accuracy    <       0.00002063 Ry

     iteration #  7     ecut=   150.00 Ry     beta= 0.70
     Davidson diagonalization with overlap
     ethr =  4.30E-08,  avg # of iterations =  2.0

     total cpu time spent up to now is        2.4 secs

     total energy              =    -215.93571721 Ry
     estimated scf accuracy    <       0.00000067 Ry

     iteration #  8     ecut=   150.00 Ry     beta= 0.70
     Davidson diagonalization with overlap
     ethr =  1.39E-09,  avg # of iterations =  5.1

     total cpu time spent up to now is        2.7 secs

     End of self-consistent calculation

          k = 0.0000 0.0000 0.0000 ( 23595 PWs)   bands (ev):

   -16.7729 -15.2341 -15.2341 -14.5901 -14.5443 -14.5443  -5.6921  -5.6921
    -2.9079  -2.8897  -2.7170  -2.7170  -0.3509  -0.3509  -0.0986   0.1548
     1.0853   1.0853   1.1139   1.5937   1.5937   1.9049   2.2695   2.2696

          k = 0.0000 0.0000 0.3030 ( 23698 PWs)   bands (ev):

   -16.5579 -15.9777 -14.6752 -14.5846 -14.5691 -14.5212  -6.6463  -4.3312
    -3.2848  -3.0494  -3.0121  -2.2491  -0.3482  -0.0764   0.0225   0.4237
     0.6941   0.8765   0.9508   1.0677   1.4470   2.1581   2.4320   2.4936

          k = 0.0000 0.3849 0.0000 ( 23656 PWs)   bands (ev):

   -16.4718 -15.5863 -15.1941 -14.6395 -14.5923 -14.5688  -5.7989  -5.0919
    -3.1701  -2.9418  -2.8632  -2.2774  -0.5466  -0.1788  -0.0521   0.3141
     0.5050   0.9310   1.0260   1.4842   1.5632   1.7586   2.3368   2.4916

          k = 0.0000 0.3849 0.3030 ( 23660 PWs)   bands (ev):

   -16.3305 -15.8523 -15.0928 -14.6358 -14.5855 -14.5633  -6.0224  -4.5833
    -3.6729  -2.9063  -2.5866  -2.3633  -0.5760  -0.3401   0.1423   0.1757
     0.5359   1.0854   1.1825   1.3958   1.6573   1.7756   2.1236   2.5051

          k = 0.3333 0.5774 0.0000 ( 23688 PWs)   bands (ev):

   -16.0359 -16.0359 -15.2121 -14.6438 -14.5945 -14.5944  -5.8918  -4.1671
    -4.1671  -2.8036  -2.8036  -2.0283  -0.3357  -0.3357  -0.2898   0.5380
     0.5380   0.7069   0.8711   1.3546   1.3546   2.1471   2.1471   2.5802

          k = 0.3333 0.5774 0.3030 ( 23673 PWs)   bands (ev):

   -16.1685 -15.7356 -15.3748 -14.6629 -14.6247 -14.5789  -5.5249  -4.7420
    -4.0178  -2.7942  -2.5245  -2.3740  -0.6423  -0.2322  -0.2213   0.5931
     0.6187   0.6688   1.4000   1.4262   1.6379   1.9783   1.9949   2.2534

          k = 0.0000 0.3849-0.3030 ( 23660 PWs)   bands (ev):

   -16.3249 -15.8685 -15.0665 -14.6442 -14.6003 -14.5564  -6.0196  -4.5795
    -3.6778  -2.8790  -2.5668  -2.4338  -0.6109  -0.3183   0.1030   0.3040
     0.6097   0.9687   1.1156   1.3770   1.6515   1.8618   2.2469   2.3758

     highest occupied level (ev):     2.5802

!    total energy              =    -215.93571803 Ry
     estimated scf accuracy    <       0.00000002 Ry

     The total energy is the sum of the following terms:
     one-electron contribution =    -103.42201925 Ry
     hartree contribution      =      77.24820221 Ry
     xc contribution           =     -50.79929738 Ry
     ewald contribution        =    -138.96260361 Ry

     convergence has been achieved in   8 iterations

     Writing all to output data dir ./quartz-scf-us/quartz.save/ :
     XML data file, charge density, pseudopotentials, collected wavefunctions

     init_run     :      0.42s CPU      0.48s WALL (       1 calls)
     electrons    :      1.57s CPU      1.72s WALL (       1 calls)

     Called by init_run:
     wfcinit      :      0.12s CPU      0.13s WALL (       1 calls)
     potinit      :      0.03s CPU      0.04s WALL (       1 calls)
     hinit0       :      0.18s CPU      0.20s WALL (       1 calls)

     Called by electrons:
     c_bands      :      1.16s CPU      1.22s WALL (       9 calls)
     sum_band     :      0.23s CPU      0.24s WALL (       9 calls)
     v_of_rho     :      0.12s CPU      0.13s WALL (       9 calls)
     newd         :      0.03s CPU      0.03s WALL (       9 calls)
     mix_rho      :      0.01s CPU      0.02s WALL (       9 calls)

     Called by c_bands:
     init_us_2    :      0.02s CPU      0.02s WALL (      38 calls)
     cegterg      :      1.13s CPU      1.17s WALL (      18 calls)

     Called by *egterg:
     cdiaghg      :      0.07s CPU      0.07s WALL (      70 calls)
     h_psi        :      1.03s CPU      1.06s WALL (      74 calls)
     s_psi        :      0.03s CPU      0.03s WALL (      74 calls)
     g_psi        :      0.00s CPU      0.00s WALL (      54 calls)

     Called by h_psi:
     h_psi:calbec :      0.05s CPU      0.05s WALL (      74 calls)
     vloc_psi     :      0.94s CPU      0.97s WALL (      74 calls)
     add_vuspsi   :      0.03s CPU      0.03s WALL (      74 calls)

     General routines
     calbec       :      0.06s CPU      0.06s WALL (      92 calls)
     fft          :      0.20s CPU      0.21s WALL (      99 calls)
     ffts         :      0.01s CPU      0.01s WALL (       9 calls)
     fftw         :      0.99s CPU      1.02s WALL (    3244 calls)

     Parallel routines

     PWSCF        :      2.48s CPU      3.09s WALL


   This run was terminated on:  14:44:12   4Feb2026            

=------------------------------------------------------------------------------=
   JOB DONE.
=------------------------------------------------------------------------------=
