
     Program PWSCF v.7.3.1 starts on  4Feb2026 at 14:44:23 

     This program is part of the open-source Quantum ESPRESSO suite
     for quantum simulation of materials; please cite
         "P. Giannozzi et al., J. Phys.:Condens. Matter 21 395502 (2009);
         "P. Giannozzi et al., J. Phys.:Condens. Matter 29 465901 (2017);
         "P. Giannozzi et al., J. Chem. Phys. 152 154105 (2020);
          URL http://www.quantum-espresso.org", 
     in publications or presentations arising from this work. More details at
     http://www.quantum-espresso.org/quote

     Parallel version (MPI), running on   128 processors

     MPI processes distributed on     1 nodes
     241264 MiB available memory on the printing compute node when the environment starts

     Waiting for input...
     Reading input from standard input

     Current dimensions of program PWSCF are:
     Max number of different atomic species (ntypx) = 10
     Max number of k-points (npk) =  40000
     Max angular momentum in pseudopotentials (lmaxx) =  4
     WARNING: atomic wfc #  2 for atom typeSi has zero norm
     WARNING: atomic wfc #  2 for atom typeO has zero norm
     WARNING: atomic wfc #  4 for atom typeO has zero norm
     WARNING: atomic wfc #  5 for atom typeO has zero norm

     K-points division:     npool     =       4
     R & G space division:  proc/nbgrp/npool/nimage =      32
     Subspace diagonalization in iterative solution of the eigenvalue problem:
     a serial algorithm will be used


     Parallelization info
     --------------------
     sticks:   dense  smooth     PW     G-vecs:    dense   smooth      PW
     Min         111     111     29                 5915     5915     825
     Max         112     112     30                 5920     5920     832
     Sum        3571    3571    955               189349   189349   26531

     Using Slab Decomposition



     bravais-lattice index     =            4
     lattice parameter (alat)  =       9.2850  a.u.
     unit-cell volume          =     762.5513 (a.u.)^3
     number of atoms/cell      =            9
     number of atomic types    =            2
     number of electrons       =        48.00
     number of Kohn-Sham states=           24
     kinetic-energy cutoff     =     150.0000  Ry
     charge density cutoff     =     600.0000  Ry
     scf convergence threshold =      1.0E-07
     mixing beta               =       0.7000
     number of iterations used =            8  plain     mixing
     Exchange-correlation=  SLA  PW   PBX  PBC
                           (   1   4   3   4   0   0   0)

     celldm(1)=   9.285000  celldm(2)=   0.000000  celldm(3)=   1.100000
     celldm(4)=   0.000000  celldm(5)=   0.000000  celldm(6)=   0.000000

     crystal axes: (cart. coord. in units of alat)
               a(1) = (   1.000000   0.000000   0.000000 )  
               a(2) = (  -0.500000   0.866025   0.000000 )  
               a(3) = (   0.000000   0.000000   1.100000 )  

     reciprocal axes: (cart. coord. in units 2 pi/alat)
               b(1) = (  1.000000  0.577350 -0.000000 )  
               b(2) = (  0.000000  1.154701  0.000000 )  
               b(3) = (  0.000000 -0.000000  0.909091 )  


     PseudoPot. # 1 for Si read from file:
     ./Si.pbe-van_gipaw.UPF
     MD5 check sum: 907f546cb6949dd03cdbc0a9de4be0c7
     Pseudo is Ultrasoft, Zval =  4.0
     Generated by new atomic code, or converted to UPF format
     Using radial grid of 1141 points,  4 beta functions with: 
                l(1) =   0
                l(2) =   0
                l(3) =   1
                l(4) =   1
     Q(r) pseudized with 0 coefficients 


     PseudoPot. # 2 for O  read from file:
     ./O.pbe-van_gipaw.UPF
     MD5 check sum: 5ce2a047509d4f331db576c963e74b29
     Pseudo is Ultrasoft, Zval =  6.0
     Generated by new atomic code, or converted to UPF format
     Using radial grid of 1095 points,  4 beta functions with: 
                l(1) =   0
                l(2) =   0
                l(3) =   1
                l(4) =   1
     Q(r) pseudized with 0 coefficients 


     atomic species   valence    mass     pseudopotential
     Si                4.00    28.08600     Si( 1.00)
     O                 6.00    16.00000     O ( 1.00)

      6 Sym. Ops. (no inversion) found ( 4 have fractional translation)



   Cartesian axes

     site n.     atom                  positions (alat units)
         1        Si     tau(   1) = (  -0.2349350   0.4069194   0.3666663  )
         2        Si     tau(   2) = (   0.4698700   0.0000000   0.7333330  )
         3        Si     tau(   3) = (   0.2650650   0.4591060   1.0999996  )
         4        O      tau(   4) = (   0.2800500   0.2321814   0.8640500  )
         5        O      tau(   5) = (   0.6589000   0.1264397   0.4973833  )
         6        O      tau(   6) = (   0.5610500   0.5074043   0.1307167  )
         7        O      tau(   7) = (   0.0610500   0.3586211   0.2359500  )
         8        O      tau(   8) = (  -0.2199500   0.6338440   0.6026167  )
         9        O      tau(   9) = (   0.1589000   0.7395857   0.9692833  )

     number of k points=    19
                       cart. coord. in units 2pi/alat
        k(    1) = (   0.0000000   0.0000000   0.0000000), wk =   0.0160000
        k(    2) = (   0.0000000   0.0000000   0.1818182), wk =   0.0320000
        k(    3) = (   0.0000000   0.0000000   0.3636364), wk =   0.0320000
        k(    4) = (   0.0000000   0.2309401   0.0000000), wk =   0.0960000
        k(    5) = (   0.0000000   0.2309401   0.1818182), wk =   0.0960000
        k(    6) = (   0.0000000   0.2309401   0.3636364), wk =   0.0960000
        k(    7) = (   0.0000000   0.4618802   0.0000000), wk =   0.0960000
        k(    8) = (   0.0000000   0.4618802   0.1818182), wk =   0.0960000
        k(    9) = (   0.0000000   0.4618802   0.3636364), wk =   0.0960000
        k(   10) = (   0.2000000   0.3464102   0.0000000), wk =   0.0960000
        k(   11) = (   0.2000000   0.3464102   0.1818182), wk =   0.1920000
        k(   12) = (   0.2000000   0.3464102   0.3636364), wk =   0.1920000
        k(   13) = (   0.2000000   0.5773503   0.0000000), wk =   0.0960000
        k(   14) = (   0.2000000   0.5773503   0.1818182), wk =   0.1920000
        k(   15) = (   0.2000000   0.5773503   0.3636364), wk =   0.1920000
        k(   16) = (   0.0000000   0.2309401  -0.1818182), wk =   0.0960000
        k(   17) = (   0.0000000   0.2309401  -0.3636364), wk =   0.0960000
        k(   18) = (   0.0000000   0.4618802  -0.1818182), wk =   0.0960000
        k(   19) = (   0.0000000   0.4618802  -0.3636364), wk =   0.0960000

     Dense  grid:   189349 G-vectors     FFT dimensions: (  75,  75,  81)

     Estimated max dynamical RAM per process >       9.12 MB

     Estimated total dynamical RAM >       1.00 GB

     Initial potential from superposition of free atoms

     starting charge      45.3753, renormalised to      48.0000
     Starting wfcs are   60 randomized atomic wfcs

     total cpu time spent up to now is        1.1 secs

     per-process dynamical memory:    16.4 Mb

     Self-consistent Calculation

     iteration #  1     ecut=   150.00 Ry     beta= 0.70
     Davidson diagonalization with overlap
     ethr =  1.00E-02,  avg # of iterations =  3.0

     Threshold (ethr) on eigenvalues was too large:
     Diagonalizing with lowered threshold

     Davidson diagonalization with overlap
     ethr =  9.40E-04,  avg # of iterations =  2.0

     negative rho (up, down):  1.455E-03 0.000E+00

     total cpu time spent up to now is        1.9 secs

     total energy              =    -215.79269790 Ry
     estimated scf accuracy    <       0.44786672 Ry

     iteration #  2     ecut=   150.00 Ry     beta= 0.70
     Davidson diagonalization with overlap
     ethr =  9.33E-04,  avg # of iterations =  2.0

     negative rho (up, down):  9.096E-04 0.000E+00

     total cpu time spent up to now is        2.3 secs

     total energy              =    -215.91063402 Ry
     estimated scf accuracy    <       0.13541504 Ry

     iteration #  3     ecut=   150.00 Ry     beta= 0.70
     Davidson diagonalization with overlap
     ethr =  2.82E-04,  avg # of iterations =  2.0

     total cpu time spent up to now is        2.6 secs

     total energy              =    -215.93357420 Ry
     estimated scf accuracy    <       0.00457325 Ry

     iteration #  4     ecut=   150.00 Ry     beta= 0.70
     Davidson diagonalization with overlap
     ethr =  9.53E-06,  avg # of iterations =  3.1

     total cpu time spent up to now is        3.1 secs

     total energy              =    -215.93543516 Ry
     estimated scf accuracy    <       0.00160137 Ry

     iteration #  5     ecut=   150.00 Ry     beta= 0.70
     Davidson diagonalization with overlap
     ethr =  3.34E-06,  avg # of iterations =  2.0

     total cpu time spent up to now is        3.5 secs

     total energy              =    -215.93566665 Ry
     estimated scf accuracy    <       0.00008804 Ry

     iteration #  6     ecut=   150.00 Ry     beta= 0.70
     Davidson diagonalization with overlap
     ethr =  1.83E-07,  avg # of iterations =  3.7

     total cpu time spent up to now is        3.9 secs

     total energy              =    -215.93572919 Ry
     estimated scf accuracy    <       0.00002018 Ry

     iteration #  7     ecut=   150.00 Ry     beta= 0.70
     Davidson diagonalization with overlap
     ethr =  4.21E-08,  avg # of iterations =  2.0

     total cpu time spent up to now is        4.3 secs

     total energy              =    -215.93573255 Ry
     estimated scf accuracy    <       0.00000085 Ry

     iteration #  8     ecut=   150.00 Ry     beta= 0.70
     Davidson diagonalization with overlap
     ethr =  1.77E-09,  avg # of iterations =  5.0

     total cpu time spent up to now is        4.8 secs

     End of self-consistent calculation

          k = 0.0000 0.0000 0.0000 ( 23595 PWs)   bands (ev):

   -16.7731 -15.2343 -15.2343 -14.5903 -14.5445 -14.5445  -5.6922  -5.6922
    -2.9080  -2.8898  -2.7172  -2.7171  -0.3510  -0.3510  -0.0987   0.1546
     1.0851   1.0851   1.1138   1.5935   1.5935   1.9047   2.2694   2.2694

          k = 0.0000 0.0000 0.1818 ( 23578 PWs)   bands (ev):

   -16.6944 -15.6838 -14.8495 -14.5883 -14.5603 -14.5289  -6.3567  -4.8779
    -3.0621  -2.9555  -2.9277  -2.4206  -0.4287  -0.1633  -0.0412   0.2773
     0.9089   1.0087   1.0846   1.2172   1.5689   2.0040   2.3136   2.4614

          k = 0.0000 0.0000 0.3636 ( 23686 PWs)   bands (ev):

   -16.4668 -16.1155 -14.6225 -14.5824 -14.5731 -14.5189  -6.7329  -4.0754
    -3.4403  -3.0732  -3.0480  -2.1911  -0.2667  -0.0563   0.0079   0.4763
     0.6742   0.7541   0.8694   1.0629   1.4066   2.2465   2.4639   2.4718

          k = 0.0000 0.2309 0.0000 ( 23639 PWs)   bands (ev):

   -16.6566 -15.3686 -15.2165 -14.6195 -14.5684 -14.5534  -5.7426  -5.4375
    -2.9467  -2.9310  -2.8450  -2.5138  -0.4976  -0.2681  -0.0609   0.3543
     0.7218   1.0358   1.0959   1.5184   1.5930   1.7765   2.3313   2.3868

          k = 0.0000 0.2309 0.1818 ( 23643 PWs)   bands (ev):

   -16.5852 -15.6778 -14.9807 -14.6115 -14.5695 -14.5516  -6.1581  -4.8832
    -3.2701  -2.9308  -2.7130  -2.4399  -0.5199  -0.1452  -0.0020   0.2703
     0.5978   1.0872   1.1217   1.2713   1.7156   1.8098   2.2102   2.5391

          k = 0.0000 0.2309 0.3636 ( 23657 PWs)   bands (ev):

   -16.3821 -16.0508 -14.8029 -14.6131 -14.5746 -14.5419  -6.4529  -4.2192
    -3.6381  -2.9572  -2.8402  -2.2553  -0.4394  -0.1752   0.0383   0.3274
     0.5178   0.9743   1.0995   1.2040   1.5073   2.0829   2.2698   2.5017

          k = 0.0000 0.4619 0.0000 ( 23664 PWs)   bands (ev):

   -16.3696 -15.7039 -15.1853 -14.6444 -14.6012 -14.5757  -5.8198  -4.9369
    -3.2810  -2.9319  -2.8762  -2.1810  -0.5250  -0.2049  -0.0756   0.2510
     0.5268   0.8748   0.9730   1.4809   1.5500   1.7827   2.3248   2.5258

          k = 0.0000 0.4619 0.1818 ( 23678 PWs)   bands (ev):

   -16.3307 -15.7392 -15.2066 -14.6379 -14.6000 -14.5728  -5.8379  -4.8202
    -3.5298  -2.9248  -2.6489  -2.2700  -0.5359  -0.3231   0.0266   0.1302
     0.6251   0.9143   1.1471   1.4329   1.5319   1.9156   2.1196   2.5314

          k = 0.0000 0.4619 0.3636 ( 23648 PWs)   bands (ev):

   -16.2432 -15.8414 -15.2035 -14.6564 -14.5896 -14.5651  -5.8541  -4.6087
    -3.8013  -2.8562  -2.5454  -2.3934  -0.5854  -0.5113   0.1624   0.3213
     0.5166   1.0745   1.2478   1.4468   1.6429   1.7774   2.0519   2.4426

          k = 0.2000 0.3464 0.0000 ( 23654 PWs)   bands (ev):

   -16.4452 -15.6082 -15.2050 -14.6394 -14.5974 -14.5667  -5.8223  -4.9989
    -3.3450  -2.9162  -2.7739  -2.2566  -0.5053  -0.2780   0.0285   0.3292
     0.4419   0.8964   1.1688   1.2654   1.6088   1.8049   2.3186   2.5110

          k = 0.2000 0.3464 0.1818 ( 23650 PWs)   bands (ev):

   -16.3924 -15.7182 -15.1524 -14.6325 -14.6080 -14.5632  -5.9016  -4.8073
    -3.5507  -2.8890  -2.6267  -2.3453  -0.5810  -0.1584  -0.0817   0.2726
     0.5732   0.9416   1.1164   1.3868   1.6113   1.8340   2.2040   2.4997

          k = 0.2000 0.3464 0.3636 ( 23681 PWs)   bands (ev):

   -16.2636 -15.9158 -15.0875 -14.6457 -14.5937 -14.5683  -5.9906  -4.4730
    -3.8415  -2.8214  -2.6290  -2.3759  -0.5864  -0.3836   0.1061   0.2766
     0.5997   0.9693   1.2334   1.4247   1.6400   1.8624   2.1773   2.3424

          k = 0.2000 0.5774 0.0000 ( 23678 PWs)   bands (ev):

   -16.1898 -15.8845 -15.2027 -14.6448 -14.6030 -14.5846  -5.8736  -4.5537
    -3.7562  -2.8553  -2.7916  -2.0668  -0.4047  -0.2995  -0.2299   0.4140
     0.5348   0.7983   0.9085   1.3174   1.4640   1.9968   2.2510   2.5693

          k = 0.2000 0.5774 0.1818 ( 23669 PWs)   bands (ev):

   -16.1919 -15.8312 -15.2561 -14.6438 -14.6256 -14.5728  -5.7653  -4.6162
    -3.8511  -2.8726  -2.6336  -2.2030  -0.5365  -0.3392  -0.1242   0.4269
     0.6057   0.7559   1.1422   1.3030   1.5731   1.9613   2.1689   2.4636

          k = 0.2000 0.5774 0.3636 ( 23682 PWs)   bands (ev):

   -16.1927 -15.7189 -15.3710 -14.6689 -14.6082 -14.5808  -5.5292  -4.8025
    -3.9526  -2.7632  -2.4961  -2.4639  -0.6544  -0.4051  -0.0321   0.4983
     0.6051   0.8083   1.4376   1.4971   1.6714   1.8940   1.9520   2.2518

          k = 0.0000 0.2309-0.1818 ( 23643 PWs)   bands (ev):

   -16.5843 -15.6843 -14.9645 -14.6114 -14.5883 -14.5437  -6.1565  -4.8832
    -3.2664  -2.9225  -2.6945  -2.4830  -0.5547  -0.1338  -0.0020   0.3497
     0.6433   0.9968   1.0900   1.2981   1.6604   1.8665   2.2574   2.4949

          k = 0.0000 0.2309-0.3636 ( 23657 PWs)   bands (ev):

   -16.3801 -16.0545 -14.7907 -14.6160 -14.5854 -14.5388  -6.4521  -4.2174
    -3.6398  -2.9555  -2.8330  -2.2723  -0.4486  -0.1768   0.0319   0.3624
     0.5609   0.9593   1.0294   1.2245   1.5048   2.0975   2.3803   2.3897

          k = 0.0000 0.4619-0.1818 ( 23678 PWs)   bands (ev):

   -16.3263 -15.7586 -15.1790 -14.6436 -14.6142 -14.5659  -5.8349  -4.8188
    -3.5297  -2.8923  -2.6732  -2.3033  -0.6045  -0.2897   0.0424   0.2837
     0.6388   0.8321   1.0295   1.4545   1.6961   1.7210   2.2865   2.4466

          k = 0.0000 0.4619-0.3636 ( 23648 PWs)   bands (ev):

   -16.2383 -15.8544 -15.1877 -14.6616 -14.5949 -14.5624  -5.8524  -4.6056
    -3.8060  -2.8371  -2.5375  -2.4328  -0.6104  -0.4870   0.1597   0.3491
     0.5765   1.0051   1.2064   1.4075   1.6347   1.9218   2.0570   2.3793

     highest occupied level (ev):     2.5693

!    total energy              =    -215.93573342 Ry
     estimated scf accuracy    <       0.00000004 Ry

     The total energy is the sum of the following terms:
     one-electron contribution =    -103.42210765 Ry
     hartree contribution      =      77.24829771 Ry
     xc contribution           =     -50.79931987 Ry
     ewald contribution        =    -138.96260361 Ry

     convergence has been achieved in   8 iterations

     Writing all to output data dir ./quartz-scf-us/quartz.save/ :
     XML data file, charge density, pseudopotentials, collected wavefunctions

     init_run     :      0.57s CPU      0.64s WALL (       1 calls)
     electrons    :      3.59s CPU      3.76s WALL (       1 calls)

     Called by init_run:
     wfcinit      :      0.26s CPU      0.29s WALL (       1 calls)
     potinit      :      0.04s CPU      0.05s WALL (       1 calls)
     hinit0       :      0.17s CPU      0.19s WALL (       1 calls)

     Called by electrons:
     c_bands      :      2.94s CPU      3.02s WALL (       9 calls)
     sum_band     :      0.47s CPU      0.49s WALL (       9 calls)
     v_of_rho     :      0.12s CPU      0.13s WALL (       9 calls)
     newd         :      0.02s CPU      0.03s WALL (       9 calls)
     mix_rho      :      0.02s CPU      0.02s WALL (       9 calls)

     Called by c_bands:
     init_us_2    :      0.04s CPU      0.05s WALL (      95 calls)
     cegterg      :      2.84s CPU      2.90s WALL (      45 calls)

     Called by *egterg:
     cdiaghg      :      0.17s CPU      0.17s WALL (     170 calls)
     h_psi        :      2.55s CPU      2.62s WALL (     180 calls)
     s_psi        :      0.08s CPU      0.08s WALL (     180 calls)
     g_psi        :      0.01s CPU      0.01s WALL (     130 calls)

     Called by h_psi:
     h_psi:calbec :      0.12s CPU      0.12s WALL (     180 calls)
     vloc_psi     :      2.34s CPU      2.40s WALL (     180 calls)
     add_vuspsi   :      0.08s CPU      0.08s WALL (     180 calls)

     General routines
     calbec       :      0.14s CPU      0.15s WALL (     225 calls)
     fft          :      0.20s CPU      0.21s WALL (      99 calls)
     ffts         :      0.01s CPU      0.01s WALL (       9 calls)
     fftw         :      2.47s CPU      2.52s WALL (    8078 calls)

     Parallel routines

     PWSCF        :      4.76s CPU      5.45s WALL


   This run was terminated on:  14:44:28   4Feb2026            

=------------------------------------------------------------------------------=
   JOB DONE.
=------------------------------------------------------------------------------=
