
     Program PWSCF v.7.3.1 starts on  4Feb2026 at 14:44:35 

     This program is part of the open-source Quantum ESPRESSO suite
     for quantum simulation of materials; please cite
         "P. Giannozzi et al., J. Phys.:Condens. Matter 21 395502 (2009);
         "P. Giannozzi et al., J. Phys.:Condens. Matter 29 465901 (2017);
         "P. Giannozzi et al., J. Chem. Phys. 152 154105 (2020);
          URL http://www.quantum-espresso.org", 
     in publications or presentations arising from this work. More details at
     http://www.quantum-espresso.org/quote

     Parallel version (MPI), running on   128 processors

     MPI processes distributed on     1 nodes
     241125 MiB available memory on the printing compute node when the environment starts

     Waiting for input...
     Reading input from standard input

     Current dimensions of program PWSCF are:
     Max number of different atomic species (ntypx) = 10
     Max number of k-points (npk) =  40000
     Max angular momentum in pseudopotentials (lmaxx) =  4
     WARNING: atomic wfc #  2 for atom typeSi has zero norm
     WARNING: atomic wfc #  2 for atom typeO has zero norm
     WARNING: atomic wfc #  4 for atom typeO has zero norm
     WARNING: atomic wfc #  5 for atom typeO has zero norm

     K-points division:     npool     =       4
     R & G space division:  proc/nbgrp/npool/nimage =      32
     Subspace diagonalization in iterative solution of the eigenvalue problem:
     a serial algorithm will be used


     Parallelization info
     --------------------
     sticks:   dense  smooth     PW     G-vecs:    dense   smooth      PW
     Min         111     111     30                 5915     5915     837
     Max         112     112     32                 5920     5920     842
     Sum        3571    3571    967               189349   189349   26903

     Using Slab Decomposition



     bravais-lattice index     =            4
     lattice parameter (alat)  =       9.2850  a.u.
     unit-cell volume          =     762.5513 (a.u.)^3
     number of atoms/cell      =            9
     number of atomic types    =            2
     number of electrons       =        48.00
     number of Kohn-Sham states=           24
     kinetic-energy cutoff     =     150.0000  Ry
     charge density cutoff     =     600.0000  Ry
     scf convergence threshold =      1.0E-07
     mixing beta               =       0.7000
     number of iterations used =            8  plain     mixing
     Exchange-correlation=  SLA  PW   PBX  PBC
                           (   1   4   3   4   0   0   0)

     celldm(1)=   9.285000  celldm(2)=   0.000000  celldm(3)=   1.100000
     celldm(4)=   0.000000  celldm(5)=   0.000000  celldm(6)=   0.000000

     crystal axes: (cart. coord. in units of alat)
               a(1) = (   1.000000   0.000000   0.000000 )  
               a(2) = (  -0.500000   0.866025   0.000000 )  
               a(3) = (   0.000000   0.000000   1.100000 )  

     reciprocal axes: (cart. coord. in units 2 pi/alat)
               b(1) = (  1.000000  0.577350 -0.000000 )  
               b(2) = (  0.000000  1.154701  0.000000 )  
               b(3) = (  0.000000 -0.000000  0.909091 )  


     PseudoPot. # 1 for Si read from file:
     ./Si.pbe-van_gipaw.UPF
     MD5 check sum: 907f546cb6949dd03cdbc0a9de4be0c7
     Pseudo is Ultrasoft, Zval =  4.0
     Generated by new atomic code, or converted to UPF format
     Using radial grid of 1141 points,  4 beta functions with: 
                l(1) =   0
                l(2) =   0
                l(3) =   1
                l(4) =   1
     Q(r) pseudized with 0 coefficients 


     PseudoPot. # 2 for O  read from file:
     ./O.pbe-van_gipaw.UPF
     MD5 check sum: 5ce2a047509d4f331db576c963e74b29
     Pseudo is Ultrasoft, Zval =  6.0
     Generated by new atomic code, or converted to UPF format
     Using radial grid of 1095 points,  4 beta functions with: 
                l(1) =   0
                l(2) =   0
                l(3) =   1
                l(4) =   1
     Q(r) pseudized with 0 coefficients 


     atomic species   valence    mass     pseudopotential
     Si                4.00    28.08600     Si( 1.00)
     O                 6.00    16.00000     O ( 1.00)

      6 Sym. Ops. (no inversion) found ( 4 have fractional translation)



   Cartesian axes

     site n.     atom                  positions (alat units)
         1        Si     tau(   1) = (  -0.2349350   0.4069194   0.3666663  )
         2        Si     tau(   2) = (   0.4698700   0.0000000   0.7333330  )
         3        Si     tau(   3) = (   0.2650650   0.4591060   1.0999996  )
         4        O      tau(   4) = (   0.2800500   0.2321814   0.8640500  )
         5        O      tau(   5) = (   0.6589000   0.1264397   0.4973833  )
         6        O      tau(   6) = (   0.5610500   0.5074043   0.1307167  )
         7        O      tau(   7) = (   0.0610500   0.3586211   0.2359500  )
         8        O      tau(   8) = (  -0.2199500   0.6338440   0.6026167  )
         9        O      tau(   9) = (   0.1589000   0.7395857   0.9692833  )

     number of k points=    34
                       cart. coord. in units 2pi/alat
        k(    1) = (   0.0000000   0.0000000   0.0000000), wk =   0.0092593
        k(    2) = (   0.0000000   0.0000000   0.1515152), wk =   0.0185185
        k(    3) = (   0.0000000   0.0000000   0.3030303), wk =   0.0185185
        k(    4) = (   0.0000000   0.0000000  -0.4545455), wk =   0.0092593
        k(    5) = (   0.0000000   0.1924501   0.0000000), wk =   0.0555556
        k(    6) = (   0.0000000   0.1924501   0.1515152), wk =   0.0555556
        k(    7) = (   0.0000000   0.1924501   0.3030303), wk =   0.0555556
        k(    8) = (   0.0000000   0.1924501  -0.4545455), wk =   0.0555556
        k(    9) = (   0.0000000   0.3849002   0.0000000), wk =   0.0555556
        k(   10) = (   0.0000000   0.3849002   0.1515152), wk =   0.0555556
        k(   11) = (   0.0000000   0.3849002   0.3030303), wk =   0.0555556
        k(   12) = (   0.0000000   0.3849002  -0.4545455), wk =   0.0555556
        k(   13) = (   0.0000000  -0.5773503   0.0000000), wk =   0.0277778
        k(   14) = (   0.0000000  -0.5773503   0.1515152), wk =   0.0555556
        k(   15) = (   0.0000000  -0.5773503   0.3030303), wk =   0.0555556
        k(   16) = (   0.0000000  -0.5773503  -0.4545455), wk =   0.0277778
        k(   17) = (   0.1666667   0.2886751   0.0000000), wk =   0.0555556
        k(   18) = (   0.1666667   0.2886751   0.1515152), wk =   0.1111111
        k(   19) = (   0.1666667   0.2886751   0.3030303), wk =   0.1111111
        k(   20) = (   0.1666667   0.2886751  -0.4545455), wk =   0.0555556
        k(   21) = (   0.1666667   0.4811252   0.0000000), wk =   0.1111111
        k(   22) = (   0.1666667   0.4811252   0.1515152), wk =   0.1111111
        k(   23) = (   0.1666667   0.4811252   0.3030303), wk =   0.1111111
        k(   24) = (   0.1666667   0.4811252  -0.4545455), wk =   0.1111111
        k(   25) = (   0.3333333   0.5773503   0.0000000), wk =   0.0185185
        k(   26) = (   0.3333333   0.5773503   0.1515152), wk =   0.0370370
        k(   27) = (   0.3333333   0.5773503   0.3030303), wk =   0.0370370
        k(   28) = (   0.3333333   0.5773503  -0.4545455), wk =   0.0185185
        k(   29) = (   0.0000000   0.1924501  -0.1515152), wk =   0.0555556
        k(   30) = (   0.0000000   0.1924501  -0.3030303), wk =   0.0555556
        k(   31) = (   0.0000000   0.3849002  -0.1515152), wk =   0.0555556
        k(   32) = (   0.0000000   0.3849002  -0.3030303), wk =   0.0555556
        k(   33) = (  -0.1666667   0.4811252  -0.1515152), wk =   0.1111111
        k(   34) = (  -0.1666667   0.4811252  -0.3030303), wk =   0.1111111

     Dense  grid:   189349 G-vectors     FFT dimensions: (  75,  75,  81)

     Estimated max dynamical RAM per process >      10.20 MB

     Estimated total dynamical RAM >       1.14 GB

     Initial potential from superposition of free atoms

     starting charge      45.3753, renormalised to      48.0000
     Starting wfcs are   60 randomized atomic wfcs

     total cpu time spent up to now is        1.4 secs

     per-process dynamical memory:    17.7 Mb

     Self-consistent Calculation

     iteration #  1     ecut=   150.00 Ry     beta= 0.70
     Davidson diagonalization with overlap
     ethr =  1.00E-02,  avg # of iterations =  3.0

     Threshold (ethr) on eigenvalues was too large:
     Diagonalizing with lowered threshold

     Davidson diagonalization with overlap
     ethr =  9.40E-04,  avg # of iterations =  2.0

     negative rho (up, down):  1.426E-03 0.000E+00

     total cpu time spent up to now is        2.7 secs

     total energy              =    -215.79291611 Ry
     estimated scf accuracy    <       0.44754365 Ry

     iteration #  2     ecut=   150.00 Ry     beta= 0.70
     Davidson diagonalization with overlap
     ethr =  9.32E-04,  avg # of iterations =  2.0

     negative rho (up, down):  8.872E-04 0.000E+00

     total cpu time spent up to now is        3.4 secs

     total energy              =    -215.91067400 Ry
     estimated scf accuracy    <       0.13516846 Ry

     iteration #  3     ecut=   150.00 Ry     beta= 0.70
     Davidson diagonalization with overlap
     ethr =  2.82E-04,  avg # of iterations =  2.0

     total cpu time spent up to now is        4.0 secs

     total energy              =    -215.93357985 Ry
     estimated scf accuracy    <       0.00456822 Ry

     iteration #  4     ecut=   150.00 Ry     beta= 0.70
     Davidson diagonalization with overlap
     ethr =  9.52E-06,  avg # of iterations =  3.1

     total cpu time spent up to now is        4.8 secs

     total energy              =    -215.93543401 Ry
     estimated scf accuracy    <       0.00160989 Ry

     iteration #  5     ecut=   150.00 Ry     beta= 0.70
     Davidson diagonalization with overlap
     ethr =  3.35E-06,  avg # of iterations =  2.0

     total cpu time spent up to now is        5.5 secs

     total energy              =    -215.93566668 Ry
     estimated scf accuracy    <       0.00008803 Ry

     iteration #  6     ecut=   150.00 Ry     beta= 0.70
     Davidson diagonalization with overlap
     ethr =  1.83E-07,  avg # of iterations =  3.7

     total cpu time spent up to now is        6.3 secs

     total energy              =    -215.93572905 Ry
     estimated scf accuracy    <       0.00002029 Ry

     iteration #  7     ecut=   150.00 Ry     beta= 0.70
     Davidson diagonalization with overlap
     ethr =  4.23E-08,  avg # of iterations =  2.1

     total cpu time spent up to now is        7.0 secs

     total energy              =    -215.93573266 Ry
     estimated scf accuracy    <       0.00000074 Ry

     iteration #  8     ecut=   150.00 Ry     beta= 0.70
     Davidson diagonalization with overlap
     ethr =  1.53E-09,  avg # of iterations =  4.9

     total cpu time spent up to now is        7.9 secs

     End of self-consistent calculation

          k = 0.0000 0.0000 0.0000 ( 23595 PWs)   bands (ev):

   -16.7730 -15.2342 -15.2342 -14.5903 -14.5444 -14.5444  -5.6922  -5.6922
    -2.9080  -2.8898  -2.7171  -2.7171  -0.3510  -0.3510  -0.0987   0.1547
     1.0852   1.0852   1.1138   1.5936   1.5936   1.9048   2.2694   2.2694

          k = 0.0000 0.0000 0.1515 ( 23572 PWs)   bands (ev):

   -16.7183 -15.6081 -14.9051 -14.5888 -14.5577 -14.5312  -6.2626  -5.0173
    -3.0222  -2.9230  -2.9106  -2.4697  -0.4308  -0.1933  -0.0581   0.2431
     0.9656   1.0282   1.0884   1.2905   1.5998   1.9746   2.2839   2.4357

          k = 0.0000 0.0000 0.3030 ( 23698 PWs)   bands (ev):

   -16.5580 -15.9778 -14.6753 -14.5847 -14.5692 -14.5213  -6.6464  -4.3312
    -3.2849  -3.0495  -3.0122  -2.2492  -0.3483  -0.0765   0.0224   0.4236
     0.6941   0.8764   0.9507   1.0676   1.4469   2.1580   2.4318   2.4935

          k = 0.0000 0.0000-0.4545 ( 23668 PWs)   bands (ev):

   -16.3043 -16.3043 -14.5921 -14.5782 -14.5782 -14.5175  -6.7822  -3.7288
    -3.7288  -3.0780  -3.0780  -2.1561  -0.1135  -0.1135  -0.0470   0.5823
     0.5823   0.7587   0.7587   1.0612   1.3833   2.3724   2.3724   2.4952

          k = 0.0000 0.1925 0.0000 ( 23621 PWs)   bands (ev):

   -16.6913 -15.3277 -15.2215 -14.6127 -14.5622 -14.5503  -5.7289  -5.5108
    -2.9381  -2.9016  -2.8272  -2.5679  -0.4699  -0.2923  -0.0692   0.3126
     0.8212   1.0531   1.1023   1.5339   1.5929   1.8033   2.3212   2.3578

          k = 0.0000 0.1925 0.1515 ( 23642 PWs)   bands (ev):

   -16.6400 -15.6105 -14.9886 -14.6079 -14.5653 -14.5469  -6.1329  -5.0071
    -3.1708  -2.9234  -2.7427  -2.4821  -0.4967  -0.1951  -0.0157   0.3021
     0.6761   1.0916   1.1160   1.2919   1.7005   1.8375   2.2202   2.5106

          k = 0.0000 0.1925 0.3030 ( 23661 PWs)   bands (ev):

   -16.4901 -15.9454 -14.7950 -14.6029 -14.5741 -14.5383  -6.4606  -4.3990
    -3.4612  -2.9717  -2.8461  -2.2894  -0.4578  -0.0334  -0.0309   0.3052
     0.5619   0.9798   1.1058   1.1522   1.5352   2.0360   2.2958   2.5332

          k = 0.0000 0.1925-0.4545 ( 23670 PWs)   bands (ev):

   -16.2821 -16.2188 -14.7162 -14.6123 -14.5759 -14.5338  -6.5759  -3.9384
    -3.7791  -2.9775  -2.9319  -2.2092  -0.2799  -0.2621   0.0286   0.4296
     0.5038   0.9199   0.9856   1.1803   1.4485   2.2572   2.2875   2.4558

          k = 0.0000 0.3849 0.0000 ( 23656 PWs)   bands (ev):

   -16.4719 -15.5864 -15.1942 -14.6396 -14.5924 -14.5689  -5.7989  -5.0920
    -3.1702  -2.9419  -2.8633  -2.2775  -0.5467  -0.1789  -0.0522   0.3140
     0.5049   0.9309   1.0259   1.4841   1.5631   1.7585   2.3367   2.4915

          k = 0.0000 0.3849 0.1515 ( 23644 PWs)   bands (ev):

   -16.4345 -15.6682 -15.1636 -14.6311 -14.5856 -14.5728  -5.8959  -4.9144
    -3.3935  -2.9305  -2.6823  -2.3177  -0.5457  -0.1455  -0.0627   0.1300
     0.5899   0.9823   1.1371   1.4156   1.5528   1.8726   2.1614   2.5470

          k = 0.0000 0.3849 0.3030 ( 23660 PWs)   bands (ev):

   -16.3306 -15.8524 -15.0929 -14.6359 -14.5856 -14.5634  -6.0225  -4.5834
    -3.6730  -2.9064  -2.5866  -2.3634  -0.5760  -0.3402   0.1422   0.1756
     0.5358   1.0853   1.1824   1.3957   1.6572   1.7755   2.1235   2.5050

          k = 0.0000 0.3849-0.4545 ( 23664 PWs)   bands (ev):

   -16.2356 -15.9842 -15.0513 -14.6501 -14.5843 -14.5582  -6.0691  -4.3795
    -3.8387  -2.8514  -2.6658  -2.3419  -0.5179  -0.5023   0.1929   0.3159
     0.5072   1.0845   1.1846   1.3667   1.5800   1.9902   2.0703   2.4134

          k = 0.0000-0.5774 0.0000 ( 23646 PWs)   bands (ev):

   -16.2821 -15.8011 -15.1795 -14.6468 -14.6066 -14.5800  -5.8325  -4.8302
    -3.3586  -2.9150  -2.8948  -2.1188  -0.4703  -0.3016  -0.0954   0.2864
     0.5079   0.8457   0.9280   1.4811   1.5473   1.8007   2.3141   2.5458

          k = 0.0000-0.5774 0.1515 ( 23664 PWs)   bands (ev):

   -16.2657 -15.7929 -15.2139 -14.6444 -14.6126 -14.5735  -5.7981  -4.8021
    -3.5329  -2.9153  -2.7166  -2.2037  -0.5081  -0.3965   0.0081   0.2346
     0.6556   0.7779   1.0531   1.4259   1.6250   1.8151   2.2369   2.5043

          k = 0.0000-0.5774 0.3030 ( 23668 PWs)   bands (ev):

   -16.2303 -15.7759 -15.2822 -14.6604 -14.6011 -14.5670  -5.7248  -4.7445
    -3.7625  -2.8641  -2.5108  -2.3984  -0.5761  -0.5298   0.1189   0.3308
     0.6051   0.9303   1.2323   1.4344   1.6035   1.9239   2.0153   2.4265

          k = 0.0000-0.5774-0.4545 ( 23716 PWs)   bands (ev):

   -16.2112 -15.7671 -15.3166 -14.6718 -14.5905 -14.5667  -5.6855  -4.7148
    -3.8567  -2.7987  -2.5402  -2.4270  -0.6032  -0.5877   0.1556   0.4716
     0.4944   1.0330   1.3164   1.4414   1.7024   1.7583   1.9842   2.3905

          k = 0.1667 0.2887 0.0000 ( 23656 PWs)   bands (ev):

   -16.5383 -15.5032 -15.2085 -14.6336 -14.5884 -14.5600  -5.7915  -5.1860
    -3.1770  -2.9312  -2.7881  -2.3613  -0.5164  -0.2767   0.0325   0.4171
     0.4341   0.9548   1.1425   1.3682   1.6695   1.7204   2.3325   2.4686

          k = 0.1667 0.2887 0.1515 ( 23646 PWs)   bands (ev):

   -16.4945 -15.6479 -15.1099 -14.6268 -14.5954 -14.5577  -5.9522  -4.9363
    -3.3717  -2.9009  -2.6656  -2.4045  -0.5682  -0.1670   0.0075   0.2602
     0.5573   1.0009   1.0959   1.3780   1.6486   1.7966   2.2262   2.5150

          k = 0.1667 0.2887 0.3030 ( 23653 PWs)   bands (ev):

   -16.3717 -15.8889 -14.9941 -14.6278 -14.5936 -14.5569  -6.1424  -4.5125
    -3.6576  -2.8868  -2.6515  -2.3705  -0.5716  -0.2235   0.0438   0.2587
     0.5796   0.9998   1.1449   1.3446   1.6548   1.8466   2.2301   2.4470

          k = 0.1667 0.2887-0.4545 ( 23654 PWs)   bands (ev):

   -16.2447 -16.0600 -14.9492 -14.6376 -14.5806 -14.5612  -6.2123  -4.2314
    -3.8670  -2.8262  -2.7735  -2.3047  -0.4878  -0.4079   0.1748   0.2389
     0.5688   1.0067   1.1602   1.3616   1.5296   2.0497   2.2005   2.3600

          k = 0.1667 0.4811 0.0000 ( 23669 PWs)   bands (ev):

   -16.2888 -15.7821 -15.1990 -14.6442 -14.6036 -14.5785  -5.8551  -4.7321
    -3.5720  -2.8845  -2.7919  -2.1219  -0.4632  -0.2674  -0.1437   0.3463
     0.5096   0.8270   0.9997   1.3100   1.5230   1.9163   2.2856   2.5531

          k = 0.1667 0.4811 0.1515 ( 23669 PWs)   bands (ev):

   -16.2709 -15.7790 -15.2260 -14.6398 -14.6154 -14.5722  -5.8144  -4.7164
    -3.6829  -2.8918  -2.6680  -2.2028  -0.5156  -0.2947  -0.1244   0.3148
     0.5924   0.8264   1.1503   1.2988   1.5543   1.9444   2.1775   2.5136

          k = 0.1667 0.4811 0.3030 ( 23666 PWs)   bands (ev):

   -16.2290 -15.7847 -15.2681 -14.6537 -14.6099 -14.5721  -5.7244  -4.6909
    -3.8579  -2.8346  -2.5216  -2.3897  -0.6088  -0.4090   0.0034   0.3758
     0.5936   0.9002   1.2785   1.4728   1.6170   1.8792   2.0399   2.3842

          k = 0.1667 0.4811-0.4545 ( 23658 PWs)   bands (ev):

   -16.2036 -15.7960 -15.2823 -14.6674 -14.5928 -14.5827  -5.6741  -4.6821
    -3.9339  -2.7367  -2.5913  -2.4254  -0.6414  -0.4597   0.0582   0.4217
     0.5939   0.9064   1.4174   1.5005   1.6641   1.8446   2.0014   2.2667

          k = 0.3333 0.5774 0.0000 ( 23688 PWs)   bands (ev):

   -16.0360 -16.0360 -15.2122 -14.6439 -14.5946 -14.5945  -5.8919  -4.1672
    -4.1672  -2.8037  -2.8037  -2.0284  -0.3358  -0.3358  -0.2899   0.5379
     0.5379   0.7068   0.8710   1.3545   1.3545   2.1470   2.1470   2.5801

          k = 0.3333 0.5774 0.1515 ( 23667 PWs)   bands (ev):

   -16.1224 -15.9051 -15.2545 -14.6400 -14.6295 -14.5753  -5.7942  -4.3952
    -4.0582  -2.8609  -2.6603  -2.1350  -0.5090  -0.2562  -0.2405   0.5278
     0.6084   0.6520   1.0849   1.2815   1.4973   2.0818   2.1289   2.4881

          k = 0.3333 0.5774 0.3030 ( 23673 PWs)   bands (ev):

   -16.1686 -15.7357 -15.3749 -14.6630 -14.6249 -14.5790  -5.5249  -4.7421
    -4.0179  -2.7943  -2.5246  -2.3741  -0.6424  -0.2323  -0.2214   0.5930
     0.6186   0.6687   1.3999   1.4261   1.6377   1.9782   1.9948   2.2532

          k = 0.3333 0.5774-0.4545 ( 23682 PWs)   bands (ev):

   -16.1827 -15.5480 -15.5479 -14.6767 -14.6001 -14.6001  -5.1467  -5.1466
    -4.0079  -2.6193  -2.6192  -2.4723  -0.6865  -0.2261  -0.2261   0.6399
     0.6400   0.6424   1.6301   1.6514   1.6514   1.8233   1.9979   1.9979

          k = 0.0000 0.1925-0.1515 ( 23642 PWs)   bands (ev):

   -16.6395 -15.6147 -14.9785 -14.6078 -14.5772 -14.5415  -6.1319  -5.0073
    -3.1667  -2.9213  -2.7276  -2.5107  -0.5254  -0.1717  -0.0228   0.3416
     0.7214   1.0229   1.0977   1.3143   1.6584   1.8780   2.2467   2.4839

          k = 0.0000 0.1925-0.3030 ( 23661 PWs)   bands (ev):

   -16.4891 -15.9482 -14.7830 -14.6002 -14.5904 -14.5350  -6.4599  -4.3982
    -3.4607  -2.9738  -2.8352  -2.3069  -0.4690  -0.0557  -0.0200   0.3538
     0.6020   0.9456   1.0396   1.1864   1.5299   2.0494   2.3547   2.4728

          k = 0.0000 0.3849-0.1515 ( 23644 PWs)   bands (ev):

   -16.4315 -15.6874 -15.1322 -14.6358 -14.6086 -14.5606  -5.8925  -4.9140
    -3.3903  -2.8907  -2.7104  -2.3582  -0.6111  -0.1830   0.0250   0.2977
     0.5949   0.9106   1.0015   1.4627   1.6335   1.7553   2.3065   2.4637

          k = 0.0000 0.3849-0.3030 ( 23660 PWs)   bands (ev):

   -16.3250 -15.8685 -15.0666 -14.6443 -14.6004 -14.5565  -6.0197  -4.5796
    -3.6779  -2.8791  -2.5669  -2.4339  -0.6110  -0.3184   0.1029   0.3039
     0.6096   0.9686   1.1155   1.3769   1.6514   1.8617   2.2468   2.3757

          k =-0.1667 0.4811-0.1515 ( 23669 PWs)   bands (ev):

   -16.2686 -15.7871 -15.2156 -14.6429 -14.6185 -14.5707  -5.8133  -4.7157
    -3.6824  -2.8839  -2.6736  -2.2153  -0.5537  -0.2702  -0.1033   0.3730
     0.5795   0.8194   1.0524   1.3455   1.5938   1.8769   2.2485   2.4845

          k =-0.1667 0.4811-0.3030 ( 23666 PWs)   bands (ev):

   -16.2261 -15.7943 -15.2570 -14.6578 -14.6114 -14.5711  -5.7233  -4.6892
    -3.8601  -2.8251  -2.5134  -2.4153  -0.6230  -0.3980   0.0133   0.3899
     0.6536   0.8242   1.2715   1.4242   1.6960   1.8267   2.1255   2.3304

     highest occupied level (ev):     2.5801

!    total energy              =    -215.93573350 Ry
     estimated scf accuracy    <       0.00000003 Ry

     The total energy is the sum of the following terms:
     one-electron contribution =    -103.42201907 Ry
     hartree contribution      =      77.24818177 Ry
     xc contribution           =     -50.79929258 Ry
     ewald contribution        =    -138.96260361 Ry

     convergence has been achieved in   8 iterations

     Writing all to output data dir ./quartz-scf-us/quartz.save/ :
     XML data file, charge density, pseudopotentials, collected wavefunctions

     init_run     :      0.79s CPU      0.87s WALL (       1 calls)
     electrons    :      6.34s CPU      6.68s WALL (       1 calls)

     Called by init_run:
     wfcinit      :      0.48s CPU      0.51s WALL (       1 calls)
     potinit      :      0.02s CPU      0.04s WALL (       1 calls)
     hinit0       :      0.18s CPU      0.19s WALL (       1 calls)

     Called by electrons:
     c_bands      :      5.36s CPU      5.48s WALL (       9 calls)
     sum_band     :      0.82s CPU      0.83s WALL (       9 calls)
     v_of_rho     :      0.11s CPU      0.13s WALL (       9 calls)
     newd         :      0.02s CPU      0.03s WALL (       9 calls)
     mix_rho      :      0.02s CPU      0.02s WALL (       9 calls)

     Called by c_bands:
     init_us_2    :      0.07s CPU      0.08s WALL (     171 calls)
     cegterg      :      5.17s CPU      5.25s WALL (      81 calls)

     Called by *egterg:
     cdiaghg      :      0.31s CPU      0.31s WALL (     303 calls)
     h_psi        :      4.67s CPU      4.75s WALL (     321 calls)
     s_psi        :      0.14s CPU      0.14s WALL (     321 calls)
     g_psi        :      0.01s CPU      0.01s WALL (     231 calls)

     Called by h_psi:
     h_psi:calbec :      0.21s CPU      0.22s WALL (     321 calls)
     vloc_psi     :      4.29s CPU      4.36s WALL (     321 calls)
     add_vuspsi   :      0.15s CPU      0.15s WALL (     321 calls)

     General routines
     calbec       :      0.26s CPU      0.27s WALL (     402 calls)
     fft          :      0.19s CPU      0.21s WALL (      99 calls)
     ffts         :      0.01s CPU      0.01s WALL (       9 calls)
     fftw         :      4.52s CPU      4.58s WALL (   14570 calls)

     Parallel routines

     PWSCF        :      7.72s CPU      8.72s WALL


   This run was terminated on:  14:44:44   4Feb2026            

=------------------------------------------------------------------------------=
   JOB DONE.
=------------------------------------------------------------------------------=
