
     Program PWSCF v.7.3.1 starts on  4Feb2026 at 14:45: 1 

     This program is part of the open-source Quantum ESPRESSO suite
     for quantum simulation of materials; please cite
         "P. Giannozzi et al., J. Phys.:Condens. Matter 21 395502 (2009);
         "P. Giannozzi et al., J. Phys.:Condens. Matter 29 465901 (2017);
         "P. Giannozzi et al., J. Chem. Phys. 152 154105 (2020);
          URL http://www.quantum-espresso.org", 
     in publications or presentations arising from this work. More details at
     http://www.quantum-espresso.org/quote

     Parallel version (MPI), running on   128 processors

     MPI processes distributed on     1 nodes
     240923 MiB available memory on the printing compute node when the environment starts

     Waiting for input...
     Reading input from standard input

     Current dimensions of program PWSCF are:
     Max number of different atomic species (ntypx) = 10
     Max number of k-points (npk) =  40000
     Max angular momentum in pseudopotentials (lmaxx) =  4
     WARNING: atomic wfc #  2 for atom typeSi has zero norm
     WARNING: atomic wfc #  2 for atom typeO has zero norm
     WARNING: atomic wfc #  4 for atom typeO has zero norm
     WARNING: atomic wfc #  5 for atom typeO has zero norm

     K-points division:     npool     =       4
     R & G space division:  proc/nbgrp/npool/nimage =      32
     Subspace diagonalization in iterative solution of the eigenvalue problem:
     a serial algorithm will be used


     Parallelization info
     --------------------
     sticks:   dense  smooth     PW     G-vecs:    dense   smooth      PW
     Min         111     111     29                 5915     5915     829
     Max         112     112     30                 5920     5920     836
     Sum        3571    3571    955               189349   189349   26675

     Using Slab Decomposition



     bravais-lattice index     =            4
     lattice parameter (alat)  =       9.2850  a.u.
     unit-cell volume          =     762.5513 (a.u.)^3
     number of atoms/cell      =            9
     number of atomic types    =            2
     number of electrons       =        48.00
     number of Kohn-Sham states=           24
     kinetic-energy cutoff     =     150.0000  Ry
     charge density cutoff     =     600.0000  Ry
     scf convergence threshold =      1.0E-07
     mixing beta               =       0.7000
     number of iterations used =            8  plain     mixing
     Exchange-correlation=  SLA  PW   PBX  PBC
                           (   1   4   3   4   0   0   0)

     celldm(1)=   9.285000  celldm(2)=   0.000000  celldm(3)=   1.100000
     celldm(4)=   0.000000  celldm(5)=   0.000000  celldm(6)=   0.000000

     crystal axes: (cart. coord. in units of alat)
               a(1) = (   1.000000   0.000000   0.000000 )  
               a(2) = (  -0.500000   0.866025   0.000000 )  
               a(3) = (   0.000000   0.000000   1.100000 )  

     reciprocal axes: (cart. coord. in units 2 pi/alat)
               b(1) = (  1.000000  0.577350 -0.000000 )  
               b(2) = (  0.000000  1.154701  0.000000 )  
               b(3) = (  0.000000 -0.000000  0.909091 )  


     PseudoPot. # 1 for Si read from file:
     ./Si.pbe-van_gipaw.UPF
     MD5 check sum: 907f546cb6949dd03cdbc0a9de4be0c7
     Pseudo is Ultrasoft, Zval =  4.0
     Generated by new atomic code, or converted to UPF format
     Using radial grid of 1141 points,  4 beta functions with: 
                l(1) =   0
                l(2) =   0
                l(3) =   1
                l(4) =   1
     Q(r) pseudized with 0 coefficients 


     PseudoPot. # 2 for O  read from file:
     ./O.pbe-van_gipaw.UPF
     MD5 check sum: 5ce2a047509d4f331db576c963e74b29
     Pseudo is Ultrasoft, Zval =  6.0
     Generated by new atomic code, or converted to UPF format
     Using radial grid of 1095 points,  4 beta functions with: 
                l(1) =   0
                l(2) =   0
                l(3) =   1
                l(4) =   1
     Q(r) pseudized with 0 coefficients 


     atomic species   valence    mass     pseudopotential
     Si                4.00    28.08600     Si( 1.00)
     O                 6.00    16.00000     O ( 1.00)

      6 Sym. Ops. (no inversion) found ( 4 have fractional translation)



   Cartesian axes

     site n.     atom                  positions (alat units)
         1        Si     tau(   1) = (  -0.2349350   0.4069194   0.3666663  )
         2        Si     tau(   2) = (   0.4698700   0.0000000   0.7333330  )
         3        Si     tau(   3) = (   0.2650650   0.4591060   1.0999996  )
         4        O      tau(   4) = (   0.2800500   0.2321814   0.8640500  )
         5        O      tau(   5) = (   0.6589000   0.1264397   0.4973833  )
         6        O      tau(   6) = (   0.5610500   0.5074043   0.1307167  )
         7        O      tau(   7) = (   0.0610500   0.3586211   0.2359500  )
         8        O      tau(   8) = (  -0.2199500   0.6338440   0.6026167  )
         9        O      tau(   9) = (   0.1589000   0.7395857   0.9692833  )

     number of k points=    65
                       cart. coord. in units 2pi/alat
        k(    1) = (   0.0000000   0.0000000   0.0000000), wk =   0.0039062
        k(    2) = (   0.0000000   0.0000000   0.1136364), wk =   0.0078125
        k(    3) = (   0.0000000   0.0000000   0.2272727), wk =   0.0078125
        k(    4) = (   0.0000000   0.0000000   0.3409091), wk =   0.0078125
        k(    5) = (   0.0000000   0.0000000  -0.4545455), wk =   0.0039062
        k(    6) = (   0.0000000   0.1443376   0.0000000), wk =   0.0234375
        k(    7) = (   0.0000000   0.1443376   0.1136364), wk =   0.0234375
        k(    8) = (   0.0000000   0.1443376   0.2272727), wk =   0.0234375
        k(    9) = (   0.0000000   0.1443376   0.3409091), wk =   0.0234375
        k(   10) = (   0.0000000   0.1443376  -0.4545455), wk =   0.0234375
        k(   11) = (   0.0000000   0.2886751   0.0000000), wk =   0.0234375
        k(   12) = (   0.0000000   0.2886751   0.1136364), wk =   0.0234375
        k(   13) = (   0.0000000   0.2886751   0.2272727), wk =   0.0234375
        k(   14) = (   0.0000000   0.2886751   0.3409091), wk =   0.0234375
        k(   15) = (   0.0000000   0.2886751  -0.4545455), wk =   0.0234375
        k(   16) = (   0.0000000   0.4330127   0.0000000), wk =   0.0234375
        k(   17) = (   0.0000000   0.4330127   0.1136364), wk =   0.0234375
        k(   18) = (   0.0000000   0.4330127   0.2272727), wk =   0.0234375
        k(   19) = (   0.0000000   0.4330127   0.3409091), wk =   0.0234375
        k(   20) = (   0.0000000   0.4330127  -0.4545455), wk =   0.0234375
        k(   21) = (   0.0000000  -0.5773503   0.0000000), wk =   0.0117188
        k(   22) = (   0.0000000  -0.5773503   0.1136364), wk =   0.0234375
        k(   23) = (   0.0000000  -0.5773503   0.2272727), wk =   0.0234375
        k(   24) = (   0.0000000  -0.5773503   0.3409091), wk =   0.0234375
        k(   25) = (   0.0000000  -0.5773503  -0.4545455), wk =   0.0117188
        k(   26) = (   0.1250000   0.2165064   0.0000000), wk =   0.0234375
        k(   27) = (   0.1250000   0.2165064   0.1136364), wk =   0.0468750
        k(   28) = (   0.1250000   0.2165064   0.2272727), wk =   0.0468750
        k(   29) = (   0.1250000   0.2165064   0.3409091), wk =   0.0468750
        k(   30) = (   0.1250000   0.2165064  -0.4545455), wk =   0.0234375
        k(   31) = (   0.1250000   0.3608439   0.0000000), wk =   0.0468750
        k(   32) = (   0.1250000   0.3608439   0.1136364), wk =   0.0468750
        k(   33) = (   0.1250000   0.3608439   0.2272727), wk =   0.0468750
        k(   34) = (   0.1250000   0.3608439   0.3409091), wk =   0.0468750
        k(   35) = (   0.1250000   0.3608439  -0.4545455), wk =   0.0468750
        k(   36) = (   0.1250000   0.5051815   0.0000000), wk =   0.0468750
        k(   37) = (   0.1250000   0.5051815   0.1136364), wk =   0.0468750
        k(   38) = (   0.1250000   0.5051815   0.2272727), wk =   0.0468750
        k(   39) = (   0.1250000   0.5051815   0.3409091), wk =   0.0468750
        k(   40) = (   0.1250000   0.5051815  -0.4545455), wk =   0.0468750
        k(   41) = (   0.2500000   0.4330127   0.0000000), wk =   0.0234375
        k(   42) = (   0.2500000   0.4330127   0.1136364), wk =   0.0468750
        k(   43) = (   0.2500000   0.4330127   0.2272727), wk =   0.0468750
        k(   44) = (   0.2500000   0.4330127   0.3409091), wk =   0.0468750
        k(   45) = (   0.2500000   0.4330127  -0.4545455), wk =   0.0234375
        k(   46) = (   0.2500000   0.5773503   0.0000000), wk =   0.0234375
        k(   47) = (   0.2500000   0.5773503   0.1136364), wk =   0.0468750
        k(   48) = (   0.2500000   0.5773503   0.2272727), wk =   0.0468750
        k(   49) = (   0.2500000   0.5773503   0.3409091), wk =   0.0468750
        k(   50) = (   0.2500000   0.5773503  -0.4545455), wk =   0.0234375
        k(   51) = (   0.0000000   0.1443376  -0.1136364), wk =   0.0234375
        k(   52) = (   0.0000000   0.1443376  -0.2272727), wk =   0.0234375
        k(   53) = (   0.0000000   0.1443376  -0.3409091), wk =   0.0234375
        k(   54) = (   0.0000000   0.2886751  -0.1136364), wk =   0.0234375
        k(   55) = (   0.0000000   0.2886751  -0.2272727), wk =   0.0234375
        k(   56) = (   0.0000000   0.2886751  -0.3409091), wk =   0.0234375
        k(   57) = (   0.0000000   0.4330127  -0.1136364), wk =   0.0234375
        k(   58) = (   0.0000000   0.4330127  -0.2272727), wk =   0.0234375
        k(   59) = (   0.0000000   0.4330127  -0.3409091), wk =   0.0234375
        k(   60) = (  -0.1250000   0.3608439  -0.1136364), wk =   0.0468750
        k(   61) = (  -0.1250000   0.3608439  -0.2272727), wk =   0.0468750
        k(   62) = (  -0.1250000   0.3608439  -0.3409091), wk =   0.0468750
        k(   63) = (  -0.1250000   0.5051815  -0.1136364), wk =   0.0468750
        k(   64) = (  -0.1250000   0.5051815  -0.2272727), wk =   0.0468750
        k(   65) = (  -0.1250000   0.5051815  -0.3409091), wk =   0.0468750

     Dense  grid:   189349 G-vectors     FFT dimensions: (  75,  75,  81)

     Estimated max dynamical RAM per process >      12.36 MB

     Estimated total dynamical RAM >       1.41 GB

     Initial potential from superposition of free atoms

     starting charge      45.3753, renormalised to      48.0000
     Starting wfcs are   60 randomized atomic wfcs

     total cpu time spent up to now is        1.7 secs

     per-process dynamical memory:    20.0 Mb

     Self-consistent Calculation

     iteration #  1     ecut=   150.00 Ry     beta= 0.70
     Davidson diagonalization with overlap
     ethr =  1.00E-02,  avg # of iterations =  3.0

     Threshold (ethr) on eigenvalues was too large:
     Diagonalizing with lowered threshold

     Davidson diagonalization with overlap
     ethr =  9.40E-04,  avg # of iterations =  2.0

     negative rho (up, down):  1.385E-03 0.000E+00

     total cpu time spent up to now is        4.1 secs

     total energy              =    -215.79303407 Ry
     estimated scf accuracy    <       0.44732045 Ry

     iteration #  2     ecut=   150.00 Ry     beta= 0.70
     Davidson diagonalization with overlap
     ethr =  9.32E-04,  avg # of iterations =  2.0

     negative rho (up, down):  8.631E-04 0.000E+00

     total cpu time spent up to now is        5.4 secs

     total energy              =    -215.91070129 Ry
     estimated scf accuracy    <       0.13502626 Ry

     iteration #  3     ecut=   150.00 Ry     beta= 0.70
     Davidson diagonalization with overlap
     ethr =  2.81E-04,  avg # of iterations =  2.0

     total cpu time spent up to now is        6.6 secs

     total energy              =    -215.93357560 Ry
     estimated scf accuracy    <       0.00457189 Ry

     iteration #  4     ecut=   150.00 Ry     beta= 0.70
     Davidson diagonalization with overlap
     ethr =  9.52E-06,  avg # of iterations =  3.1

     total cpu time spent up to now is        8.1 secs

     total energy              =    -215.93543390 Ry
     estimated scf accuracy    <       0.00161386 Ry

     iteration #  5     ecut=   150.00 Ry     beta= 0.70
     Davidson diagonalization with overlap
     ethr =  3.36E-06,  avg # of iterations =  2.0

     total cpu time spent up to now is        9.3 secs

     total energy              =    -215.93566630 Ry
     estimated scf accuracy    <       0.00008896 Ry

     iteration #  6     ecut=   150.00 Ry     beta= 0.70
     Davidson diagonalization with overlap
     ethr =  1.85E-07,  avg # of iterations =  3.7

     total cpu time spent up to now is       10.7 secs

     total energy              =    -215.93572912 Ry
     estimated scf accuracy    <       0.00002005 Ry

     iteration #  7     ecut=   150.00 Ry     beta= 0.70
     Davidson diagonalization with overlap
     ethr =  4.18E-08,  avg # of iterations =  2.0

     total cpu time spent up to now is       12.0 secs

     total energy              =    -215.93573263 Ry
     estimated scf accuracy    <       0.00000077 Ry

     iteration #  8     ecut=   150.00 Ry     beta= 0.70
     Davidson diagonalization with overlap
     ethr =  1.61E-09,  avg # of iterations =  4.9

     total cpu time spent up to now is       13.6 secs

     End of self-consistent calculation

          k = 0.0000 0.0000 0.0000 ( 23595 PWs)   bands (ev):

   -16.7730 -15.2342 -15.2342 -14.5902 -14.5444 -14.5444  -5.6922  -5.6922
    -2.9080  -2.8898  -2.7171  -2.7171  -0.3510  -0.3510  -0.0987   0.1547
     1.0852   1.0852   1.1138   1.5936   1.5936   1.9048   2.2694   2.2695

          k = 0.0000 0.0000 0.1136 ( 23542 PWs)   bands (ev):

   -16.7421 -15.5132 -14.9802 -14.5894 -14.5545 -14.5344  -6.1345  -5.1908
    -2.9799  -2.8948  -2.8778  -2.5324  -0.4238  -0.2334  -0.0757   0.2063
     1.0272   1.0484   1.0915   1.3795   1.6298   1.9446   2.2542   2.3964

          k = 0.0000 0.0000 0.2273 ( 23602 PWs)   bands (ev):

   -16.6508 -15.7961 -14.7744 -14.5871 -14.5638 -14.5256  -6.4823  -4.6696
    -3.1329  -2.9977  -2.9584  -2.3502  -0.4123  -0.1236  -0.0133   0.3334
     0.8186   0.9729   1.0779   1.1073   1.5196   2.0559   2.3610   2.4876

          k = 0.0000 0.0000 0.3409 ( 23662 PWs)   bands (ev):

   -16.5027 -16.0648 -14.6393 -14.5833 -14.5717 -14.5197  -6.7053  -4.1693
    -3.3784  -3.0662  -3.0358  -2.2100  -0.3000  -0.0622   0.0202   0.4582
     0.6710   0.8017   0.8978   1.0642   1.4196   2.2132   2.4589   2.4784

          k = 0.0000 0.0000-0.4545 ( 23668 PWs)   bands (ev):

   -16.3043 -16.3043 -14.5921 -14.5782 -14.5782 -14.5175  -6.7822  -3.7288
    -3.7288  -3.0780  -3.0780  -2.1561  -0.1135  -0.1134  -0.0470   0.5823
     0.5823   0.7587   0.7587   1.0612   1.3833   2.3724   2.3724   2.4952

          k = 0.0000 0.1443 0.0000 ( 23621 PWs)   bands (ev):

   -16.7266 -15.2868 -15.2268 -14.6043 -14.5551 -14.5475  -5.7138  -5.5876
    -2.9294  -2.8886  -2.7881  -2.6274  -0.4309  -0.3175  -0.0803   0.2583
     0.9302   1.0691   1.1070   1.5548   1.5923   1.8398   2.3050   2.3237

          k = 0.0000 0.1443 0.1136 ( 23615 PWs)   bands (ev):

   -16.6968 -15.5194 -15.0211 -14.6024 -14.5596 -14.5429  -6.0682  -5.1756
    -3.0597  -2.9109  -2.7732  -2.5393  -0.4629  -0.2450  -0.0474   0.2781
     0.8206   1.0913   1.1115   1.3568   1.6789   1.8666   2.2292   2.4543

          k = 0.0000 0.1443 0.2273 ( 23635 PWs)   bands (ev):

   -16.6084 -15.7867 -14.8331 -14.5975 -14.5691 -14.5352  -6.3885  -4.6871
    -3.2537  -2.9612  -2.8441  -2.3714  -0.4659  -0.1217   0.0108   0.3219
     0.6613   1.0310   1.1144   1.1503   1.5829   1.9834   2.2871   2.5289

          k = 0.0000 0.1443 0.3409 ( 23662 PWs)   bands (ev):

   -16.4657 -16.0426 -14.7084 -14.5965 -14.5747 -14.5297  -6.5934  -4.2190
    -3.4870  -3.0029  -2.9424  -2.2360  -0.3776  -0.0340  -0.0281   0.3722
     0.5796   0.8997   1.0149   1.1208   1.4668   2.1511   2.3534   2.5145

          k = 0.0000 0.1443-0.4545 ( 23674 PWs)   bands (ev):

   -16.2914 -16.2558 -14.6576 -14.6047 -14.5757 -14.5273  -6.6638  -3.8543
    -3.7607  -3.0136  -2.9908  -2.1863  -0.2165  -0.2018  -0.0039   0.4754
     0.5151   0.8737   0.9140   1.1310   1.4235   2.3033   2.3288   2.4691

          k = 0.0000 0.2887 0.0000 ( 23633 PWs)   bands (ev):

   -16.5946 -15.4419 -15.2082 -14.6286 -14.5778 -14.5588  -5.7644  -5.3133
    -3.0163  -2.9446  -2.8536  -2.4255  -0.5291  -0.2281  -0.0520   0.4070
     0.5682   1.0025   1.0788   1.5000   1.5880   1.7508   2.3400   2.4298

          k = 0.0000 0.2887 0.1136 ( 23642 PWs)   bands (ev):

   -16.5687 -15.5590 -15.1229 -14.6234 -14.5690 -14.5658  -5.9311  -5.0944
    -3.2039  -2.9226  -2.7278  -2.4269  -0.5265  -0.1842  -0.0387   0.2825
     0.5735   1.0443   1.1268   1.3818   1.6573   1.7922   2.2163   2.5203

          k = 0.0000 0.2887 0.2273 ( 23656 PWs)   bands (ev):

   -16.4916 -15.7648 -14.9984 -14.6170 -14.5755 -14.5585  -6.1498  -4.7262
    -3.4271  -2.9338  -2.6643  -2.3895  -0.5476  -0.0615  -0.0512   0.1900
     0.5576   1.0791   1.1365   1.2932   1.7237   1.7725   2.1878   2.5512

          k = 0.0000 0.2887 0.3409 ( 23646 PWs)   bands (ev):

   -16.3709 -15.9731 -14.9091 -14.6218 -14.5766 -14.5517  -6.2950  -4.3635
    -3.6511  -2.9307  -2.7375  -2.2994  -0.5118  -0.2328   0.0763   0.2662
     0.5129   1.0404   1.1533   1.2696   1.5761   1.9455   2.2168   2.5067

          k = 0.0000 0.2887-0.4545 ( 23660 PWs)   bands (ev):

   -16.2592 -16.1165 -14.8695 -14.6305 -14.5790 -14.5474  -6.3444  -4.1440
    -3.8137  -2.9078  -2.7959  -2.2705  -0.4103  -0.3942   0.1164   0.3469
     0.5030   1.0113   1.1071   1.2847   1.5068   2.1434   2.1707   2.4331

          k = 0.0000 0.4330 0.0000 ( 23656 PWs)   bands (ev):

   -16.4069 -15.6614 -15.1882 -14.6430 -14.5983 -14.5733  -5.8130  -4.9900
    -3.2427  -2.9363  -2.8708  -2.2134  -0.5368  -0.1854  -0.0651   0.2591
     0.5229   0.8937   0.9925   1.4815   1.5534   1.7738   2.3296   2.5148

          k = 0.0000 0.4330 0.1136 ( 23660 PWs)   bands (ev):

   -16.3894 -15.6830 -15.1944 -14.6373 -14.5937 -14.5758  -5.8382  -4.9226
    -3.3782  -2.9349  -2.7464  -2.2417  -0.5252  -0.1972  -0.0693   0.1394
     0.6062   0.8994   1.1000   1.4342   1.5346   1.8629   2.2118   2.5428

          k = 0.0000 0.4330 0.2273 ( 23673 PWs)   bands (ev):

   -16.3382 -15.7583 -15.1823 -14.6365 -14.5949 -14.5695  -5.8850  -4.7612
    -3.5850  -2.9183  -2.5880  -2.3312  -0.5634  -0.3246   0.0789   0.1254
     0.5932   0.9954   1.1770   1.4549   1.5230   1.9106   2.0752   2.5254

          k = 0.0000 0.4330 0.3409 ( 23647 PWs)   bands (ev):

   -16.2686 -15.8551 -15.1605 -14.6490 -14.5885 -14.5644  -5.9201  -4.5854
    -3.7631  -2.8769  -2.5573  -2.3790  -0.5830  -0.4576   0.1645   0.2590
     0.5240   1.0826   1.2212   1.4364   1.6381   1.7784   2.0795   2.4660

          k = 0.0000 0.4330-0.4545 ( 23650 PWs)   bands (ev):

   -16.2256 -15.9125 -15.1431 -14.6588 -14.5868 -14.5619  -5.9316  -4.4978
    -3.8469  -2.8297  -2.6132  -2.3751  -0.5562  -0.5401   0.1891   0.3535
     0.5070   1.0858   1.2266   1.3969   1.6188   1.9123   2.0333   2.4046

          k = 0.0000-0.5774 0.0000 ( 23646 PWs)   bands (ev):

   -16.2821 -15.8011 -15.1795 -14.6468 -14.6066 -14.5800  -5.8325  -4.8302
    -3.3586  -2.9150  -2.8948  -2.1188  -0.4703  -0.3016  -0.0954   0.2864
     0.5079   0.8457   0.9280   1.4811   1.5473   1.8007   2.3141   2.5458

          k = 0.0000-0.5774 0.1136 ( 23664 PWs)   bands (ev):

   -16.2726 -15.7964 -15.1997 -14.6443 -14.6114 -14.5757  -5.8125  -4.8138
    -3.4705  -2.9200  -2.7763  -2.1679  -0.4923  -0.3630  -0.0271   0.2404
     0.6121   0.7921   1.0099   1.4362   1.6102   1.8038   2.2707   2.5213

          k = 0.0000-0.5774 0.2273 ( 23680 PWs)   bands (ev):

   -16.2485 -15.7845 -15.2480 -14.6504 -14.6091 -14.5694  -5.7622  -4.7736
    -3.6575  -2.8966  -2.6018  -2.2953  -0.5444  -0.4668   0.0723   0.2630
     0.6587   0.8319   1.1453   1.4225   1.6208   1.8642   2.1417   2.4645

          k = 0.0000-0.5774 0.3409 ( 23648 PWs)   bands (ev):

   -16.2225 -15.7723 -15.2964 -14.6650 -14.5970 -14.5666  -5.7088  -4.7323
    -3.8025  -2.8435  -2.4826  -2.4427  -0.5879  -0.5544   0.1351   0.3704
     0.5760   0.9725   1.2680   1.4403   1.6075   1.9446   1.9490   2.4114

          k = 0.0000-0.5774-0.4545 ( 23716 PWs)   bands (ev):

   -16.2111 -15.7671 -15.3166 -14.6718 -14.5905 -14.5667  -5.6855  -4.7148
    -3.8567  -2.7987  -2.5402  -2.4270  -0.6032  -0.5877   0.1556   0.4716
     0.4944   1.0330   1.3164   1.4414   1.7024   1.7583   1.9842   2.3905

          k = 0.1250 0.2165 0.0000 ( 23616 PWs)   bands (ev):

   -16.6371 -15.3895 -15.2162 -14.6223 -14.5737 -14.5530  -5.7535  -5.3917
    -3.0051  -2.9378  -2.8060  -2.4908  -0.4968  -0.2882  -0.0251   0.3629
     0.6623   1.0164   1.1215   1.4664   1.6423   1.7466   2.3316   2.4053

          k = 0.1250 0.2165 0.1136 ( 23639 PWs)   bands (ev):

   -16.6093 -15.5462 -15.0865 -14.6187 -14.5782 -14.5506  -5.9672  -5.1232
    -3.1721  -2.9060  -2.7169  -2.4936  -0.5305  -0.2178  -0.0015   0.3347
     0.6251   1.0519   1.0940   1.3775   1.6839   1.7877   2.2419   2.4896

          k = 0.1250 0.2165 0.2273 ( 23641 PWs)   bands (ev):

   -16.5277 -15.7744 -14.9374 -14.6113 -14.5864 -14.5468  -6.2210  -4.7125
    -3.3889  -2.9260  -2.7025  -2.4117  -0.5448  -0.0953  -0.0007   0.2768
     0.5875   1.0250   1.1091   1.2657   1.6660   1.8605   2.2440   2.5201

          k = 0.1250 0.2165 0.3409 ( 23658 PWs)   bands (ev):

   -16.3982 -15.9994 -14.8378 -14.6154 -14.5829 -14.5448  -6.3868  -4.3115
    -3.6204  -2.9326  -2.7990  -2.2921  -0.4854  -0.1625   0.0329   0.3044
     0.5605   0.9814   1.0857   1.2438   1.5391   2.0271   2.2980   2.4626

          k = 0.1250 0.2165-0.4545 ( 23662 PWs)   bands (ev):

   -16.2678 -16.1627 -14.8020 -14.6220 -14.5769 -14.5448  -6.4438  -4.0453
    -3.8179  -2.9013  -2.8807  -2.2440  -0.3704  -0.3253   0.0805   0.3402
     0.5366   0.9824   1.0413   1.2570   1.4797   2.1658   2.2709   2.4168

          k = 0.1250 0.3608 0.0000 ( 23649 PWs)   bands (ev):

   -16.4728 -15.5796 -15.2024 -14.6384 -14.5944 -14.5658  -5.8095  -5.0652
    -3.2646  -2.9245  -2.7988  -2.2839  -0.5227  -0.2521   0.0184   0.3297
     0.4628   0.9191   1.1067   1.3564   1.6177   1.7728   2.3274   2.4975

          k = 0.1250 0.3608 0.1136 ( 23640 PWs)   bands (ev):

   -16.4512 -15.6325 -15.1770 -14.6333 -14.5949 -14.5660  -5.8662  -4.9620
    -3.3794  -2.9120  -2.7132  -2.3102  -0.5378  -0.1940  -0.0290   0.2208
     0.5453   0.9478   1.1456   1.3585   1.5825   1.8402   2.2282   2.5297

          k = 0.1250 0.3608 0.2273 ( 23664 PWs)   bands (ev):

   -16.3883 -15.7610 -15.1180 -14.6292 -14.5987 -14.5635  -5.9665  -4.7331
    -3.5781  -2.8987  -2.5936  -2.3735  -0.5790  -0.1943  -0.0332   0.2187
     0.5730   1.0109   1.1456   1.3981   1.6306   1.8242   2.1503   2.5117

          k = 0.1250 0.3608 0.3409 ( 23660 PWs)   bands (ev):

   -16.2968 -15.9051 -15.0670 -14.6390 -14.5899 -14.5645  -6.0406  -4.4885
    -3.7714  -2.8625  -2.6231  -2.3611  -0.5761  -0.3566   0.1094   0.2527
     0.5573   1.0307   1.1960   1.4046   1.6616   1.8094   2.1586   2.4307

          k = 0.1250 0.3608-0.4545 ( 23658 PWs)   bands (ev):

   -16.2324 -15.9902 -15.0431 -14.6475 -14.5841 -14.5665  -6.0662  -4.3575
    -3.8787  -2.8112  -2.6973  -2.3417  -0.5414  -0.4504   0.1841   0.2559
     0.5682   1.0125   1.2252   1.4014   1.5676   1.9900   2.1236   2.3540

          k = 0.1250 0.5052 0.0000 ( 23666 PWs)   bands (ev):

   -16.2866 -15.7885 -15.1924 -14.6451 -14.6044 -14.5791  -5.8478  -4.7664
    -3.5072  -2.8896  -2.8226  -2.1214  -0.4701  -0.2631  -0.1414   0.3200
     0.5199   0.8483   0.9507   1.3695   1.5297   1.8843   2.2954   2.5508

          k = 0.1250 0.5052 0.1136 ( 23663 PWs)   bands (ev):

   -16.2771 -15.7835 -15.2125 -14.6417 -14.6100 -14.5754  -5.8257  -4.7547
    -3.5855  -2.9039  -2.7281  -2.1660  -0.4834  -0.3089  -0.1167   0.2767
     0.5975   0.8133   1.0752   1.3394   1.5529   1.9115   2.2248   2.5341

          k = 0.1250 0.5052 0.2273 ( 23657 PWs)   bands (ev):

   -16.2508 -15.7792 -15.2512 -14.6451 -14.6136 -14.5704  -5.7683  -4.7278
    -3.7355  -2.8834  -2.5861  -2.2908  -0.5557  -0.3976  -0.0190   0.3074
     0.6148   0.8694   1.2040   1.3797   1.5830   1.9441   2.0782   2.4688

          k = 0.1250 0.5052 0.3409 ( 23668 PWs)   bands (ev):

   -16.2209 -15.7807 -15.2846 -14.6604 -14.6013 -14.5723  -5.7059  -4.7033
    -3.8596  -2.8227  -2.5083  -2.4217  -0.6160  -0.4698   0.0610   0.3926
     0.5678   0.9414   1.3105   1.4917   1.6224   1.8522   2.0083   2.3777

          k = 0.1250 0.5052-0.4545 ( 23646 PWs)   bands (ev):

   -16.2062 -15.7866 -15.2935 -14.6690 -14.5922 -14.5771  -5.6779  -4.6937
    -3.9078  -2.7603  -2.5711  -2.4259  -0.6371  -0.4966   0.0918   0.4377
     0.5594   0.9460   1.3916   1.4773   1.6790   1.8147   1.9887   2.3158

          k = 0.2500 0.4330 0.0000 ( 23658 PWs)   bands (ev):

   -16.2909 -15.7756 -15.2056 -14.6433 -14.6031 -14.5776  -5.8622  -4.6956
    -3.6347  -2.8794  -2.7663  -2.1220  -0.4507  -0.2897  -0.1322   0.3991
     0.4679   0.8051   1.0817   1.2250   1.5163   1.9451   2.2754   2.5553

          k = 0.2500 0.4330 0.1136 ( 23648 PWs)   bands (ev):

   -16.2795 -15.7778 -15.2159 -14.6411 -14.6135 -14.5726  -5.8371  -4.6885
    -3.6939  -2.8837  -2.6983  -2.1730  -0.5106  -0.2219  -0.1782   0.3801
     0.5328   0.8154   1.1136   1.2558   1.5410   1.9404   2.2338   2.5238

          k = 0.2500 0.4330 0.2273 ( 23669 PWs)   bands (ev):

   -16.2498 -15.7857 -15.2399 -14.6434 -14.6220 -14.5699  -5.7728  -4.6748
    -3.8171  -2.8596  -2.5794  -2.3031  -0.5867  -0.2988  -0.0921   0.3767
     0.6169   0.8272   1.1936   1.3758   1.6034   1.8995   2.1484   2.4272

          k = 0.2500 0.4330 0.3409 ( 23684 PWs)   bands (ev):

   -16.2163 -15.7982 -15.2624 -14.6587 -14.6089 -14.5763  -5.7020  -4.6688
    -3.9217  -2.7901  -2.5250  -2.4300  -0.6311  -0.3872  -0.0076   0.3947
     0.6378   0.8490   1.3306   1.4903   1.7170   1.7870   2.0920   2.2815

          k = 0.2500 0.4330-0.4545 ( 23686 PWs)   bands (ev):

   -16.2009 -15.8052 -15.2712 -14.6657 -14.5924 -14.5895  -5.6702  -4.6697
    -3.9605  -2.7041  -2.6207  -2.4248  -0.6440  -0.4205   0.0214   0.4064
     0.6340   0.8632   1.4388   1.5300   1.6436   1.8717   2.0403   2.1948

          k = 0.2500 0.5774 0.0000 ( 23688 PWs)   bands (ev):

   -16.1397 -15.9330 -15.2085 -14.6442 -14.6005 -14.5878  -5.8844  -4.4197
    -3.9065  -2.8363  -2.7853  -2.0459  -0.3785  -0.3063  -0.2647   0.4678
     0.5449   0.7484   0.9005   1.3080   1.4249   2.0573   2.2181   2.5756

          k = 0.2500 0.5774 0.1136 ( 23681 PWs)   bands (ev):

   -16.1511 -15.8984 -15.2312 -14.6424 -14.6187 -14.5772  -5.8339  -4.4648
    -3.9283  -2.8666  -2.7013  -2.1056  -0.4688  -0.2940  -0.2141   0.4750
     0.5668   0.7221   1.0241   1.2793   1.4887   2.0373   2.1911   2.5268

          k = 0.2500 0.5774 0.2273 ( 23675 PWs)   bands (ev):

   -16.1700 -15.8145 -15.2956 -14.6483 -14.6301 -14.5734  -5.6925  -4.6034
    -3.9650  -2.8487  -2.5845  -2.2566  -0.5815  -0.3135  -0.1458   0.4933
     0.6186   0.7182   1.2407   1.3196   1.5870   1.9848   2.1058   2.3955

          k = 0.2500 0.5774 0.3409 ( 23675 PWs)   bands (ev):

   -16.1827 -15.7113 -15.3860 -14.6675 -14.6161 -14.5812  -5.4947  -4.8076
    -3.9856  -2.7688  -2.4996  -2.4405  -0.6552  -0.3384  -0.1073   0.5311
     0.6299   0.7373   1.4431   1.4792   1.6723   1.9152   1.9737   2.2254

          k = 0.2500 0.5774-0.4545 ( 23674 PWs)   bands (ev):

   -16.1869 -15.6472 -15.4461 -14.6751 -14.5987 -14.5961  -5.3618  -4.9447
    -3.9910  -2.6651  -2.5886  -2.4640  -0.6793  -0.3485  -0.0968   0.5596
     0.6112   0.7543   1.5781   1.5905   1.6989   1.8022   1.9543   2.1154

          k = 0.0000 0.1443-0.1136 ( 23615 PWs)   bands (ev):

   -16.6966 -15.5215 -15.0168 -14.6022 -14.5650 -14.5401  -6.0677  -5.1757
    -3.0561  -2.9139  -2.7629  -2.5529  -0.4815  -0.2240  -0.0543   0.2905
     0.8548   1.0515   1.1027   1.3700   1.6546   1.8882   2.2395   2.4422

          k = 0.0000 0.1443-0.2273 ( 23635 PWs)   bands (ev):

   -16.6081 -15.7881 -14.8272 -14.5957 -14.5778 -14.5331  -6.3881  -4.6870
    -3.2514  -2.9667  -2.8338  -2.3826  -0.4770  -0.1119  -0.0015   0.3520
     0.6877   0.9835   1.1041   1.1674   1.5757   1.9933   2.3073   2.5073

          k = 0.0000 0.1443-0.3409 ( 23662 PWs)   bands (ev):

   -16.4653 -16.0436 -14.7018 -14.5936 -14.5849 -14.5285  -6.5931  -4.2186
    -3.4867  -3.0097  -2.9330  -2.2422  -0.3812  -0.0386  -0.0313   0.3937
     0.6029   0.8994   0.9628   1.1407   1.4655   2.1514   2.4002   2.4704

          k = 0.0000 0.2887-0.1136 ( 23642 PWs)   bands (ev):

   -16.5676 -15.5716 -15.1012 -14.6257 -14.5904 -14.5525  -5.9287  -5.0950
    -3.1991  -2.8938  -2.7425  -2.4601  -0.5768  -0.1739  -0.0096   0.3834
     0.5950   1.0071   1.0222   1.4323   1.6287   1.7917   2.2880   2.4702

          k = 0.0000 0.2887-0.2273 ( 23656 PWs)   bands (ev):

   -16.4894 -15.7753 -14.9737 -14.6184 -14.6014 -14.5480  -6.1474  -4.7252
    -3.4259  -2.9152  -2.6423  -2.4529  -0.5870  -0.1160   0.0093   0.3118
     0.6125   0.9647   1.0816   1.3147   1.6620   1.8491   2.2771   2.4694

          k = 0.0000 0.2887-0.3409 ( 23646 PWs)   bands (ev):

   -16.3675 -15.9805 -14.8913 -14.6271 -14.5909 -14.5461  -6.2935  -4.3606
    -3.6543  -2.9191  -2.7299  -2.3332  -0.5297  -0.2282   0.0638   0.3290
     0.5733   0.9807   1.0938   1.2764   1.5656   1.9995   2.3274   2.3806

          k = 0.0000 0.4330-0.1136 ( 23660 PWs)   bands (ev):

   -16.3867 -15.6992 -15.1698 -14.6414 -14.6099 -14.5669  -5.8355  -4.9223
    -3.3744  -2.8925  -2.7875  -2.2670  -0.5889  -0.2156   0.0108   0.2921
     0.5595   0.8896   0.9632   1.4776   1.6319   1.7297   2.3305   2.4775

          k = 0.0000 0.4330-0.2273 ( 23673 PWs)   bands (ev):

   -16.3329 -15.7794 -15.1509 -14.6441 -14.6107 -14.5620  -5.8816  -4.7589
    -3.5871  -2.8849  -2.5969  -2.3832  -0.6225  -0.2940   0.0662   0.2908
     0.6483   0.8726   1.0666   1.4399   1.6830   1.7638   2.2661   2.4149

          k = 0.0000 0.4330-0.3409 ( 23647 PWs)   bands (ev):

   -16.2627 -15.8706 -15.1399 -14.6559 -14.5969 -14.5604  -5.9179  -4.5815
    -3.7688  -2.8531  -2.5441  -2.4333  -0.6119  -0.4316   0.1476   0.3245
     0.5919   0.9914   1.1664   1.3982   1.6396   1.8971   2.1380   2.3746

          k =-0.1250 0.3608-0.1136 ( 23640 PWs)   bands (ev):

   -16.4500 -15.6421 -15.1620 -14.6358 -14.6032 -14.5620  -5.8646  -4.9620
    -3.3764  -2.8965  -2.7252  -2.3279  -0.5746  -0.1954   0.0070   0.3045
     0.5330   0.9371   1.0454   1.4017   1.6229   1.7810   2.2901   2.4951

          k =-0.1250 0.3608-0.2273 ( 23664 PWs)   bands (ev):

   -16.3859 -15.7713 -15.1002 -14.6334 -14.6085 -14.5594  -5.9646  -4.7319
    -3.5785  -2.8826  -2.5856  -2.4139  -0.6089  -0.1952  -0.0053   0.2853
     0.6130   0.9320   1.0979   1.4005   1.6902   1.7722   2.2378   2.4508

          k =-0.1250 0.3608-0.3409 ( 23660 PWs)   bands (ev):

   -16.2936 -15.9126 -15.0554 -14.6436 -14.5960 -14.5613  -6.0394  -4.4860
    -3.7745  -2.8499  -2.6184  -2.3886  -0.5899  -0.3464   0.1043   0.2849
     0.6052   0.9649   1.1860   1.3840   1.6368   1.8839   2.2222   2.3517

          k =-0.1250 0.5052-0.1136 ( 23663 PWs)   bands (ev):

   -16.2750 -15.7908 -15.2030 -14.6440 -14.6144 -14.5732  -5.8246  -4.7543
    -3.5843  -2.8939  -2.7377  -2.1768  -0.5298  -0.2819  -0.0899   0.3455
     0.5564   0.8392   0.9796   1.3737   1.5870   1.8542   2.2808   2.5095

          k =-0.1250 0.5052-0.2273 ( 23657 PWs)   bands (ev):

   -16.2474 -15.7909 -15.2369 -14.6498 -14.6167 -14.5687  -5.7669  -4.7263
    -3.7368  -2.8712  -2.5909  -2.3098  -0.5923  -0.3686  -0.0053   0.3585
     0.6537   0.7969   1.1434   1.3908   1.6659   1.8287   2.1979   2.4181

          k =-0.1250 0.5052-0.3409 ( 23668 PWs)   bands (ev):

   -16.2180 -15.7902 -15.2739 -14.6638 -14.6034 -14.5711  -5.7048  -4.7016
    -3.8622  -2.8121  -2.4912  -2.4565  -0.6275  -0.4598   0.0687   0.3986
     0.6200   0.8809   1.3073   1.4334   1.6664   1.8776   2.0478   2.3336

     highest occupied level (ev):     2.5756

!    total energy              =    -215.93573347 Ry
     estimated scf accuracy    <       0.00000003 Ry

     The total energy is the sum of the following terms:
     one-electron contribution =    -103.42197990 Ry
     hartree contribution      =      77.24813045 Ry
     xc contribution           =     -50.79928041 Ry
     ewald contribution        =    -138.96260361 Ry

     convergence has been achieved in   8 iterations

     Writing all to output data dir ./quartz-scf-us/quartz.save/ :
     XML data file, charge density, pseudopotentials, collected wavefunctions

     init_run     :      1.21s CPU      1.28s WALL (       1 calls)
     electrons    :     11.56s CPU     12.01s WALL (       1 calls)

     Called by init_run:
     wfcinit      :      0.89s CPU      0.93s WALL (       1 calls)
     potinit      :      0.03s CPU      0.04s WALL (       1 calls)
     hinit0       :      0.19s CPU      0.20s WALL (       1 calls)

     Called by electrons:
     c_bands      :      9.94s CPU     10.21s WALL (       9 calls)
     sum_band     :      1.45s CPU      1.48s WALL (       9 calls)
     v_of_rho     :      0.11s CPU      0.13s WALL (       9 calls)
     newd         :      0.02s CPU      0.03s WALL (       9 calls)
     mix_rho      :      0.01s CPU      0.02s WALL (       9 calls)

     Called by c_bands:
     init_us_2    :      0.14s CPU      0.14s WALL (     323 calls)
     cegterg      :      9.59s CPU      9.78s WALL (     153 calls)

     Called by *egterg:
     cdiaghg      :      0.57s CPU      0.58s WALL (     570 calls)
     h_psi        :      8.64s CPU      8.83s WALL (     604 calls)
     s_psi        :      0.26s CPU      0.26s WALL (     604 calls)
     g_psi        :      0.02s CPU      0.02s WALL (     434 calls)

     Called by h_psi:
     h_psi:calbec :      0.39s CPU      0.40s WALL (     604 calls)
     vloc_psi     :      7.93s CPU      8.09s WALL (     604 calls)
     add_vuspsi   :      0.28s CPU      0.28s WALL (     604 calls)

     General routines
     calbec       :      0.48s CPU      0.49s WALL (     757 calls)
     fft          :      0.20s CPU      0.21s WALL (      99 calls)
     ffts         :      0.01s CPU      0.01s WALL (       9 calls)
     fftw         :      8.35s CPU      8.51s WALL (   27534 calls)

     Parallel routines

     PWSCF        :     13.44s CPU     15.95s WALL


   This run was terminated on:  14:45:17   4Feb2026            

=------------------------------------------------------------------------------=
   JOB DONE.
=------------------------------------------------------------------------------=
