
     Program PWSCF v.7.3.1 starts on  4Feb2026 at 14:45:20 

     This program is part of the open-source Quantum ESPRESSO suite
     for quantum simulation of materials; please cite
         "P. Giannozzi et al., J. Phys.:Condens. Matter 21 395502 (2009);
         "P. Giannozzi et al., J. Phys.:Condens. Matter 29 465901 (2017);
         "P. Giannozzi et al., J. Chem. Phys. 152 154105 (2020);
          URL http://www.quantum-espresso.org", 
     in publications or presentations arising from this work. More details at
     http://www.quantum-espresso.org/quote

     Parallel version (MPI), running on   128 processors

     MPI processes distributed on     1 nodes
     240801 MiB available memory on the printing compute node when the environment starts

     Waiting for input...
     Reading input from standard input

     Current dimensions of program PWSCF are:
     Max number of different atomic species (ntypx) = 10
     Max number of k-points (npk) =  40000
     Max angular momentum in pseudopotentials (lmaxx) =  4
     WARNING: atomic wfc #  2 for atom typeSi has zero norm
     WARNING: atomic wfc #  2 for atom typeO has zero norm
     WARNING: atomic wfc #  4 for atom typeO has zero norm
     WARNING: atomic wfc #  5 for atom typeO has zero norm

     K-points division:     npool     =       4
     R & G space division:  proc/nbgrp/npool/nimage =      32
     Subspace diagonalization in iterative solution of the eigenvalue problem:
     a serial algorithm will be used


     Parallelization info
     --------------------
     sticks:   dense  smooth     PW     G-vecs:    dense   smooth      PW
     Min         111     111     29                 5915     5915     829
     Max         112     112     30                 5920     5920     838
     Sum        3571    3571    955               189349   189349   26723

     Using Slab Decomposition



     bravais-lattice index     =            4
     lattice parameter (alat)  =       9.2850  a.u.
     unit-cell volume          =     762.5513 (a.u.)^3
     number of atoms/cell      =            9
     number of atomic types    =            2
     number of electrons       =        48.00
     number of Kohn-Sham states=           24
     kinetic-energy cutoff     =     150.0000  Ry
     charge density cutoff     =     600.0000  Ry
     scf convergence threshold =      1.0E-07
     mixing beta               =       0.7000
     number of iterations used =            8  plain     mixing
     Exchange-correlation=  SLA  PW   PBX  PBC
                           (   1   4   3   4   0   0   0)

     celldm(1)=   9.285000  celldm(2)=   0.000000  celldm(3)=   1.100000
     celldm(4)=   0.000000  celldm(5)=   0.000000  celldm(6)=   0.000000

     crystal axes: (cart. coord. in units of alat)
               a(1) = (   1.000000   0.000000   0.000000 )  
               a(2) = (  -0.500000   0.866025   0.000000 )  
               a(3) = (   0.000000   0.000000   1.100000 )  

     reciprocal axes: (cart. coord. in units 2 pi/alat)
               b(1) = (  1.000000  0.577350 -0.000000 )  
               b(2) = (  0.000000  1.154701  0.000000 )  
               b(3) = (  0.000000 -0.000000  0.909091 )  


     PseudoPot. # 1 for Si read from file:
     ./Si.pbe-van_gipaw.UPF
     MD5 check sum: 907f546cb6949dd03cdbc0a9de4be0c7
     Pseudo is Ultrasoft, Zval =  4.0
     Generated by new atomic code, or converted to UPF format
     Using radial grid of 1141 points,  4 beta functions with: 
                l(1) =   0
                l(2) =   0
                l(3) =   1
                l(4) =   1
     Q(r) pseudized with 0 coefficients 


     PseudoPot. # 2 for O  read from file:
     ./O.pbe-van_gipaw.UPF
     MD5 check sum: 5ce2a047509d4f331db576c963e74b29
     Pseudo is Ultrasoft, Zval =  6.0
     Generated by new atomic code, or converted to UPF format
     Using radial grid of 1095 points,  4 beta functions with: 
                l(1) =   0
                l(2) =   0
                l(3) =   1
                l(4) =   1
     Q(r) pseudized with 0 coefficients 


     atomic species   valence    mass     pseudopotential
     Si                4.00    28.08600     Si( 1.00)
     O                 6.00    16.00000     O ( 1.00)

      6 Sym. Ops. (no inversion) found ( 4 have fractional translation)



   Cartesian axes

     site n.     atom                  positions (alat units)
         1        Si     tau(   1) = (  -0.2349350   0.4069194   0.3666663  )
         2        Si     tau(   2) = (   0.4698700   0.0000000   0.7333330  )
         3        Si     tau(   3) = (   0.2650650   0.4591060   1.0999996  )
         4        O      tau(   4) = (   0.2800500   0.2321814   0.8640500  )
         5        O      tau(   5) = (   0.6589000   0.1264397   0.4973833  )
         6        O      tau(   6) = (   0.5610500   0.5074043   0.1307167  )
         7        O      tau(   7) = (   0.0610500   0.3586211   0.2359500  )
         8        O      tau(   8) = (  -0.2199500   0.6338440   0.6026167  )
         9        O      tau(   9) = (   0.1589000   0.7395857   0.9692833  )

     number of k points=    88
                       cart. coord. in units 2pi/alat
        k(    1) = (   0.0000000   0.0000000   0.0000000), wk =   0.0027435
        k(    2) = (   0.0000000   0.0000000   0.1010101), wk =   0.0054870
        k(    3) = (   0.0000000   0.0000000   0.2020202), wk =   0.0054870
        k(    4) = (   0.0000000   0.0000000   0.3030303), wk =   0.0054870
        k(    5) = (   0.0000000   0.0000000   0.4040404), wk =   0.0054870
        k(    6) = (   0.0000000   0.1283001   0.0000000), wk =   0.0164609
        k(    7) = (   0.0000000   0.1283001   0.1010101), wk =   0.0164609
        k(    8) = (   0.0000000   0.1283001   0.2020202), wk =   0.0164609
        k(    9) = (   0.0000000   0.1283001   0.3030303), wk =   0.0164609
        k(   10) = (   0.0000000   0.1283001   0.4040404), wk =   0.0164609
        k(   11) = (   0.0000000   0.2566001   0.0000000), wk =   0.0164609
        k(   12) = (   0.0000000   0.2566001   0.1010101), wk =   0.0164609
        k(   13) = (   0.0000000   0.2566001   0.2020202), wk =   0.0164609
        k(   14) = (   0.0000000   0.2566001   0.3030303), wk =   0.0164609
        k(   15) = (   0.0000000   0.2566001   0.4040404), wk =   0.0164609
        k(   16) = (   0.0000000   0.3849002   0.0000000), wk =   0.0164609
        k(   17) = (   0.0000000   0.3849002   0.1010101), wk =   0.0164609
        k(   18) = (   0.0000000   0.3849002   0.2020202), wk =   0.0164609
        k(   19) = (   0.0000000   0.3849002   0.3030303), wk =   0.0164609
        k(   20) = (   0.0000000   0.3849002   0.4040404), wk =   0.0164609
        k(   21) = (   0.0000000   0.5132002   0.0000000), wk =   0.0164609
        k(   22) = (   0.0000000   0.5132002   0.1010101), wk =   0.0164609
        k(   23) = (   0.0000000   0.5132002   0.2020202), wk =   0.0164609
        k(   24) = (   0.0000000   0.5132002   0.3030303), wk =   0.0164609
        k(   25) = (   0.0000000   0.5132002   0.4040404), wk =   0.0164609
        k(   26) = (   0.1111111   0.1924501   0.0000000), wk =   0.0164609
        k(   27) = (   0.1111111   0.1924501   0.1010101), wk =   0.0329218
        k(   28) = (   0.1111111   0.1924501   0.2020202), wk =   0.0329218
        k(   29) = (   0.1111111   0.1924501   0.3030303), wk =   0.0329218
        k(   30) = (   0.1111111   0.1924501   0.4040404), wk =   0.0329218
        k(   31) = (   0.1111111   0.3207501   0.0000000), wk =   0.0329218
        k(   32) = (   0.1111111   0.3207501   0.1010101), wk =   0.0329218
        k(   33) = (   0.1111111   0.3207501   0.2020202), wk =   0.0329218
        k(   34) = (   0.1111111   0.3207501   0.3030303), wk =   0.0329218
        k(   35) = (   0.1111111   0.3207501   0.4040404), wk =   0.0329218
        k(   36) = (   0.1111111   0.4490502   0.0000000), wk =   0.0329218
        k(   37) = (   0.1111111   0.4490502   0.1010101), wk =   0.0329218
        k(   38) = (   0.1111111   0.4490502   0.2020202), wk =   0.0329218
        k(   39) = (   0.1111111   0.4490502   0.3030303), wk =   0.0329218
        k(   40) = (   0.1111111   0.4490502   0.4040404), wk =   0.0329218
        k(   41) = (   0.1111111   0.5773503   0.0000000), wk =   0.0164609
        k(   42) = (   0.1111111   0.5773503   0.1010101), wk =   0.0329218
        k(   43) = (   0.1111111   0.5773503   0.2020202), wk =   0.0329218
        k(   44) = (   0.1111111   0.5773503   0.3030303), wk =   0.0329218
        k(   45) = (   0.1111111   0.5773503   0.4040404), wk =   0.0329218
        k(   46) = (   0.2222222   0.3849002   0.0000000), wk =   0.0164609
        k(   47) = (   0.2222222   0.3849002   0.1010101), wk =   0.0329218
        k(   48) = (   0.2222222   0.3849002   0.2020202), wk =   0.0329218
        k(   49) = (   0.2222222   0.3849002   0.3030303), wk =   0.0329218
        k(   50) = (   0.2222222   0.3849002   0.4040404), wk =   0.0329218
        k(   51) = (   0.2222222   0.5132002   0.0000000), wk =   0.0329218
        k(   52) = (   0.2222222   0.5132002   0.1010101), wk =   0.0329218
        k(   53) = (   0.2222222   0.5132002   0.2020202), wk =   0.0329218
        k(   54) = (   0.2222222   0.5132002   0.3030303), wk =   0.0329218
        k(   55) = (   0.2222222   0.5132002   0.4040404), wk =   0.0329218
        k(   56) = (   0.3333333   0.5773503   0.0000000), wk =   0.0054870
        k(   57) = (   0.3333333   0.5773503   0.1010101), wk =   0.0109739
        k(   58) = (   0.3333333   0.5773503   0.2020202), wk =   0.0109739
        k(   59) = (   0.3333333   0.5773503   0.3030303), wk =   0.0109739
        k(   60) = (   0.3333333   0.5773503   0.4040404), wk =   0.0109739
        k(   61) = (   0.0000000   0.1283001  -0.1010101), wk =   0.0164609
        k(   62) = (   0.0000000   0.1283001  -0.2020202), wk =   0.0164609
        k(   63) = (   0.0000000   0.1283001  -0.3030303), wk =   0.0164609
        k(   64) = (   0.0000000   0.1283001  -0.4040404), wk =   0.0164609
        k(   65) = (   0.0000000   0.2566001  -0.1010101), wk =   0.0164609
        k(   66) = (   0.0000000   0.2566001  -0.2020202), wk =   0.0164609
        k(   67) = (   0.0000000   0.2566001  -0.3030303), wk =   0.0164609
        k(   68) = (   0.0000000   0.2566001  -0.4040404), wk =   0.0164609
        k(   69) = (   0.0000000   0.3849002  -0.1010101), wk =   0.0164609
        k(   70) = (   0.0000000   0.3849002  -0.2020202), wk =   0.0164609
        k(   71) = (   0.0000000   0.3849002  -0.3030303), wk =   0.0164609
        k(   72) = (   0.0000000   0.3849002  -0.4040404), wk =   0.0164609
        k(   73) = (   0.0000000   0.5132002  -0.1010101), wk =   0.0164609
        k(   74) = (   0.0000000   0.5132002  -0.2020202), wk =   0.0164609
        k(   75) = (   0.0000000   0.5132002  -0.3030303), wk =   0.0164609
        k(   76) = (   0.0000000   0.5132002  -0.4040404), wk =   0.0164609
        k(   77) = (  -0.1111111   0.3207501  -0.1010101), wk =   0.0329218
        k(   78) = (  -0.1111111   0.3207501  -0.2020202), wk =   0.0329218
        k(   79) = (  -0.1111111   0.3207501  -0.3030303), wk =   0.0329218
        k(   80) = (  -0.1111111   0.3207501  -0.4040404), wk =   0.0329218
        k(   81) = (  -0.1111111   0.4490502  -0.1010101), wk =   0.0329218
        k(   82) = (  -0.1111111   0.4490502  -0.2020202), wk =   0.0329218
        k(   83) = (  -0.1111111   0.4490502  -0.3030303), wk =   0.0329218
        k(   84) = (  -0.1111111   0.4490502  -0.4040404), wk =   0.0329218
        k(   85) = (  -0.2222222   0.5132002  -0.1010101), wk =   0.0329218
        k(   86) = (  -0.2222222   0.5132002  -0.2020202), wk =   0.0329218
        k(   87) = (  -0.2222222   0.5132002  -0.3030303), wk =   0.0329218
        k(   88) = (  -0.2222222   0.5132002  -0.4040404), wk =   0.0329218

     Dense  grid:   189349 G-vectors     FFT dimensions: (  75,  75,  81)

     Estimated max dynamical RAM per process >      13.72 MB

     Estimated total dynamical RAM >       1.58 GB

     Initial potential from superposition of free atoms

     starting charge      45.3753, renormalised to      48.0000
     Starting wfcs are   60 randomized atomic wfcs

     total cpu time spent up to now is        2.1 secs

     per-process dynamical memory:    21.3 Mb

     Self-consistent Calculation

     iteration #  1     ecut=   150.00 Ry     beta= 0.70
     Davidson diagonalization with overlap
     ethr =  1.00E-02,  avg # of iterations =  3.0

     Threshold (ethr) on eigenvalues was too large:
     Diagonalizing with lowered threshold

     Davidson diagonalization with overlap
     ethr =  9.40E-04,  avg # of iterations =  2.0

     negative rho (up, down):  1.396E-03 0.000E+00

     total cpu time spent up to now is        5.1 secs

     total energy              =    -215.79296949 Ry
     estimated scf accuracy    <       0.44744995 Ry

     iteration #  2     ecut=   150.00 Ry     beta= 0.70
     Davidson diagonalization with overlap
     ethr =  9.32E-04,  avg # of iterations =  2.0

     negative rho (up, down):  8.689E-04 0.000E+00

     total cpu time spent up to now is        6.9 secs

     total energy              =    -215.91068609 Ry
     estimated scf accuracy    <       0.13510089 Ry

     iteration #  3     ecut=   150.00 Ry     beta= 0.70
     Davidson diagonalization with overlap
     ethr =  2.81E-04,  avg # of iterations =  2.0

     total cpu time spent up to now is        8.4 secs

     total energy              =    -215.93357343 Ry
     estimated scf accuracy    <       0.00457162 Ry

     iteration #  4     ecut=   150.00 Ry     beta= 0.70
     Davidson diagonalization with overlap
     ethr =  9.52E-06,  avg # of iterations =  3.1

     total cpu time spent up to now is       10.2 secs

     total energy              =    -215.93543350 Ry
     estimated scf accuracy    <       0.00161220 Ry

     iteration #  5     ecut=   150.00 Ry     beta= 0.70
     Davidson diagonalization with overlap
     ethr =  3.36E-06,  avg # of iterations =  2.0

     total cpu time spent up to now is       11.8 secs

     total energy              =    -215.93566637 Ry
     estimated scf accuracy    <       0.00008850 Ry

     iteration #  6     ecut=   150.00 Ry     beta= 0.70
     Davidson diagonalization with overlap
     ethr =  1.84E-07,  avg # of iterations =  3.6

     total cpu time spent up to now is       13.7 secs

     total energy              =    -215.93572910 Ry
     estimated scf accuracy    <       0.00002022 Ry

     iteration #  7     ecut=   150.00 Ry     beta= 0.70
     Davidson diagonalization with overlap
     ethr =  4.21E-08,  avg # of iterations =  2.0

     total cpu time spent up to now is       15.3 secs

     total energy              =    -215.93573263 Ry
     estimated scf accuracy    <       0.00000078 Ry

     iteration #  8     ecut=   150.00 Ry     beta= 0.70
     Davidson diagonalization with overlap
     ethr =  1.62E-09,  avg # of iterations =  5.0

     total cpu time spent up to now is       17.4 secs

     End of self-consistent calculation

          k = 0.0000 0.0000 0.0000 ( 23595 PWs)   bands (ev):

   -16.7730 -15.2342 -15.2342 -14.5902 -14.5444 -14.5444  -5.6922  -5.6922
    -2.9080  -2.8898  -2.7171  -2.7171  -0.3510  -0.3510  -0.0987   0.1547
     1.0852   1.0852   1.1138   1.5936   1.5936   1.9048   2.2694   2.2695

          k = 0.0000 0.0000 0.1010 ( 23590 PWs)   bands (ev):

   -16.7486 -15.4817 -15.0065 -14.5896 -14.5534 -14.5354  -6.0894  -5.2483
    -2.9676  -2.8912  -2.8617  -2.5534  -0.4194  -0.2471  -0.0805   0.1959
     1.0447   1.0542   1.0921   1.4080   1.6363   1.9363   2.2473   2.3820

          k = 0.0000 0.0000 0.2020 ( 23602 PWs)   bands (ev):

   -16.6761 -15.7339 -14.8148 -14.5877 -14.5618 -14.5274  -6.4149  -4.7850
    -3.0918  -2.9752  -2.9408  -2.3887  -0.4234  -0.1447  -0.0290   0.3018
     0.8690   0.9940   1.0817   1.1681   1.5470   2.0260   2.3347   2.4750

          k = 0.0000 0.0000 0.3030 ( 23698 PWs)   bands (ev):

   -16.5580 -15.9778 -14.6753 -14.5847 -14.5692 -14.5213  -6.6464  -4.3312
    -3.2849  -3.0495  -3.0122  -2.2492  -0.3483  -0.0765   0.0224   0.4236
     0.6941   0.8764   0.9507   1.0676   1.4469   2.1580   2.4319   2.4935

          k = 0.0000 0.0000 0.4040 ( 23698 PWs)   bands (ev):

   -16.3982 -16.2023 -14.6015 -14.5806 -14.5754 -14.5180  -6.7669  -3.9150
    -3.5606  -3.0798  -3.0653  -2.1670  -0.2008  -0.0497  -0.0346   0.5140
     0.6724   0.7030   0.8200   1.0616   1.3906   2.3048   2.4293   2.4879

          k = 0.0000 0.1283 0.0000 ( 23619 PWs)   bands (ev):

   -16.7363 -15.2757 -15.2283 -14.6017 -14.5531 -14.5467  -5.7095  -5.6090
    -2.9262  -2.8877  -2.7746  -2.6447  -0.4177  -0.3245  -0.0838   0.2406
     0.9613   1.0731   1.1082   1.5617   1.5922   1.8516   2.2992   2.3134

          k = 0.0000 0.1283 0.1010 ( 23611 PWs)   bands (ev):

   -16.7125 -15.4878 -15.0371 -14.6004 -14.5577 -14.5421  -6.0389  -5.2337
    -3.0273  -2.9062  -2.7806  -2.5588  -0.4507  -0.2591  -0.0580   0.2615
     0.8700   1.0906   1.1103   1.3850   1.6715   1.8746   2.2318   2.4317

          k = 0.0000 0.1283 0.2020 ( 23624 PWs)   bands (ev):

   -16.6419 -15.7288 -14.8582 -14.5966 -14.5663 -14.5348  -6.3443  -4.7936
    -3.1908  -2.9526  -2.8423  -2.4054  -0.4638  -0.1492  -0.0035   0.3146
     0.7196   1.0472   1.1089   1.1845   1.5994   1.9679   2.2781   2.5140

          k = 0.0000 0.1283 0.3030 ( 23655 PWs)   bands (ev):

   -16.5270 -15.9634 -14.7278 -14.5932 -14.5737 -14.5292  -6.5613  -4.3619
    -3.3832  -2.9992  -2.9312  -2.2690  -0.4047  -0.0605   0.0097   0.3643
     0.6103   0.9295   1.0365   1.1091   1.4889   2.1065   2.3533   2.5243

          k = 0.0000 0.1283 0.4040 ( 23669 PWs)   bands (ev):

   -16.3723 -16.1798 -14.6542 -14.5988 -14.5750 -14.5260  -6.6739  -3.9708
    -3.6328  -3.0212  -2.9997  -2.1898  -0.2745  -0.1043  -0.0170   0.4433
     0.5571   0.8459   0.9323   1.1131   1.4244   2.2629   2.3613   2.4883

          k = 0.0000 0.2566 0.0000 ( 23649 PWs)   bands (ev):

   -16.6304 -15.3995 -15.2129 -14.6237 -14.5725 -14.5557  -5.7522  -5.3840
    -2.9706  -2.9417  -2.8500  -2.4752  -0.5132  -0.2505  -0.0563   0.3800
     0.6527   1.0221   1.0896   1.5094   1.5919   1.7623   2.3363   2.4062

          k = 0.0000 0.2566 0.1010 ( 23642 PWs)   bands (ev):

   -16.6089 -15.5209 -15.1164 -14.6200 -14.5666 -14.5601  -5.9304  -5.1633
    -3.1432  -2.9172  -2.7424  -2.4683  -0.5123  -0.2175  -0.0373   0.3208
     0.6095   1.0579   1.1242   1.3851   1.6871   1.7738   2.2291   2.4994

          k = 0.0000 0.2566 0.2020 ( 23649 PWs)   bands (ev):

   -16.5450 -15.7188 -14.9843 -14.6137 -14.5721 -14.5548  -6.1612  -4.8084
    -3.3392  -2.9335  -2.6917  -2.4150  -0.5332  -0.1064  -0.0112   0.2295
     0.5723   1.0829   1.1274   1.2744   1.7231   1.7910   2.2015   2.5490

          k = 0.0000 0.2566 0.3030 ( 23643 PWs)   bands (ev):

   -16.4420 -15.9205 -14.8838 -14.6133 -14.5754 -14.5488  -6.3301  -4.4490
    -3.5391  -2.9464  -2.7535  -2.3136  -0.5098  -0.1157   0.0113   0.2546
     0.5339   1.0307   1.1467   1.2256   1.5923   1.9368   2.2401   2.5319

          k = 0.0000 0.2566 0.4040 ( 23667 PWs)   bands (ev):

   -16.3114 -16.1032 -14.8251 -14.6212 -14.5755 -14.5444  -6.4176  -4.1422
    -3.7454  -2.9364  -2.8287  -2.2519  -0.4228  -0.2838   0.0798   0.3455
     0.4988   0.9877   1.1002   1.2433   1.4987   2.1154   2.2308   2.4722

          k = 0.0000 0.3849 0.0000 ( 23656 PWs)   bands (ev):

   -16.4719 -15.5864 -15.1942 -14.6396 -14.5924 -14.5689  -5.7989  -5.0920
    -3.1702  -2.9419  -2.8633  -2.2775  -0.5466  -0.1789  -0.0522   0.3140
     0.5049   0.9309   1.0259   1.4841   1.5631   1.7585   2.3367   2.4915

          k = 0.0000 0.3849 0.1010 ( 23662 PWs)   bands (ev):

   -16.4554 -15.6221 -15.1836 -14.6343 -14.5850 -14.5740  -5.8494  -5.0053
    -3.2978  -2.9348  -2.7565  -2.2927  -0.5338  -0.1210  -0.1067   0.1733
     0.5773   0.9503   1.1088   1.4323   1.5479   1.8391   2.2260   2.5367

          k = 0.0000 0.3849 0.2020 ( 23656 PWs)   bands (ev):

   -16.4059 -15.7252 -15.1397 -14.6297 -14.5872 -14.5696  -5.9437  -4.8076
    -3.4901  -2.9266  -2.6189  -2.3465  -0.5615  -0.2004   0.0042   0.1217
     0.5835   1.0218   1.1554   1.4091   1.5715   1.8731   2.1196   2.5446

          k = 0.0000 0.3849 0.3030 ( 23660 PWs)   bands (ev):

   -16.3306 -15.8524 -15.0929 -14.6359 -14.5856 -14.5634  -6.0225  -4.5834
    -3.6730  -2.9064  -2.5866  -2.3634  -0.5760  -0.3402   0.1422   0.1756
     0.5358   1.0853   1.1824   1.3957   1.6572   1.7755   2.1235   2.5050

          k = 0.0000 0.3849 0.4040 ( 23664 PWs)   bands (ev):

   -16.2528 -15.9616 -15.0596 -14.6468 -14.5829 -14.5596  -6.0642  -4.4094
    -3.8132  -2.8661  -2.6501  -2.3389  -0.5414  -0.4670   0.1936   0.2873
     0.4969   1.0992   1.1928   1.3760   1.6017   1.8909   2.1076   2.4423

          k = 0.0000 0.5132 0.0000 ( 23660 PWs)   bands (ev):

   -16.3131 -15.7670 -15.1813 -14.6461 -14.6049 -14.5786  -5.8285  -4.8650
    -3.3331  -2.9228  -2.8864  -2.1387  -0.4960  -0.2586  -0.0895   0.2666
     0.5200   0.8530   0.9439   1.4809   1.5476   1.7949   2.3178   2.5396

          k = 0.0000 0.5132 0.1010 ( 23666 PWs)   bands (ev):

   -16.3043 -15.7650 -15.1994 -14.6426 -14.6051 -14.5775  -5.8199  -4.8440
    -3.4302  -2.9311  -2.7820  -2.1704  -0.4870  -0.3183  -0.0520   0.1889
     0.6228   0.8094   1.0398   1.4341   1.5674   1.8397   2.2502   2.5384

          k = 0.0000 0.5132 0.2020 ( 23682 PWs)   bands (ev):

   -16.2785 -15.7697 -15.2320 -14.6436 -14.6060 -14.5717  -5.7961  -4.7886
    -3.6002  -2.9145  -2.6283  -2.2667  -0.5208  -0.4257   0.0527   0.1863
     0.6438   0.8687   1.1499   1.4229   1.5672   1.9084   2.1167   2.5064

          k = 0.0000 0.5132 0.3030 ( 23652 PWs)   bands (ev):

   -16.2448 -15.7833 -15.2613 -14.6556 -14.5978 -14.5673  -5.7672  -4.7201
    -3.7508  -2.8756  -2.5141  -2.3883  -0.5687  -0.5154   0.1229   0.2907
     0.5764   0.9858   1.2428   1.4684   1.5511   1.9261   1.9930   2.4553

          k = 0.0000 0.5132 0.4040 ( 23652 PWs)   bands (ev):

   -16.2187 -15.7998 -15.2742 -14.6667 -14.5903 -14.5661  -5.7472  -4.6702
    -3.8417  -2.8205  -2.5372  -2.4166  -0.5878  -0.5750   0.1581   0.4160
     0.5047   1.0515   1.2916   1.4462   1.6734   1.7699   2.0084   2.4082

          k = 0.1111 0.1925 0.0000 ( 23594 PWs)   bands (ev):

   -16.6648 -15.3575 -15.2192 -14.6177 -14.5685 -14.5511  -5.7418  -5.4512
    -2.9608  -2.9371  -2.8084  -2.5309  -0.4826  -0.2957  -0.0426   0.3383
     0.7396   1.0330   1.1171   1.4922   1.6249   1.7721   2.3268   2.3831

          k = 0.1111 0.1925 0.1010 ( 23631 PWs)   bands (ev):

   -16.6423 -15.5105 -15.0873 -14.6151 -14.5726 -14.5486  -5.9597  -5.1891
    -3.1145  -2.9054  -2.7327  -2.5234  -0.5125  -0.2357  -0.0205   0.3325
     0.6883   1.0619   1.0970   1.3891   1.6801   1.8014   2.2450   2.4705

          k = 0.1111 0.1925 0.2020 ( 23633 PWs)   bands (ev):

   -16.5757 -15.7239 -14.9368 -14.6087 -14.5809 -14.5443  -6.2167  -4.8038
    -3.3026  -2.9291  -2.7221  -2.4358  -0.5308  -0.1277   0.0101   0.3037
     0.6127   1.0378   1.1079   1.2579   1.6669   1.8693   2.2425   2.5220

          k = 0.1111 0.1925 0.3030 ( 23641 PWs)   bands (ev):

   -16.4681 -15.9368 -14.8262 -14.6073 -14.5837 -14.5410  -6.4022  -4.4187
    -3.5031  -2.9508  -2.8025  -2.3125  -0.4901  -0.0710  -0.0134   0.3053
     0.5750   0.9781   1.0863   1.2090   1.5562   2.0050   2.3025   2.4982

          k = 0.1111 0.1925 0.4040 ( 23651 PWs)   bands (ev):

   -16.3278 -16.1317 -14.7664 -14.6154 -14.5774 -14.5398  -6.4985  -4.0800
    -3.7271  -2.9430  -2.8892  -2.2365  -0.3859  -0.2262   0.0459   0.3596
     0.5392   0.9583   1.0199   1.2192   1.4752   2.1605   2.3122   2.4404

          k = 0.1111 0.3208 0.0000 ( 23639 PWs)   bands (ev):

   -16.5308 -15.5134 -15.2059 -14.6345 -14.5884 -14.5615  -5.7912  -5.1773
    -3.1684  -2.9325  -2.8048  -2.3499  -0.5254  -0.2559   0.0143   0.3997
     0.4536   0.9540   1.1141   1.3954   1.6436   1.7353   2.3343   2.4706

          k = 0.1111 0.3208 0.1010 ( 23632 PWs)   bands (ev):

   -16.5118 -15.5793 -15.1633 -14.6302 -14.5876 -14.5624  -5.8741  -5.0550
    -3.2804  -2.9148  -2.7296  -2.3647  -0.5356  -0.2096   0.0040   0.2596
     0.5371   0.9831   1.1369   1.3776   1.6134   1.8034   2.2433   2.5185

          k = 0.1111 0.3208 0.2020 ( 23644 PWs)   bands (ev):

   -16.4556 -15.7226 -15.0811 -14.6240 -14.5915 -14.5604  -6.0160  -4.8007
    -3.4656  -2.9096  -2.6252  -2.3949  -0.5687  -0.1109  -0.0532   0.2031
     0.5665   1.0357   1.1238   1.3645   1.6648   1.8021   2.1760   2.5309

          k = 0.1111 0.3208 0.3030 ( 23666 PWs)   bands (ev):

   -16.3678 -15.8822 -15.0112 -14.6276 -14.5883 -14.5592  -6.1291  -4.5226
    -3.6556  -2.8966  -2.6442  -2.3582  -0.5667  -0.2419   0.0562   0.2349
     0.5537   1.0421   1.1532   1.3516   1.6702   1.8113   2.1924   2.4824

          k = 0.1111 0.3208 0.4040 ( 23655 PWs)   bands (ev):

   -16.2684 -16.0210 -14.9692 -14.6369 -14.5811 -14.5601  -6.1887  -4.2955
    -3.8230  -2.8579  -2.7277  -2.3120  -0.5143  -0.3874   0.1624   0.2501
     0.5461   1.0308   1.1670   1.3588   1.5553   1.9855   2.1828   2.4071

          k = 0.1111 0.4491 0.0000 ( 23656 PWs)   bands (ev):

   -16.3605 -15.7081 -15.1938 -14.6435 -14.6016 -14.5746  -5.8332  -4.8824
    -3.3997  -2.9078  -2.8205  -2.1755  -0.5057  -0.2352  -0.0747   0.2837
     0.5111   0.8676   1.0111   1.3726   1.5620   1.8364   2.3116   2.5334

          k = 0.1111 0.4491 0.1010 ( 23672 PWs)   bands (ev):

   -16.3486 -15.7168 -15.2033 -14.6396 -14.6027 -14.5739  -5.8346  -4.8499
    -3.4777  -2.9133  -2.7413  -2.2032  -0.5066  -0.2305  -0.1073   0.2236
     0.5792   0.8612   1.1066   1.3488   1.5525   1.8846   2.2325   2.5395

          k = 0.1111 0.4491 0.2020 ( 23655 PWs)   bands (ev):

   -16.3136 -15.7532 -15.2100 -14.6376 -14.6075 -14.5695  -5.8350  -4.7647
    -3.6301  -2.9005  -2.6123  -2.2907  -0.5538  -0.3103  -0.0352   0.2329
     0.6013   0.9210   1.1756   1.3946   1.5535   1.9260   2.1061   2.5090

          k = 0.1111 0.4491 0.3030 ( 23647 PWs)   bands (ev):

   -16.2648 -15.8086 -15.2087 -14.6480 -14.6004 -14.5686  -5.8325  -4.6585
    -3.7783  -2.8631  -2.5328  -2.3866  -0.5938  -0.4157   0.0642   0.2974
     0.5690   0.9898   1.2349   1.4722   1.6022   1.8402   2.0645   2.4414

          k = 0.1111 0.4491 0.4040 ( 23654 PWs)   bands (ev):

   -16.2232 -15.8576 -15.2017 -14.6594 -14.5903 -14.5718  -5.8292  -4.5782
    -3.8761  -2.8031  -2.5853  -2.3952  -0.6044  -0.4873   0.1249   0.3581
     0.5472   1.0068   1.3036   1.4642   1.6714   1.7947   2.0532   2.3666

          k = 0.1111 0.5774 0.0000 ( 23670 PWs)   bands (ev):

   -16.2532 -15.8261 -15.1889 -14.6459 -14.6056 -14.5811  -5.8494  -4.7383
    -3.5159  -2.8818  -2.8437  -2.1018  -0.4468  -0.2987  -0.1520   0.3332
     0.5168   0.8777   0.8829   1.3981   1.5195   1.8853   2.2934   2.5556

          k = 0.1111 0.5774 0.1010 ( 23678 PWs)   bands (ev):

   -16.2476 -15.8185 -15.2052 -14.6442 -14.6123 -14.5765  -5.8258  -4.7359
    -3.5789  -2.9007  -2.7580  -2.1429  -0.4771  -0.3373  -0.1045   0.3153
     0.5768   0.8095   0.9923   1.3743   1.5653   1.8804   2.2628   2.5298

          k = 0.1111 0.5774 0.2020 ( 23679 PWs)   bands (ev):

   -16.2334 -15.7974 -15.2477 -14.6471 -14.6167 -14.5710  -5.7626  -4.7335
    -3.7087  -2.8880  -2.6244  -2.2525  -0.5431  -0.4079  -0.0206   0.3287
     0.6441   0.7957   1.1384   1.3700   1.6221   1.8826   2.1696   2.4644

          k = 0.1111 0.5774 0.3030 ( 23657 PWs)   bands (ev):

   -16.2168 -15.7695 -15.2993 -14.6605 -14.6071 -14.5704  -5.6832  -4.7398
    -3.8270  -2.8423  -2.5124  -2.3950  -0.6047  -0.4726   0.0506   0.3900
     0.6096   0.8750   1.2826   1.4185   1.6340   1.9179   2.0178   2.3881

          k = 0.1111 0.5774 0.4040 ( 23655 PWs)   bands (ev):

   -16.2056 -15.7479 -15.3360 -14.6707 -14.5953 -14.5748  -5.6254  -4.7515
    -3.8928  -2.7772  -2.5282  -2.4438  -0.6399  -0.5082   0.0871   0.4654
     0.5499   0.9356   1.3864   1.4775   1.6668   1.8261   1.9667   2.3341

          k = 0.2222 0.3849 0.0000 ( 23636 PWs)   bands (ev):

   -16.3781 -15.6820 -15.2044 -14.6417 -14.6012 -14.5714  -5.8414  -4.8666
    -3.4689  -2.9018  -2.7679  -2.1918  -0.4857  -0.2821  -0.0330   0.3388
     0.4536   0.8555   1.1865   1.1914   1.5684   1.8668   2.3026   2.5337

          k = 0.2222 0.3849 0.1010 ( 23653 PWs)   bands (ev):

   -16.3642 -15.7017 -15.2002 -14.6393 -14.6070 -14.5689  -5.8447  -4.8309
    -3.5334  -2.8955  -2.7135  -2.2268  -0.5273  -0.2224  -0.0851   0.3178
     0.5153   0.8705   1.1332   1.2796   1.5711   1.8756   2.2595   2.5239

          k = 0.2222 0.3849 0.2020 ( 23653 PWs)   bands (ev):

   -16.3249 -15.7556 -15.1889 -14.6368 -14.6151 -14.5663  -5.8510  -4.7370
    -3.6728  -2.8775  -2.6038  -2.3183  -0.5832  -0.2238  -0.0903   0.3130
     0.5917   0.8942   1.1433   1.3840   1.6014   1.8628   2.1830   2.4739

          k = 0.2222 0.3849 0.3030 ( 23672 PWs)   bands (ev):

   -16.2696 -15.8271 -15.1752 -14.6465 -14.6076 -14.5688  -5.8551  -4.6192
    -3.8175  -2.8363  -2.5429  -2.4062  -0.6095  -0.3464   0.0175   0.3217
     0.6180   0.9133   1.2278   1.4472   1.7143   1.7658   2.1503   2.3723

          k = 0.2222 0.3849 0.4040 ( 23672 PWs)   bands (ev):

   -16.2218 -15.8853 -15.1658 -14.6561 -14.5931 -14.5775  -5.8563  -4.5291
    -3.9169  -2.7656  -2.6258  -2.3944  -0.6078  -0.4304   0.0874   0.3260
     0.6161   0.9308   1.3232   1.4750   1.6331   1.8795   2.1150   2.2715

          k = 0.2222 0.5132 0.0000 ( 23671 PWs)   bands (ev):

   -16.2091 -15.8626 -15.2053 -14.6442 -14.6028 -14.5833  -5.8743  -4.5583
    -3.7625  -2.8582  -2.7794  -2.0741  -0.4158  -0.2911  -0.2168   0.4249
     0.5185   0.7781   0.9601   1.2857   1.4704   2.0003   2.2501   2.5680

          k = 0.2222 0.5132 0.1010 ( 23663 PWs)   bands (ev):

   -16.2078 -15.8483 -15.2220 -14.6423 -14.6140 -14.5768  -5.8414  -4.5740
    -3.7976  -2.8757  -2.7150  -2.1173  -0.4632  -0.2871  -0.2000   0.4109
     0.5582   0.7622   1.0581   1.2643   1.5050   1.9992   2.2135   2.5373

          k = 0.2222 0.5132 0.2020 ( 23666 PWs)   bands (ev):

   -16.2033 -15.8111 -15.2650 -14.6430 -14.6268 -14.5721  -5.7499  -4.6266
    -3.8723  -2.8659  -2.6083  -2.2340  -0.5544  -0.3237  -0.1281   0.4201
     0.6061   0.7759   1.2016   1.3048   1.5701   1.9796   2.1241   2.4486

          k = 0.2222 0.5132 0.3030 ( 23674 PWs)   bands (ev):

   -16.1977 -15.7618 -15.3211 -14.6586 -14.6179 -14.5756  -5.6248  -4.7172
    -3.9367  -2.8121  -2.5203  -2.3848  -0.6259  -0.3689  -0.0662   0.4544
     0.6180   0.8034   1.3289   1.4548   1.6371   1.9157   2.0242   2.3223

          k = 0.2222 0.5132 0.4040 ( 23672 PWs)   bands (ev):

   -16.1936 -15.7230 -15.3643 -14.6702 -14.6024 -14.5865  -5.5209  -4.8042
    -3.9686  -2.7222  -2.5527  -2.4524  -0.6620  -0.3960  -0.0354   0.4865
     0.6132   0.8184   1.4669   1.5620   1.7155   1.7855   1.9906   2.2001

          k = 0.3333 0.5774 0.0000 ( 23688 PWs)   bands (ev):

   -16.0360 -16.0360 -15.2122 -14.6439 -14.5946 -14.5945  -5.8919  -4.1672
    -4.1671  -2.8037  -2.8037  -2.0284  -0.3358  -0.3358  -0.2899   0.5379
     0.5379   0.7069   0.8710   1.3545   1.3545   2.1470   2.1470   2.5801

          k = 0.3333 0.5774 0.1010 ( 23652 PWs)   bands (ev):

   -16.0985 -15.9536 -15.2311 -14.6423 -14.6170 -14.5793  -5.8479  -4.3043
    -4.0841  -2.8553  -2.7123  -2.0780  -0.4505  -0.2728  -0.2585   0.5123
     0.6161   0.6416   0.9884   1.2875   1.4491   2.1099   2.1470   2.5384

          k = 0.3333 0.5774 0.2020 ( 23691 PWs)   bands (ev):

   -16.1419 -15.8522 -15.2868 -14.6418 -14.6364 -14.5740  -5.7211  -4.4997
    -4.0397  -2.8523  -2.6093  -2.2069  -0.5622  -0.2401  -0.2333   0.5563
     0.5895   0.6730   1.1890   1.3034   1.5448   2.0493   2.0974   2.4214

          k = 0.3333 0.5774 0.3030 ( 23673 PWs)   bands (ev):

   -16.1686 -15.7357 -15.3749 -14.6629 -14.6248 -14.5790  -5.5249  -4.7421
    -4.0178  -2.7943  -2.5246  -2.3741  -0.6424  -0.2323  -0.2214   0.5930
     0.6186   0.6687   1.3999   1.4261   1.6378   1.9782   1.9948   2.2533

          k = 0.3333 0.5774 0.4040 ( 23694 PWs)   bands (ev):

   -16.1811 -15.6107 -15.4867 -14.6751 -14.6087 -14.5919  -5.2799  -5.0104
    -4.0089  -2.6878  -2.5426  -2.4783  -0.6817  -0.2297  -0.2223   0.6261
     0.6451   0.6463   1.5843   1.5891   1.6853   1.8600   1.9530   2.0729

          k = 0.0000 0.1283-0.1010 ( 23611 PWs)   bands (ev):

   -16.7124 -15.4894 -15.0341 -14.6002 -14.5615 -14.5400  -6.0386  -5.2339
    -3.0240  -2.9100  -2.7721  -2.5686  -0.4657  -0.2414  -0.0636   0.2693
     0.8989   1.0593   1.1034   1.3953   1.6527   1.8907   2.2388   2.4230

          k = 0.0000 0.1283-0.2020 ( 23624 PWs)   bands (ev):

   -16.6417 -15.7300 -14.8541 -14.5956 -14.5721 -14.5332  -6.3440  -4.7936
    -3.1883  -2.9584  -2.8332  -2.4140  -0.4738  -0.1382  -0.0135   0.3340
     0.7436   1.0026   1.1136   1.1921   1.5923   1.9766   2.2911   2.4996

          k = 0.0000 0.1283-0.3030 ( 23655 PWs)   bands (ev):

   -16.5267 -15.9643 -14.7227 -14.5881 -14.5845 -14.5281  -6.5610  -4.3618
    -3.3823  -3.0062  -2.9220  -2.2748  -0.4090  -0.0579   0.0003   0.3866
     0.6295   0.9173   0.9990   1.1296   1.4873   2.1086   2.3812   2.4972

          k = 0.0000 0.1283-0.4040 ( 23669 PWs)   bands (ev):

   -16.3719 -16.1804 -14.6504 -14.5990 -14.5789 -14.5256  -6.6738  -3.9705
    -3.6329  -3.0280  -2.9920  -2.1919  -0.2747  -0.1077  -0.0177   0.4501
     0.5674   0.8644   0.8938   1.1207   1.4240   2.2556   2.3972   2.4605

          k = 0.0000 0.2566-0.1010 ( 23642 PWs)   bands (ev):

   -16.6083 -15.5308 -15.0996 -14.6214 -14.5831 -14.5500  -5.9285  -5.1639
    -3.1389  -2.8955  -2.7503  -2.4966  -0.5557  -0.1931  -0.0258   0.3805
     0.6485   1.0287   1.0395   1.4284   1.6328   1.8046   2.2803   2.4603

          k = 0.0000 0.2566-0.2020 ( 23649 PWs)   bands (ev):

   -16.5436 -15.7270 -14.9640 -14.6138 -14.5952 -14.5455  -6.1592  -4.8080
    -3.3363  -2.9206  -2.6713  -2.4678  -0.5708  -0.1153   0.0043   0.3350
     0.6193   0.9805   1.0850   1.3008   1.6614   1.8582   2.2661   2.4899

          k = 0.0000 0.2566-0.3030 ( 23643 PWs)   bands (ev):

   -16.4398 -15.9266 -14.8652 -14.6157 -14.5940 -14.5426  -6.3286  -4.4473
    -3.5402  -2.9382  -2.7419  -2.3486  -0.5297  -0.1273   0.0154   0.3271
     0.5924   0.9635   1.0830   1.2456   1.5783   1.9784   2.3319   2.4324

          k = 0.0000 0.2566-0.4040 ( 23667 PWs)   bands (ev):

   -16.3087 -16.1072 -14.8168 -14.6241 -14.5818 -14.5422  -6.4171  -4.1399
    -3.7479  -2.9333  -2.8254  -2.2640  -0.4311  -0.2795   0.0718   0.3669
     0.5300   0.9779   1.0556   1.2520   1.4979   2.1269   2.2938   2.4086

          k = 0.0000 0.3849-0.1010 ( 23662 PWs)   bands (ev):

   -16.4534 -15.6384 -15.1581 -14.6381 -14.6037 -14.5630  -5.8466  -5.0055
    -3.2929  -2.8872  -2.8015  -2.3189  -0.5923  -0.1824   0.0082   0.3274
     0.5393   0.9382   0.9692   1.4869   1.6036   1.7425   2.3344   2.4720

          k = 0.0000 0.3849-0.2020 ( 23656 PWs)   bands (ev):

   -16.4020 -15.7448 -15.1067 -14.6356 -14.6101 -14.5586  -5.9401  -4.8062
    -3.4897  -2.8913  -2.6263  -2.4044  -0.6214  -0.2039   0.0391   0.2877
     0.6287   0.9054   1.0397   1.4315   1.6666   1.7685   2.2852   2.4408

          k = 0.0000 0.3849-0.3030 ( 23660 PWs)   bands (ev):

   -16.3250 -15.8685 -15.0666 -14.6443 -14.6004 -14.5565  -6.0197  -4.5796
    -3.6779  -2.8791  -2.5669  -2.4339  -0.6110  -0.3184   0.1029   0.3039
     0.6096   0.9686   1.1155   1.3769   1.6514   1.8617   2.2468   2.3757

          k = 0.0000 0.3849-0.4040 ( 23664 PWs)   bands (ev):

   -16.2487 -15.9694 -15.0496 -14.6507 -14.5880 -14.5571  -6.0631  -4.4064
    -3.8172  -2.8532  -2.6503  -2.3604  -0.5587  -0.4501   0.1748   0.3208
     0.5385   1.0546   1.1692   1.3604   1.5876   2.0025   2.0996   2.3894

          k = 0.0000 0.5132-0.1010 ( 23666 PWs)   bands (ev):

   -16.3021 -15.7733 -15.1878 -14.6448 -14.6123 -14.5736  -5.8186  -4.8437
    -3.4283  -2.9077  -2.8061  -2.1823  -0.5380  -0.2959  -0.0205   0.2792
     0.5600   0.8350   0.9624   1.4562   1.6303   1.7558   2.3110   2.5074

          k = 0.0000 0.5132-0.2020 ( 23682 PWs)   bands (ev):

   -16.2747 -15.7837 -15.2139 -14.6479 -14.6133 -14.5681  -5.7941  -4.7873
    -3.6011  -2.8943  -2.6431  -2.2878  -0.5837  -0.3762   0.0555   0.2819
     0.6673   0.7978   1.0745   1.4374   1.6772   1.7724   2.2369   2.4495

          k = 0.0000 0.5132-0.3030 ( 23652 PWs)   bands (ev):

   -16.2407 -15.7971 -15.2449 -14.6601 -14.6024 -14.5652  -5.7655  -4.7180
    -3.7541  -2.8589  -2.5081  -2.4230  -0.6089  -0.4778   0.1236   0.3349
     0.6233   0.9142   1.1906   1.4283   1.6424   1.8726   2.0968   2.4000

          k = 0.0000 0.5132-0.4040 ( 23652 PWs)   bands (ev):

   -16.2168 -15.8057 -15.2676 -14.6686 -14.5920 -14.5653  -5.7465  -4.6689
    -3.8436  -2.8122  -2.5366  -2.4298  -0.6061  -0.5565   0.1606   0.4082
     0.5419   1.0240   1.2778   1.4242   1.6430   1.9007   1.9650   2.3869

          k =-0.1111 0.3208-0.1010 ( 23632 PWs)   bands (ev):

   -16.5110 -15.5878 -15.1498 -14.6321 -14.5958 -14.5583  -5.8727  -5.0553
    -3.2772  -2.8992  -2.7411  -2.3809  -0.5679  -0.2034   0.0240   0.3363
     0.5277   0.9714   1.0577   1.4133   1.6346   1.7657   2.2922   2.4881

          k =-0.1111 0.3208-0.2020 ( 23644 PWs)   bands (ev):

   -16.4540 -15.7313 -15.0646 -14.6263 -14.6039 -14.5555  -6.0143  -4.8001
    -3.4647  -2.8948  -2.6172  -2.4332  -0.5983  -0.1386  -0.0059   0.2773
     0.5956   0.9704   1.0746   1.3796   1.6851   1.7807   2.2438   2.4827

          k =-0.1111 0.3208-0.3030 ( 23666 PWs)   bands (ev):

   -16.3654 -15.8890 -14.9976 -14.6318 -14.5975 -14.5551  -6.1278  -4.5208
    -3.6576  -2.8847  -2.6360  -2.3905  -0.5833  -0.2368   0.0555   0.2813
     0.6000   0.9713   1.1359   1.3433   1.6462   1.8676   2.2611   2.4081

          k =-0.1111 0.3208-0.4040 ( 23655 PWs)   bands (ev):

   -16.2662 -16.0247 -14.9638 -14.6392 -14.5850 -14.5580  -6.1882  -4.2936
    -3.8252  -2.8515  -2.7282  -2.3224  -0.5215  -0.3811   0.1494   0.2719
     0.5694   1.0040   1.1607   1.3502   1.5526   2.0188   2.2114   2.3627

          k =-0.1111 0.4491-0.1010 ( 23672 PWs)   bands (ev):

   -16.3466 -15.7270 -15.1885 -14.6426 -14.6105 -14.5699  -5.8330  -4.8496
    -3.4750  -2.8959  -2.7583  -2.2192  -0.5566  -0.2282  -0.0515   0.3194
     0.5367   0.8837   0.9753   1.3974   1.6031   1.8062   2.3069   2.5029

          k =-0.1111 0.4491-0.2020 ( 23655 PWs)   bands (ev):

   -16.3097 -15.7690 -15.1881 -14.6436 -14.6154 -14.5658  -5.8327  -4.7632
    -3.6306  -2.8803  -2.6215  -2.3211  -0.6035  -0.2833  -0.0075   0.3226
     0.6344   0.8404   1.0786   1.4132   1.6677   1.7857   2.2512   2.4380

          k =-0.1111 0.4491-0.3030 ( 23647 PWs)   bands (ev):

   -16.2601 -15.8230 -15.1903 -14.6544 -14.6057 -14.5658  -5.8305  -4.6557
    -3.7821  -2.8446  -2.5156  -2.4370  -0.6205  -0.3941   0.0733   0.3384
     0.6381   0.8885   1.2023   1.4213   1.6863   1.8212   2.1693   2.3563

          k =-0.1111 0.4491-0.4040 ( 23654 PWs)   bands (ev):

   -16.2207 -15.8637 -15.1946 -14.6620 -14.5929 -14.5702  -5.8284  -4.5765
    -3.8785  -2.7930  -2.5858  -2.4103  -0.6116  -0.4805   0.1282   0.3597
     0.5842   0.9676   1.3041   1.4323   1.6323   1.9266   2.0303   2.3314

          k =-0.2222 0.5132-0.1010 ( 23663 PWs)   bands (ev):

   -16.2068 -15.8506 -15.2194 -14.6431 -14.6149 -14.5764  -5.8412  -4.5738
    -3.7974  -2.8742  -2.7162  -2.1205  -0.4827  -0.2662  -0.1986   0.4398
     0.5351   0.7787   1.0112   1.2862   1.5118   1.9805   2.2335   2.5314

          k =-0.2222 0.5132-0.2020 ( 23666 PWs)   bands (ev):

   -16.2019 -15.8150 -15.2607 -14.6453 -14.6266 -14.5718  -5.7495  -4.6261
    -3.8728  -2.8633  -2.6091  -2.2394  -0.5668  -0.3135  -0.1226   0.4384
     0.6182   0.7531   1.1668   1.3213   1.5914   1.9367   2.1720   2.4329

          k =-0.2222 0.5132-0.3030 ( 23674 PWs)   bands (ev):

   -16.1965 -15.7659 -15.3166 -14.6603 -14.6180 -14.5754  -5.6244  -4.7165
    -3.9376  -2.8091  -2.5179  -2.3930  -0.6303  -0.3663  -0.0613   0.4552
     0.6628   0.7559   1.3384   1.4206   1.6759   1.8729   2.0787   2.2980

          k =-0.2222 0.5132-0.4040 ( 23672 PWs)   bands (ev):

   -16.1931 -15.7250 -15.3622 -14.6708 -14.6027 -14.5863  -5.5207  -4.8039
    -3.9690  -2.7198  -2.5523  -2.4562  -0.6627  -0.3959  -0.0334   0.4815
     0.6339   0.8012   1.4947   1.5230   1.6798   1.8578   1.9778   2.1884

     highest occupied level (ev):     2.5801

!    total energy              =    -215.93573347 Ry
     estimated scf accuracy    <       0.00000003 Ry

     The total energy is the sum of the following terms:
     one-electron contribution =    -103.42195866 Ry
     hartree contribution      =      77.24810330 Ry
     xc contribution           =     -50.79927449 Ry
     ewald contribution        =    -138.96260361 Ry

     convergence has been achieved in   8 iterations

     Writing all to output data dir ./quartz-scf-us/quartz.save/ :
     XML data file, charge density, pseudopotentials, collected wavefunctions

     init_run     :      1.49s CPU      1.56s WALL (       1 calls)
     electrons    :     15.00s CPU     15.42s WALL (       1 calls)

     Called by init_run:
     wfcinit      :      1.18s CPU      1.20s WALL (       1 calls)
     potinit      :      0.02s CPU      0.04s WALL (       1 calls)
     hinit0       :      0.18s CPU      0.20s WALL (       1 calls)

     Called by electrons:
     c_bands      :     12.97s CPU     13.26s WALL (       9 calls)
     sum_band     :      1.86s CPU      1.90s WALL (       9 calls)
     v_of_rho     :      0.11s CPU      0.13s WALL (       9 calls)
     newd         :      0.02s CPU      0.03s WALL (       9 calls)
     mix_rho      :      0.02s CPU      0.02s WALL (       9 calls)

     Called by c_bands:
     init_us_2    :      0.18s CPU      0.19s WALL (     418 calls)
     cegterg      :     12.47s CPU     12.67s WALL (     198 calls)

     Called by *egterg:
     cdiaghg      :      0.75s CPU      0.75s WALL (     734 calls)
     h_psi        :     11.26s CPU     11.44s WALL (     778 calls)
     s_psi        :      0.33s CPU      0.34s WALL (     778 calls)
     g_psi        :      0.03s CPU      0.03s WALL (     558 calls)

     Called by h_psi:
     h_psi:calbec :      0.51s CPU      0.51s WALL (     778 calls)
     vloc_psi     :     10.33s CPU     10.50s WALL (     778 calls)
     add_vuspsi   :      0.37s CPU      0.37s WALL (     778 calls)

     General routines
     calbec       :      0.63s CPU      0.63s WALL (     976 calls)
     fft          :      0.19s CPU      0.21s WALL (      99 calls)
     ffts         :      0.00s CPU      0.01s WALL (       9 calls)
     fftw         :     10.86s CPU     11.04s WALL (   35624 calls)

     Parallel routines

     PWSCF        :     17.42s CPU     19.34s WALL


   This run was terminated on:  14:45:39   4Feb2026            

=------------------------------------------------------------------------------=
   JOB DONE.
=------------------------------------------------------------------------------=
