
     Program BANDS v.7.3.1 starts on 24Feb2026 at 10:20: 9 

     This program is part of the open-source Quantum ESPRESSO suite
     for quantum simulation of materials; please cite
         "P. Giannozzi et al., J. Phys.:Condens. Matter 21 395502 (2009);
         "P. Giannozzi et al., J. Phys.:Condens. Matter 29 465901 (2017);
         "P. Giannozzi et al., J. Chem. Phys. 152 154105 (2020);
          URL http://www.quantum-espresso.org", 
     in publications or presentations arising from this work. More details at
     http://www.quantum-espresso.org/quote

     Parallel version (MPI), running on     1 processors

     MPI processes distributed on     1 nodes
     232518 MiB available memory on the printing compute node when the environment starts


     Reading xml data from directory:

     ./quartz-bands/quartz.save/
     WARNING: atomic wfc #  2 for atom typeSi has zero norm
     WARNING: atomic wfc #  2 for atom typeO has zero norm
     WARNING: atomic wfc #  4 for atom typeO has zero norm
     WARNING: atomic wfc #  5 for atom typeO has zero norm

     IMPORTANT: XC functional enforced from input :
     Exchange-correlation= PBE
                           (   1   4   3   4   0   0   0)
     Any further DFT definition will be discarded
     Please, verify this is what you really want


     G-vector sticks info
     --------------------
     sticks:   dense  smooth     PW     G-vecs:    dense   smooth      PW
     Sum        3571    3571    967               189349   189349   26903

     Using Slab Decomposition

     Reading collected, re-writing distributed wavefunctions
     high-symmetry point:  0.0000 0.0000 0.0000   x coordinate   0.0000
     high-symmetry point:  0.5000 0.2887 0.0000   x coordinate   0.5774
     high-symmetry point:  0.3333 0.5773 0.0000   x coordinate   0.9107
     high-symmetry point:  0.0000 0.0000 0.0000   x coordinate   1.5773
     high-symmetry point:  0.0000 0.0000 0.4545   x coordinate   2.0319
     high-symmetry point:  0.5000 0.2887 0.4545   x coordinate   2.6092
     high-symmetry point:  0.3333 0.5773 0.4545   x coordinate   2.9426
     high-symmetry point:  0.0000 0.0000 0.0000   x coordinate   3.7494

     Plottable bands (eV) written to file quartz-bands.dat.gnu
     Bands written to file quartz-bands.dat

 **************************************************************************

                    xk=(   0.00000,   0.00000,   0.00000  )

     point group D_3 (32)   
     there are  3 classes
     the character table:

       E     2C3   3C2' 
A_1    1.00  1.00  1.00
A_2    1.00  1.00 -1.00
E      2.00 -1.00  0.00

     the symmetry operations in each class and the name of the first element:

     E        1
                                                                 
     2C3      3    4
                                                                 
     3C2'     2    5    6
                                                                 

     Band symmetry, D_3 (32)    point group:

     e(  1 -  1) =    -16.77258  eV     1   --> A_1            
     e(  2 -  3) =    -15.23368  eV     2   --> E              
     e(  4 -  4) =    -14.58966  eV     1   --> A_2            
     e(  5 -  6) =    -14.54384  eV     2   --> E              
     e(  7 -  8) =     -5.69187  eV     2   --> E              
     e(  9 -  9) =     -2.90756  eV     1   --> A_2            
     e( 10 - 10) =     -2.88937  eV     1   --> A_1            
     e( 11 - 12) =     -2.71671  eV     2   --> E              
     e( 13 - 14) =     -0.35052  eV     2   --> E              
     e( 15 - 15) =     -0.09819  eV     1   --> A_1            
     e( 16 - 16) =      0.15518  eV     1   --> A_2            
     e( 17 - 18) =      1.08573  eV     2   --> E              
     e( 19 - 19) =      1.11438  eV     1   --> A_2            
     e( 20 - 21) =      1.59415  eV     2   --> E              
     e( 22 - 22) =      1.90537  eV     1   --> A_1            
     e( 23 - 24) =      2.27006  eV     2   --> E              
     e( 25 - 25) =      8.69652  eV     1   --> A_1            
     e( 26 - 27) =     12.00936  eV     2   --> E              
     e( 28 - 29) =     12.46479  eV     2   --> E              
     e( 30 - 30) =     13.75678  eV     1   --> A_1            
     e( 31 - 31) =     14.33144  eV     1   --> A_2            
     e( 32 - 32) =     14.93947  eV     1   --> A_1            
     e( 33 - 34) =     15.36689  eV     2   --> E              
     e( 35 - 36) =     16.00102  eV     2   --> E              

 **************************************************************************

 **************************************************************************

                    xk=(   0.01000,   0.00577,   0.00000  )

     point group C_1 (1)    
     there are  1 classes
     the character table:

       E    
A      1.00

     the symmetry operations in each class and the name of the first element:

     E        1
                                                                 

     Band symmetry, C_1 (1)     point group:

     e(  1 -  1) =    -16.77228  eV     1   --> A              
     e(  2 -  2) =    -15.23401  eV     1   --> A              
     e(  3 -  3) =    -15.23363  eV     1   --> A              
     e(  4 -  4) =    -14.58977  eV     1   --> A              
     e(  5 -  6) =    -14.54391  eV     2   -->   2 A              
     e(  7 -  7) =     -5.69202  eV     1   --> A              
     e(  8 -  8) =     -5.69118  eV     1   --> A              
     e(  9 -  9) =     -2.90777  eV     1   --> A              
     e( 10 - 10) =     -2.88932  eV     1   --> A              
     e( 11 - 11) =     -2.71720  eV     1   --> A              
     e( 12 - 12) =     -2.71605  eV     1   --> A              
     e( 13 - 13) =     -0.35120  eV     1   --> A              
     e( 14 - 14) =     -0.35029  eV     1   --> A              
     e( 15 - 15) =     -0.09806  eV     1   --> A              
     e( 16 - 16) =      0.15605  eV     1   --> A              
     e( 17 - 17) =      1.08469  eV     1   --> A              
     e( 18 - 18) =      1.08566  eV     1   --> A              
     e( 19 - 19) =      1.11432  eV     1   --> A              
     e( 20 - 20) =      1.59385  eV     1   --> A              
     e( 21 - 21) =      1.59414  eV     1   --> A              
     e( 22 - 22) =      1.90487  eV     1   --> A              
     e( 23 - 24) =      2.27037  eV     2   -->   2 A              
     e( 25 - 25) =      8.69811  eV     1   --> A              
     e( 26 - 26) =     12.00925  eV     1   --> A              
     e( 27 - 27) =     12.00960  eV     1   --> A              
     e( 28 - 28) =     12.46483  eV     1   --> A              
     e( 29 - 29) =     12.46534  eV     1   --> A              
     e( 30 - 30) =     13.75727  eV     1   --> A              
     e( 31 - 31) =     14.32986  eV     1   --> A              
     e( 32 - 32) =     14.93899  eV     1   --> A              
     e( 33 - 33) =     15.36497  eV     1   --> A              
     e( 34 - 34) =     15.36533  eV     1   --> A              
     e( 35 - 35) =     16.00295  eV     1   --> A              
     e( 36 - 36) =     16.00372  eV     1   --> A              

 **************************************************************************

 **************************************************************************

                    xk=(   0.02000,   0.01155,   0.00000  )

     Band symmetry, C_1 (1)     point group:

     e(  1 -  1) =    -16.77137  eV     1   --> A              
     e(  2 -  2) =    -15.23501  eV     1   --> A              
     e(  3 -  3) =    -15.23349  eV     1   --> A              
     e(  4 -  4) =    -14.59008  eV     1   --> A              
     e(  5 -  5) =    -14.54413  eV     1   --> A              
     e(  6 -  6) =    -14.54389  eV     1   --> A              
     e(  7 -  7) =     -5.69246  eV     1   --> A              
     e(  8 -  8) =     -5.68911  eV     1   --> A              
     e(  9 -  9) =     -2.90840  eV     1   --> A              
     e( 10 - 10) =     -2.88918  eV     1   --> A              
     e( 11 - 11) =     -2.71870  eV     1   --> A              
     e( 12 - 12) =     -2.71409  eV     1   --> A              
     e( 13 - 13) =     -0.35325  eV     1   --> A              
     e( 14 - 14) =     -0.34965  eV     1   --> A              
     e( 15 - 15) =     -0.09769  eV     1   --> A              
     e( 16 - 16) =      0.15864  eV     1   --> A              
     e( 17 - 17) =      1.08157  eV     1   --> A              
     e( 18 - 18) =      1.08543  eV     1   --> A              
     e( 19 - 19) =      1.11413  eV     1   --> A              
     e( 20 - 20) =      1.59295  eV     1   --> A              
     e( 21 - 21) =      1.59407  eV     1   --> A              
     e( 22 - 22) =      1.90338  eV     1   --> A              
     e( 23 - 23) =      2.27129  eV     1   --> A              
     e( 24 - 24) =      2.27165  eV     1   --> A              
     e( 25 - 25) =      8.70289  eV     1   --> A              
     e( 26 - 26) =     12.00888  eV     1   --> A              
     e( 27 - 27) =     12.01030  eV     1   --> A              
     e( 28 - 28) =     12.46498  eV     1   --> A              
     e( 29 - 29) =     12.46700  eV     1   --> A              
     e( 30 - 30) =     13.75872  eV     1   --> A              
     e( 31 - 31) =     14.32511  eV     1   --> A              
     e( 32 - 32) =     14.93755  eV     1   --> A              
     e( 33 - 33) =     15.35930  eV     1   --> A              
     e( 34 - 34) =     15.36078  eV     1   --> A              
     e( 35 - 35) =     16.00858  eV     1   --> A              
     e( 36 - 36) =     16.01163  eV     1   --> A              

 **************************************************************************

 **************************************************************************

                    xk=(   0.03000,   0.01732,   0.00000  )

     Band symmetry, C_1 (1)     point group:

     e(  1 -  1) =    -16.76987  eV     1   --> A              
     e(  2 -  2) =    -15.23668  eV     1   --> A              
     e(  3 -  3) =    -15.23324  eV     1   --> A              
     e(  4 -  4) =    -14.59060  eV     1   --> A              
     e(  5 -  5) =    -14.54451  eV     1   --> A              
     e(  6 -  6) =    -14.54397  eV     1   --> A              
     e(  7 -  7) =     -5.69319  eV     1   --> A              
     e(  8 -  8) =     -5.68566  eV     1   --> A              
     e(  9 -  9) =     -2.90943  eV     1   --> A              
     e( 10 - 10) =     -2.88896  eV     1   --> A              
     e( 11 - 11) =     -2.72118  eV     1   --> A              
     e( 12 - 12) =     -2.71086  eV     1   --> A              
     e( 13 - 13) =     -0.35660  eV     1   --> A              
     e( 14 - 14) =     -0.34857  eV     1   --> A              
     e( 15 - 15) =     -0.09707  eV     1   --> A              
     e( 16 - 16) =      0.16287  eV     1   --> A              
     e( 17 - 17) =      1.07637  eV     1   --> A              
     e( 18 - 18) =      1.08506  eV     1   --> A              
     e( 19 - 19) =      1.11382  eV     1   --> A              
     e( 20 - 20) =      1.59145  eV     1   --> A              
     e( 21 - 21) =      1.59396  eV     1   --> A              
     e( 22 - 22) =      1.90091  eV     1   --> A              
     e( 23 - 23) =      2.27279  eV     1   --> A              
     e( 24 - 24) =      2.27360  eV     1   --> A              
     e( 25 - 25) =      8.71083  eV     1   --> A              
     e( 26 - 26) =     12.00827  eV     1   --> A              
     e( 27 - 27) =     12.01147  eV     1   --> A              
     e( 28 - 28) =     12.46526  eV     1   --> A              
     e( 29 - 29) =     12.46975  eV     1   --> A              
     e( 30 - 30) =     13.76109  eV     1   --> A              
     e( 31 - 31) =     14.31723  eV     1   --> A              
     e( 32 - 32) =     14.93514  eV     1   --> A              
     e( 33 - 33) =     15.35026  eV     1   --> A              
     e( 34 - 34) =     15.35366  eV     1   --> A              
     e( 35 - 35) =     16.01750  eV     1   --> A              
     e( 36 - 36) =     16.02424  eV     1   --> A              

 **************************************************************************

 **************************************************************************

                    xk=(   0.04000,   0.02309,   0.00000  )

     Band symmetry, C_1 (1)     point group:

     e(  1 -  1) =    -16.76777  eV     1   --> A              
     e(  2 -  2) =    -15.23902  eV     1   --> A              
     e(  3 -  3) =    -15.23290  eV     1   --> A              
     e(  4 -  4) =    -14.59132  eV     1   --> A              
     e(  5 -  5) =    -14.54503  eV     1   --> A              
     e(  6 -  6) =    -14.54408  eV     1   --> A              
     e(  7 -  7) =     -5.69421  eV     1   --> A              
     e(  8 -  8) =     -5.68085  eV     1   --> A              
     e(  9 -  9) =     -2.91080  eV     1   --> A              
     e( 10 - 10) =     -2.88868  eV     1   --> A              
     e( 11 - 11) =     -2.72462  eV     1   --> A              
     e( 12 - 12) =     -2.70639  eV     1   --> A              
     e( 13 - 13) =     -0.36117  eV     1   --> A              
     e( 14 - 14) =     -0.34705  eV     1   --> A              
     e( 15 - 15) =     -0.09620  eV     1   --> A              
     e( 16 - 16) =      0.16864  eV     1   --> A              
     e( 17 - 17) =      1.06912  eV     1   --> A              
     e( 18 - 18) =      1.08451  eV     1   --> A              
     e( 19 - 19) =      1.11341  eV     1   --> A              
     e( 20 - 20) =      1.58940  eV     1   --> A              
     e( 21 - 21) =      1.59382  eV     1   --> A              
     e( 22 - 22) =      1.89752  eV     1   --> A              
     e( 23 - 23) =      2.27484  eV     1   --> A              
     e( 24 - 24) =      2.27630  eV     1   --> A              
     e( 25 - 25) =      8.72191  eV     1   --> A              
     e( 26 - 26) =     12.00746  eV     1   --> A              
     e( 27 - 27) =     12.01310  eV     1   --> A              
     e( 28 - 28) =     12.46570  eV     1   --> A              
     e( 29 - 29) =     12.47359  eV     1   --> A              
     e( 30 - 30) =     13.76429  eV     1   --> A              
     e( 31 - 31) =     14.30629  eV     1   --> A              
     e( 32 - 32) =     14.93173  eV     1   --> A              
     e( 33 - 33) =     15.33834  eV     1   --> A              
     e( 34 - 34) =     15.34458  eV     1   --> A              
     e( 35 - 35) =     16.02907  eV     1   --> A              
     e( 36 - 36) =     16.04076  eV     1   --> A              

 **************************************************************************

 **************************************************************************

                    xk=(   0.05000,   0.02887,   0.00000  )

     Band symmetry, C_1 (1)     point group:

     e(  1 -  1) =    -16.76508  eV     1   --> A              
     e(  2 -  2) =    -15.24204  eV     1   --> A              
     e(  3 -  3) =    -15.23246  eV     1   --> A              
     e(  4 -  4) =    -14.59223  eV     1   --> A              
     e(  5 -  5) =    -14.54570  eV     1   --> A              
     e(  6 -  6) =    -14.54422  eV     1   --> A              
     e(  7 -  7) =     -5.69552  eV     1   --> A              
     e(  8 -  8) =     -5.67468  eV     1   --> A              
     e(  9 -  9) =     -2.91246  eV     1   --> A              
     e( 10 - 10) =     -2.88835  eV     1   --> A              
     e( 11 - 11) =     -2.72903  eV     1   --> A              
     e( 12 - 12) =     -2.70075  eV     1   --> A              
     e( 13 - 13) =     -0.36683  eV     1   --> A              
     e( 14 - 14) =     -0.34511  eV     1   --> A              
     e( 15 - 15) =     -0.09508  eV     1   --> A              
     e( 16 - 16) =      0.17583  eV     1   --> A              
     e( 17 - 17) =      1.05984  eV     1   --> A              
     e( 18 - 18) =      1.08377  eV     1   --> A              
     e( 19 - 19) =      1.11292  eV     1   --> A              
     e( 20 - 20) =      1.58681  eV     1   --> A              
     e( 21 - 21) =      1.59365  eV     1   --> A              
     e( 22 - 22) =      1.89326  eV     1   --> A              
     e( 23 - 23) =      2.27738  eV     1   --> A              
     e( 24 - 24) =      2.27972  eV     1   --> A              
     e( 25 - 25) =      8.73610  eV     1   --> A              
     e( 26 - 26) =     12.00647  eV     1   --> A              
     e( 27 - 27) =     12.01516  eV     1   --> A              
     e( 28 - 28) =     12.46635  eV     1   --> A              
     e( 29 - 29) =     12.47849  eV     1   --> A              
     e( 30 - 30) =     13.76821  eV     1   --> A              
     e( 31 - 31) =     14.29236  eV     1   --> A              
     e( 32 - 32) =     14.92729  eV     1   --> A              
     e( 33 - 33) =     15.32417  eV     1   --> A              
     e( 34 - 34) =     15.33421  eV     1   --> A              
     e( 35 - 35) =     16.04253  eV     1   --> A              
     e( 36 - 36) =     16.06025  eV     1   --> A              

 **************************************************************************

 **************************************************************************

                    xk=(   0.06000,   0.03464,   0.00000  )

     Band symmetry, C_1 (1)     point group:

     e(  1 -  1) =    -16.76179  eV     1   --> A              
     e(  2 -  2) =    -15.24572  eV     1   --> A              
     e(  3 -  3) =    -15.23193  eV     1   --> A              
     e(  4 -  4) =    -14.59331  eV     1   --> A              
     e(  5 -  5) =    -14.54650  eV     1   --> A              
     e(  6 -  6) =    -14.54441  eV     1   --> A              
     e(  7 -  7) =     -5.69709  eV     1   --> A              
     e(  8 -  8) =     -5.66717  eV     1   --> A              
     e(  9 -  9) =     -2.91436  eV     1   --> A              
     e( 10 - 10) =     -2.88800  eV     1   --> A              
     e( 11 - 11) =     -2.73435  eV     1   --> A              
     e( 12 - 12) =     -2.69399  eV     1   --> A              
     e( 13 - 13) =     -0.37346  eV     1   --> A              
     e( 14 - 14) =     -0.34274  eV     1   --> A              
     e( 15 - 15) =     -0.09371  eV     1   --> A              
     e( 16 - 16) =      0.18427  eV     1   --> A              
     e( 17 - 17) =      1.04857  eV     1   --> A              
     e( 18 - 18) =      1.08281  eV     1   --> A              
     e( 19 - 19) =      1.11235  eV     1   --> A              
     e( 20 - 20) =      1.58374  eV     1   --> A              
     e( 21 - 21) =      1.59347  eV     1   --> A              
     e( 22 - 22) =      1.88817  eV     1   --> A              
     e( 23 - 23) =      2.28035  eV     1   --> A              
     e( 24 - 24) =      2.28384  eV     1   --> A              
     e( 25 - 25) =      8.75337  eV     1   --> A              
     e( 26 - 26) =     12.00534  eV     1   --> A              
     e( 27 - 27) =     12.01764  eV     1   --> A              
     e( 28 - 28) =     12.46726  eV     1   --> A              
     e( 29 - 29) =     12.48444  eV     1   --> A              
     e( 30 - 30) =     13.77272  eV     1   --> A              
     e( 31 - 31) =     14.27555  eV     1   --> A              
     e( 32 - 32) =     14.92183  eV     1   --> A              
     e( 33 - 33) =     15.30839  eV     1   --> A              
     e( 34 - 34) =     15.32320  eV     1   --> A              
     e( 35 - 35) =     16.05700  eV     1   --> A              
     e( 36 - 36) =     16.08169  eV     1   --> A              

 **************************************************************************

 **************************************************************************

                    xk=(   0.07000,   0.04041,   0.00000  )

     Band symmetry, C_1 (1)     point group:

     e(  1 -  1) =    -16.75791  eV     1   --> A              
     e(  2 -  2) =    -15.25009  eV     1   --> A              
     e(  3 -  3) =    -15.23130  eV     1   --> A              
     e(  4 -  4) =    -14.59457  eV     1   --> A              
     e(  5 -  5) =    -14.54743  eV     1   --> A              
     e(  6 -  6) =    -14.54464  eV     1   --> A              
     e(  7 -  7) =     -5.69894  eV     1   --> A              
     e(  8 -  8) =     -5.65834  eV     1   --> A              
     e(  9 -  9) =     -2.91643  eV     1   --> A              
     e( 10 - 10) =     -2.88765  eV     1   --> A              
     e( 11 - 11) =     -2.74056  eV     1   --> A              
     e( 12 - 12) =     -2.68617  eV     1   --> A              
     e( 13 - 13) =     -0.38092  eV     1   --> A              
     e( 14 - 14) =     -0.33994  eV     1   --> A              
     e( 15 - 15) =     -0.09210  eV     1   --> A              
     e( 16 - 16) =      0.19380  eV     1   --> A              
     e( 17 - 17) =      1.03535  eV     1   --> A              
     e( 18 - 18) =      1.08162  eV     1   --> A              
     e( 19 - 19) =      1.11173  eV     1   --> A              
     e( 20 - 20) =      1.58022  eV     1   --> A              
     e( 21 - 21) =      1.59330  eV     1   --> A              
     e( 22 - 22) =      1.88234  eV     1   --> A              
     e( 23 - 23) =      2.28369  eV     1   --> A              
     e( 24 - 24) =      2.28861  eV     1   --> A              
     e( 25 - 25) =      8.77365  eV     1   --> A              
     e( 26 - 26) =     12.00412  eV     1   --> A              
     e( 27 - 27) =     12.02052  eV     1   --> A              
     e( 28 - 28) =     12.46850  eV     1   --> A              
     e( 29 - 29) =     12.49140  eV     1   --> A              
     e( 30 - 30) =     13.77763  eV     1   --> A              
     e( 31 - 31) =     14.25602  eV     1   --> A              
     e( 32 - 32) =     14.91534  eV     1   --> A              
     e( 33 - 33) =     15.29160  eV     1   --> A              
     e( 34 - 34) =     15.31214  eV     1   --> A              
     e( 35 - 35) =     16.07159  eV     1   --> A              
     e( 36 - 36) =     16.10401  eV     1   --> A              

 **************************************************************************

 **************************************************************************

                    xk=(   0.08000,   0.04619,   0.00000  )

     Band symmetry, C_1 (1)     point group:

     e(  1 -  1) =    -16.75344  eV     1   --> A              
     e(  2 -  2) =    -15.25513  eV     1   --> A              
     e(  3 -  3) =    -15.23059  eV     1   --> A              
     e(  4 -  4) =    -14.59597  eV     1   --> A              
     e(  5 -  5) =    -14.54849  eV     1   --> A              
     e(  6 -  6) =    -14.54492  eV     1   --> A              
     e(  7 -  7) =     -5.70105  eV     1   --> A              
     e(  8 -  8) =     -5.64821  eV     1   --> A              
     e(  9 -  9) =     -2.91863  eV     1   --> A              
     e( 10 - 10) =     -2.88735  eV     1   --> A              
     e( 11 - 11) =     -2.74761  eV     1   --> A              
     e( 12 - 12) =     -2.67736  eV     1   --> A              
     e( 13 - 13) =     -0.38905  eV     1   --> A              
     e( 14 - 14) =     -0.33672  eV     1   --> A              
     e( 15 - 15) =     -0.09027  eV     1   --> A              
     e( 16 - 16) =      0.20426  eV     1   --> A              
     e( 17 - 17) =      1.02024  eV     1   --> A              
     e( 18 - 18) =      1.08016  eV     1   --> A              
     e( 19 - 19) =      1.11106  eV     1   --> A              
     e( 20 - 20) =      1.57632  eV     1   --> A              
     e( 21 - 21) =      1.59313  eV     1   --> A              
     e( 22 - 22) =      1.87584  eV     1   --> A              
     e( 23 - 23) =      2.28734  eV     1   --> A              
     e( 24 - 24) =      2.29398  eV     1   --> A              
     e( 25 - 25) =      8.79690  eV     1   --> A              
     e( 26 - 26) =     12.00286  eV     1   --> A              
     e( 27 - 27) =     12.02377  eV     1   --> A              
     e( 28 - 28) =     12.47013  eV     1   --> A              
     e( 29 - 29) =     12.49936  eV     1   --> A              
     e( 30 - 30) =     13.78277  eV     1   --> A              
     e( 31 - 31) =     14.23393  eV     1   --> A              
     e( 32 - 32) =     14.90784  eV     1   --> A              
     e( 33 - 33) =     15.27438  eV     1   --> A              
     e( 34 - 34) =     15.30149  eV     1   --> A              
     e( 35 - 35) =     16.08537  eV     1   --> A              
     e( 36 - 36) =     16.12611  eV     1   --> A              

 **************************************************************************

 **************************************************************************

                    xk=(   0.09000,   0.05196,   0.00000  )

     Band symmetry, C_1 (1)     point group:

     e(  1 -  1) =    -16.74838  eV     1   --> A              
     e(  2 -  2) =    -15.26085  eV     1   --> A              
     e(  3 -  3) =    -15.22978  eV     1   --> A              
     e(  4 -  4) =    -14.59751  eV     1   --> A              
     e(  5 -  5) =    -14.54966  eV     1   --> A              
     e(  6 -  6) =    -14.54525  eV     1   --> A              
     e(  7 -  7) =     -5.70342  eV     1   --> A              
     e(  8 -  8) =     -5.63680  eV     1   --> A              
     e(  9 -  9) =     -2.92091  eV     1   --> A              
     e( 10 - 10) =     -2.88714  eV     1   --> A              
     e( 11 - 11) =     -2.75544  eV     1   --> A              
     e( 12 - 12) =     -2.66762  eV     1   --> A              
     e( 13 - 13) =     -0.39773  eV     1   --> A              
     e( 14 - 14) =     -0.33307  eV     1   --> A              
     e( 15 - 15) =     -0.08823  eV     1   --> A              
     e( 16 - 16) =      0.21550  eV     1   --> A              
     e( 17 - 17) =      1.00331  eV     1   --> A              
     e( 18 - 18) =      1.07841  eV     1   --> A              
     e( 19 - 19) =      1.11036  eV     1   --> A              
     e( 20 - 20) =      1.57208  eV     1   --> A              
     e( 21 - 21) =      1.59299  eV     1   --> A              
     e( 22 - 22) =      1.86874  eV     1   --> A              
     e( 23 - 23) =      2.29121  eV     1   --> A              
     e( 24 - 24) =      2.29992  eV     1   --> A              
     e( 25 - 25) =      8.82305  eV     1   --> A              
     e( 26 - 26) =     12.00163  eV     1   --> A              
     e( 27 - 27) =     12.02736  eV     1   --> A              
     e( 28 - 28) =     12.47222  eV     1   --> A              
     e( 29 - 29) =     12.50828  eV     1   --> A              
     e( 30 - 30) =     13.78790  eV     1   --> A              
     e( 31 - 31) =     14.20951  eV     1   --> A              
     e( 32 - 32) =     14.89938  eV     1   --> A              
     e( 33 - 33) =     15.25724  eV     1   --> A              
     e( 34 - 34) =     15.29160  eV     1   --> A              
     e( 35 - 35) =     16.09736  eV     1   --> A              
     e( 36 - 36) =     16.14692  eV     1   --> A              

 **************************************************************************

 **************************************************************************

                    xk=(   0.10000,   0.05774,   0.00000  )

     Band symmetry, C_1 (1)     point group:

     e(  1 -  1) =    -16.74275  eV     1   --> A              
     e(  2 -  2) =    -15.26725  eV     1   --> A              
     e(  3 -  3) =    -15.22889  eV     1   --> A              
     e(  4 -  4) =    -14.59918  eV     1   --> A              
     e(  5 -  5) =    -14.55094  eV     1   --> A              
     e(  6 -  6) =    -14.54564  eV     1   --> A              
     e(  7 -  7) =     -5.70602  eV     1   --> A              
     e(  8 -  8) =     -5.62414  eV     1   --> A              
     e(  9 -  9) =     -2.92323  eV     1   --> A              
     e( 10 - 10) =     -2.88708  eV     1   --> A              
     e( 11 - 11) =     -2.76398  eV     1   --> A              
     e( 12 - 12) =     -2.65701  eV     1   --> A              
     e( 13 - 13) =     -0.40680  eV     1   --> A              
     e( 14 - 14) =     -0.32901  eV     1   --> A              
     e( 15 - 15) =     -0.08601  eV     1   --> A              
     e( 16 - 16) =      0.22735  eV     1   --> A              
     e( 17 - 17) =      0.98461  eV     1   --> A              
     e( 18 - 18) =      1.07634  eV     1   --> A              
     e( 19 - 19) =      1.10962  eV     1   --> A              
     e( 20 - 20) =      1.56756  eV     1   --> A              
     e( 21 - 21) =      1.59288  eV     1   --> A              
     e( 22 - 22) =      1.86114  eV     1   --> A              
     e( 23 - 23) =      2.29525  eV     1   --> A              
     e( 24 - 24) =      2.30636  eV     1   --> A              
     e( 25 - 25) =      8.85203  eV     1   --> A              
     e( 26 - 26) =     12.00047  eV     1   --> A              
     e( 27 - 27) =     12.03127  eV     1   --> A              
     e( 28 - 28) =     12.47484  eV     1   --> A              
     e( 29 - 29) =     12.51814  eV     1   --> A              
     e( 30 - 30) =     13.79276  eV     1   --> A              
     e( 31 - 31) =     14.18301  eV     1   --> A              
     e( 32 - 32) =     14.89004  eV     1   --> A              
     e( 33 - 33) =     15.24059  eV     1   --> A              
     e( 34 - 34) =     15.28269  eV     1   --> A              
     e( 35 - 35) =     16.10653  eV     1   --> A              
     e( 36 - 36) =     16.16540  eV     1   --> A              

 **************************************************************************

 **************************************************************************

                    xk=(   0.11000,   0.06351,   0.00000  )

     Band symmetry, C_1 (1)     point group:

     e(  1 -  1) =    -16.73655  eV     1   --> A              
     e(  2 -  2) =    -15.27433  eV     1   --> A              
     e(  3 -  3) =    -15.22791  eV     1   --> A              
     e(  4 -  4) =    -14.60094  eV     1   --> A              
     e(  5 -  5) =    -14.55231  eV     1   --> A              
     e(  6 -  6) =    -14.54608  eV     1   --> A              
     e(  7 -  7) =     -5.70885  eV     1   --> A              
     e(  8 -  8) =     -5.61026  eV     1   --> A              
     e(  9 -  9) =     -2.92555  eV     1   --> A              
     e( 10 - 10) =     -2.88726  eV     1   --> A              
     e( 11 - 11) =     -2.77312  eV     1   --> A              
     e( 12 - 12) =     -2.64557  eV     1   --> A              
     e( 13 - 13) =     -0.41616  eV     1   --> A              
     e( 14 - 14) =     -0.32453  eV     1   --> A              
     e( 15 - 15) =     -0.08362  eV     1   --> A              
     e( 16 - 16) =      0.23968  eV     1   --> A              
     e( 17 - 17) =      0.96424  eV     1   --> A              
     e( 18 - 18) =      1.07395  eV     1   --> A              
     e( 19 - 19) =      1.10885  eV     1   --> A              
     e( 20 - 20) =      1.56282  eV     1   --> A              
     e( 21 - 21) =      1.59283  eV     1   --> A              
     e( 22 - 22) =      1.85311  eV     1   --> A              
     e( 23 - 23) =      2.29938  eV     1   --> A              
     e( 24 - 24) =      2.31325  eV     1   --> A              
     e( 25 - 25) =      8.88375  eV     1   --> A              
     e( 26 - 26) =     11.99946  eV     1   --> A              
     e( 27 - 27) =     12.03545  eV     1   --> A              
     e( 28 - 28) =     12.47803  eV     1   --> A              
     e( 29 - 29) =     12.52890  eV     1   --> A              
     e( 30 - 30) =     13.79706  eV     1   --> A              
     e( 31 - 31) =     14.15474  eV     1   --> A              
     e( 32 - 32) =     14.87993  eV     1   --> A              
     e( 33 - 33) =     15.22480  eV     1   --> A              
     e( 34 - 34) =     15.27489  eV     1   --> A              
     e( 35 - 35) =     16.11176  eV     1   --> A              
     e( 36 - 36) =     16.18059  eV     1   --> A              

 **************************************************************************

 **************************************************************************

                    xk=(   0.12000,   0.06928,   0.00000  )

     Band symmetry, C_1 (1)     point group:

     e(  1 -  1) =    -16.72977  eV     1   --> A              
     e(  2 -  2) =    -15.28208  eV     1   --> A              
     e(  3 -  3) =    -15.22685  eV     1   --> A              
     e(  4 -  4) =    -14.60280  eV     1   --> A              
     e(  5 -  5) =    -14.55378  eV     1   --> A              
     e(  6 -  6) =    -14.54659  eV     1   --> A              
     e(  7 -  7) =     -5.71189  eV     1   --> A              
     e(  8 -  8) =     -5.59519  eV     1   --> A              
     e(  9 -  9) =     -2.92783  eV     1   --> A              
     e( 10 - 10) =     -2.88778  eV     1   --> A              
     e( 11 - 11) =     -2.78275  eV     1   --> A              
     e( 12 - 12) =     -2.63336  eV     1   --> A              
     e( 13 - 13) =     -0.42567  eV     1   --> A              
     e( 14 - 14) =     -0.31965  eV     1   --> A              
     e( 15 - 15) =     -0.08111  eV     1   --> A              
     e( 16 - 16) =      0.25236  eV     1   --> A              
     e( 17 - 17) =      0.94228  eV     1   --> A              
     e( 18 - 18) =      1.07121  eV     1   --> A              
     e( 19 - 19) =      1.10803  eV     1   --> A              
     e( 20 - 20) =      1.55792  eV     1   --> A              
     e( 21 - 21) =      1.59283  eV     1   --> A              
     e( 22 - 22) =      1.84474  eV     1   --> A              
     e( 23 - 23) =      2.30354  eV     1   --> A              
     e( 24 - 24) =      2.32055  eV     1   --> A              
     e( 25 - 25) =      8.91815  eV     1   --> A              
     e( 26 - 26) =     11.99867  eV     1   --> A              
     e( 27 - 27) =     12.03988  eV     1   --> A              
     e( 28 - 28) =     12.48185  eV     1   --> A              
     e( 29 - 29) =     12.54053  eV     1   --> A              
     e( 30 - 30) =     13.80047  eV     1   --> A              
     e( 31 - 31) =     14.12507  eV     1   --> A              
     e( 32 - 32) =     14.86919  eV     1   --> A              
     e( 33 - 33) =     15.21018  eV     1   --> A              
     e( 34 - 34) =     15.26823  eV     1   --> A              
     e( 35 - 35) =     16.11187  eV     1   --> A              
     e( 36 - 36) =     16.19178  eV     1   --> A              

 **************************************************************************

 **************************************************************************

                    xk=(   0.13000,   0.07506,   0.00000  )

     Band symmetry, C_1 (1)     point group:

     e(  1 -  1) =    -16.72244  eV     1   --> A              
     e(  2 -  2) =    -15.29052  eV     1   --> A              
     e(  3 -  3) =    -15.22572  eV     1   --> A              
     e(  4 -  4) =    -14.60473  eV     1   --> A              
     e(  5 -  5) =    -14.55533  eV     1   --> A              
     e(  6 -  6) =    -14.54715  eV     1   --> A              
     e(  7 -  7) =     -5.71514  eV     1   --> A              
     e(  8 -  8) =     -5.57898  eV     1   --> A              
     e(  9 -  9) =     -2.93007  eV     1   --> A              
     e( 10 - 10) =     -2.88881  eV     1   --> A              
     e( 11 - 11) =     -2.79266  eV     1   --> A              
     e( 12 - 12) =     -2.62042  eV     1   --> A              
     e( 13 - 13) =     -0.43525  eV     1   --> A              
     e( 14 - 14) =     -0.31437  eV     1   --> A              
     e( 15 - 15) =     -0.07850  eV     1   --> A              
     e( 16 - 16) =      0.26528  eV     1   --> A              
     e( 17 - 17) =      0.91882  eV     1   --> A              
     e( 18 - 18) =      1.06811  eV     1   --> A              
     e( 19 - 19) =      1.10714  eV     1   --> A              
     e( 20 - 20) =      1.55292  eV     1   --> A              
     e( 21 - 21) =      1.59289  eV     1   --> A              
     e( 22 - 22) =      1.83611  eV     1   --> A              
     e( 23 - 23) =      2.30767  eV     1   --> A              
     e( 24 - 24) =      2.32821  eV     1   --> A              
     e( 25 - 25) =      8.95513  eV     1   --> A              
     e( 26 - 26) =     11.99816  eV     1   --> A              
     e( 27 - 27) =     12.04451  eV     1   --> A              
     e( 28 - 28) =     12.48634  eV     1   --> A              
     e( 29 - 29) =     12.55300  eV     1   --> A              
     e( 30 - 30) =     13.80258  eV     1   --> A              
     e( 31 - 31) =     14.09445  eV     1   --> A              
     e( 32 - 32) =     14.85796  eV     1   --> A              
     e( 33 - 33) =     15.19695  eV     1   --> A              
     e( 34 - 34) =     15.26271  eV     1   --> A              
     e( 35 - 35) =     16.10570  eV     1   --> A              
     e( 36 - 36) =     16.19860  eV     1   --> A              

 **************************************************************************

 **************************************************************************

                    xk=(   0.14000,   0.08083,   0.00000  )

     Band symmetry, C_1 (1)     point group:

     e(  1 -  1) =    -16.71455  eV     1   --> A              
     e(  2 -  2) =    -15.29963  eV     1   --> A              
     e(  3 -  3) =    -15.22451  eV     1   --> A              
     e(  4 -  4) =    -14.60671  eV     1   --> A              
     e(  5 -  5) =    -14.55695  eV     1   --> A              
     e(  6 -  6) =    -14.54778  eV     1   --> A              
     e(  7 -  7) =     -5.71858  eV     1   --> A              
     e(  8 -  8) =     -5.56167  eV     1   --> A              
     e(  9 -  9) =     -2.93223  eV     1   --> A              
     e( 10 - 10) =     -2.89055  eV     1   --> A              
     e( 11 - 11) =     -2.80263  eV     1   --> A              
     e( 12 - 12) =     -2.60681  eV     1   --> A              
     e( 13 - 13) =     -0.44478  eV     1   --> A              
     e( 14 - 14) =     -0.30870  eV     1   --> A              
     e( 15 - 15) =     -0.07583  eV     1   --> A              
     e( 16 - 16) =      0.27833  eV     1   --> A              
     e( 17 - 17) =      0.89397  eV     1   --> A              
     e( 18 - 18) =      1.06467  eV     1   --> A              
     e( 19 - 19) =      1.10616  eV     1   --> A              
     e( 20 - 20) =      1.54786  eV     1   --> A              
     e( 21 - 21) =      1.59301  eV     1   --> A              
     e( 22 - 22) =      1.82733  eV     1   --> A              
     e( 23 - 23) =      2.31173  eV     1   --> A              
     e( 24 - 24) =      2.33616  eV     1   --> A              
     e( 25 - 25) =      8.99459  eV     1   --> A              
     e( 26 - 26) =     11.99800  eV     1   --> A              
     e( 27 - 27) =     12.04931  eV     1   --> A              
     e( 28 - 28) =     12.49151  eV     1   --> A              
     e( 29 - 29) =     12.56629  eV     1   --> A              
     e( 30 - 30) =     13.80289  eV     1   --> A              
     e( 31 - 31) =     14.06342  eV     1   --> A              
     e( 32 - 32) =     14.84642  eV     1   --> A              
     e( 33 - 33) =     15.18530  eV     1   --> A              
     e( 34 - 34) =     15.25826  eV     1   --> A              
     e( 35 - 35) =     16.09232  eV     1   --> A              
     e( 36 - 36) =     16.20111  eV     1   --> A              

 **************************************************************************

 **************************************************************************

                    xk=(   0.15000,   0.08660,   0.00000  )

     Band symmetry, C_1 (1)     point group:

     e(  1 -  1) =    -16.70612  eV     1   --> A              
     e(  2 -  2) =    -15.30942  eV     1   --> A              
     e(  3 -  3) =    -15.22323  eV     1   --> A              
     e(  4 -  4) =    -14.60873  eV     1   --> A              
     e(  5 -  5) =    -14.55863  eV     1   --> A              
     e(  6 -  6) =    -14.54846  eV     1   --> A              
     e(  7 -  7) =     -5.72218  eV     1   --> A              
     e(  8 -  8) =     -5.54329  eV     1   --> A              
     e(  9 -  9) =     -2.93432  eV     1   --> A              
     e( 10 - 10) =     -2.89332  eV     1   --> A              
     e( 11 - 11) =     -2.81233  eV     1   --> A              
     e( 12 - 12) =     -2.59256  eV     1   --> A              
     e( 13 - 13) =     -0.45420  eV     1   --> A              
     e( 14 - 14) =     -0.30266  eV     1   --> A              
     e( 15 - 15) =     -0.07313  eV     1   --> A              
     e( 16 - 16) =      0.29142  eV     1   --> A              
     e( 17 - 17) =      0.86783  eV     1   --> A              
     e( 18 - 18) =      1.06086  eV     1   --> A              
     e( 19 - 19) =      1.10506  eV     1   --> A              
     e( 20 - 20) =      1.54281  eV     1   --> A              
     e( 21 - 21) =      1.59317  eV     1   --> A              
     e( 22 - 22) =      1.81849  eV     1   --> A              
     e( 23 - 23) =      2.31565  eV     1   --> A              
     e( 24 - 24) =      2.34436  eV     1   --> A              
     e( 25 - 25) =      9.03645  eV     1   --> A              
     e( 26 - 26) =     11.99824  eV     1   --> A              
     e( 27 - 27) =     12.05424  eV     1   --> A              
     e( 28 - 28) =     12.49738  eV     1   --> A              
     e( 29 - 29) =     12.58037  eV     1   --> A              
     e( 30 - 30) =     13.80078  eV     1   --> A              
     e( 31 - 31) =     14.03269  eV     1   --> A              
     e( 32 - 32) =     14.83472  eV     1   --> A              
     e( 33 - 33) =     15.17535  eV     1   --> A              
     e( 34 - 34) =     15.25479  eV     1   --> A              
     e( 35 - 35) =     16.07135  eV     1   --> A              
     e( 36 - 36) =     16.19960  eV     1   --> A              

 **************************************************************************

 **************************************************************************

                    xk=(   0.16000,   0.09238,   0.00000  )

     Band symmetry, C_1 (1)     point group:

     e(  1 -  1) =    -16.69715  eV     1   --> A              
     e(  2 -  2) =    -15.31986  eV     1   --> A              
     e(  3 -  3) =    -15.22189  eV     1   --> A              
     e(  4 -  4) =    -14.61078  eV     1   --> A              
     e(  5 -  5) =    -14.56037  eV     1   --> A              
     e(  6 -  6) =    -14.54921  eV     1   --> A              
     e(  7 -  7) =     -5.72595  eV     1   --> A              
     e(  8 -  8) =     -5.52389  eV     1   --> A              
     e(  9 -  9) =     -2.93634  eV     1   --> A              
     e( 10 - 10) =     -2.89746  eV     1   --> A              
     e( 11 - 11) =     -2.82134  eV     1   --> A              
     e( 12 - 12) =     -2.57771  eV     1   --> A              
     e( 13 - 13) =     -0.46341  eV     1   --> A              
     e( 14 - 14) =     -0.29626  eV     1   --> A              
     e( 15 - 15) =     -0.07044  eV     1   --> A              
     e( 16 - 16) =      0.30447  eV     1   --> A              
     e( 17 - 17) =      0.84053  eV     1   --> A              
     e( 18 - 18) =      1.05668  eV     1   --> A              
     e( 19 - 19) =      1.10380  eV     1   --> A              
     e( 20 - 20) =      1.53779  eV     1   --> A              
     e( 21 - 21) =      1.59336  eV     1   --> A              
     e( 22 - 22) =      1.80969  eV     1   --> A              
     e( 23 - 23) =      2.31941  eV     1   --> A              
     e( 24 - 24) =      2.35276  eV     1   --> A              
     e( 25 - 25) =      9.08060  eV     1   --> A              
     e( 26 - 26) =     11.99896  eV     1   --> A              
     e( 27 - 27) =     12.05927  eV     1   --> A              
     e( 28 - 28) =     12.50394  eV     1   --> A              
     e( 29 - 29) =     12.59520  eV     1   --> A              
     e( 30 - 30) =     13.79545  eV     1   --> A              
     e( 31 - 31) =     14.00315  eV     1   --> A              
     e( 32 - 32) =     14.82302  eV     1   --> A              
     e( 33 - 33) =     15.16718  eV     1   --> A              
     e( 34 - 34) =     15.25218  eV     1   --> A              
     e( 35 - 35) =     16.04307  eV     1   --> A              
     e( 36 - 36) =     16.19447  eV     1   --> A              

 **************************************************************************

 **************************************************************************

                    xk=(   0.17000,   0.09815,   0.00000  )

     Band symmetry, C_1 (1)     point group:

     e(  1 -  1) =    -16.68765  eV     1   --> A              
     e(  2 -  2) =    -15.33096  eV     1   --> A              
     e(  3 -  3) =    -15.22049  eV     1   --> A              
     e(  4 -  4) =    -14.61283  eV     1   --> A              
     e(  5 -  5) =    -14.56216  eV     1   --> A              
     e(  6 -  6) =    -14.55002  eV     1   --> A              
     e(  7 -  7) =     -5.72985  eV     1   --> A              
     e(  8 -  8) =     -5.50353  eV     1   --> A              
     e(  9 -  9) =     -2.93830  eV     1   --> A              
     e( 10 - 10) =     -2.90334  eV     1   --> A              
     e( 11 - 11) =     -2.82925  eV     1   --> A              
     e( 12 - 12) =     -2.56232  eV     1   --> A              
     e( 13 - 13) =     -0.47237  eV     1   --> A              
     e( 14 - 14) =     -0.28952  eV     1   --> A              
     e( 15 - 15) =     -0.06779  eV     1   --> A              
     e( 16 - 16) =      0.31741  eV     1   --> A              
     e( 17 - 17) =      0.81219  eV     1   --> A              
     e( 18 - 18) =      1.05215  eV     1   --> A              
     e( 19 - 19) =      1.10235  eV     1   --> A              
     e( 20 - 20) =      1.53288  eV     1   --> A              
     e( 21 - 21) =      1.59355  eV     1   --> A              
     e( 22 - 22) =      1.80103  eV     1   --> A              
     e( 23 - 23) =      2.32295  eV     1   --> A              
     e( 24 - 24) =      2.36131  eV     1   --> A              
     e( 25 - 25) =      9.12694  eV     1   --> A              
     e( 26 - 26) =     12.00019  eV     1   --> A              
     e( 27 - 27) =     12.06435  eV     1   --> A              
     e( 28 - 28) =     12.51117  eV     1   --> A              
     e( 29 - 29) =     12.61078  eV     1   --> A              
     e( 30 - 30) =     13.78598  eV     1   --> A              
     e( 31 - 31) =     13.97583  eV     1   --> A              
     e( 32 - 32) =     14.81148  eV     1   --> A              
     e( 33 - 33) =     15.16085  eV     1   --> A              
     e( 34 - 34) =     15.25034  eV     1   --> A              
     e( 35 - 35) =     16.00823  eV     1   --> A              
     e( 36 - 36) =     16.18603  eV     1   --> A              

 **************************************************************************

 **************************************************************************

                    xk=(   0.18000,   0.10392,   0.00000  )

     Band symmetry, C_1 (1)     point group:

     e(  1 -  1) =    -16.67763  eV     1   --> A              
     e(  2 -  2) =    -15.34270  eV     1   --> A              
     e(  3 -  3) =    -15.21902  eV     1   --> A              
     e(  4 -  4) =    -14.61487  eV     1   --> A              
     e(  5 -  5) =    -14.56398  eV     1   --> A              
     e(  6 -  6) =    -14.55088  eV     1   --> A              
     e(  7 -  7) =     -5.73388  eV     1   --> A              
     e(  8 -  8) =     -5.48225  eV     1   --> A              
     e(  9 -  9) =     -2.94031  eV     1   --> A              
     e( 10 - 10) =     -2.91114  eV     1   --> A              
     e( 11 - 11) =     -2.83575  eV     1   --> A              
     e( 12 - 12) =     -2.54642  eV     1   --> A              
     e( 13 - 13) =     -0.48100  eV     1   --> A              
     e( 14 - 14) =     -0.28247  eV     1   --> A              
     e( 15 - 15) =     -0.06521  eV     1   --> A              
     e( 16 - 16) =      0.33017  eV     1   --> A              
     e( 17 - 17) =      0.78295  eV     1   --> A              
     e( 18 - 18) =      1.04726  eV     1   --> A              
     e( 19 - 19) =      1.10067  eV     1   --> A              
     e( 20 - 20) =      1.52809  eV     1   --> A              
     e( 21 - 21) =      1.59369  eV     1   --> A              
     e( 22 - 22) =      1.79263  eV     1   --> A              
     e( 23 - 23) =      2.32624  eV     1   --> A              
     e( 24 - 24) =      2.36998  eV     1   --> A              
     e( 25 - 25) =      9.17537  eV     1   --> A              
     e( 26 - 26) =     12.00197  eV     1   --> A              
     e( 27 - 27) =     12.06945  eV     1   --> A              
     e( 28 - 28) =     12.51902  eV     1   --> A              
     e( 29 - 29) =     12.62707  eV     1   --> A              
     e( 30 - 30) =     13.77149  eV     1   --> A              
     e( 31 - 31) =     13.95174  eV     1   --> A              
     e( 32 - 32) =     14.80023  eV     1   --> A              
     e( 33 - 33) =     15.15635  eV     1   --> A              
     e( 34 - 34) =     15.24915  eV     1   --> A              
     e( 35 - 35) =     15.96785  eV     1   --> A              
     e( 36 - 36) =     16.17451  eV     1   --> A              

 **************************************************************************

 **************************************************************************

                    xk=(   0.19000,   0.10970,   0.00000  )

     Band symmetry, C_1 (1)     point group:

     e(  1 -  1) =    -16.66711  eV     1   --> A              
     e(  2 -  2) =    -15.35506  eV     1   --> A              
     e(  3 -  3) =    -15.21751  eV     1   --> A              
     e(  4 -  4) =    -14.61690  eV     1   --> A              
     e(  5 -  5) =    -14.56584  eV     1   --> A              
     e(  6 -  6) =    -14.55180  eV     1   --> A              
     e(  7 -  7) =     -5.73802  eV     1   --> A              
     e(  8 -  8) =     -5.46012  eV     1   --> A              
     e(  9 -  9) =     -2.94261  eV     1   --> A              
     e( 10 - 10) =     -2.92062  eV     1   --> A              
     e( 11 - 11) =     -2.84078  eV     1   --> A              
     e( 12 - 12) =     -2.53007  eV     1   --> A              
     e( 13 - 13) =     -0.48926  eV     1   --> A              
     e( 14 - 14) =     -0.27513  eV     1   --> A              
     e( 15 - 15) =     -0.06274  eV     1   --> A              
     e( 16 - 16) =      0.34269  eV     1   --> A              
     e( 17 - 17) =      0.75295  eV     1   --> A              
     e( 18 - 18) =      1.04201  eV     1   --> A              
     e( 19 - 19) =      1.09872  eV     1   --> A              
     e( 20 - 20) =      1.52346  eV     1   --> A              
     e( 21 - 21) =      1.59374  eV     1   --> A              
     e( 22 - 22) =      1.78462  eV     1   --> A              
     e( 23 - 23) =      2.32927  eV     1   --> A              
     e( 24 - 24) =      2.37871  eV     1   --> A              
     e( 25 - 25) =      9.22578  eV     1   --> A              
     e( 26 - 26) =     12.00434  eV     1   --> A              
     e( 27 - 27) =     12.07453  eV     1   --> A              
     e( 28 - 28) =     12.52744  eV     1   --> A              
     e( 29 - 29) =     12.64406  eV     1   --> A              
     e( 30 - 30) =     13.75155  eV     1   --> A              
     e( 31 - 31) =     13.93151  eV     1   --> A              
     e( 32 - 32) =     14.78935  eV     1   --> A              
     e( 33 - 33) =     15.15368  eV     1   --> A              
     e( 34 - 34) =     15.24850  eV     1   --> A              
     e( 35 - 35) =     15.92292  eV     1   --> A              
     e( 36 - 36) =     16.16014  eV     1   --> A              

 **************************************************************************

 **************************************************************************

                    xk=(   0.20000,   0.11547,   0.00000  )

     Band symmetry, C_1 (1)     point group:

     e(  1 -  1) =    -16.65610  eV     1   --> A              
     e(  2 -  2) =    -15.36804  eV     1   --> A              
     e(  3 -  3) =    -15.21595  eV     1   --> A              
     e(  4 -  4) =    -14.61889  eV     1   --> A              
     e(  5 -  5) =    -14.56772  eV     1   --> A              
     e(  6 -  6) =    -14.55277  eV     1   --> A              
     e(  7 -  7) =     -5.74224  eV     1   --> A              
     e(  8 -  8) =     -5.43719  eV     1   --> A              
     e(  9 -  9) =     -2.94622  eV     1   --> A              
     e( 10 - 10) =     -2.93056  eV     1   --> A              
     e( 11 - 11) =     -2.84451  eV     1   --> A              
     e( 12 - 12) =     -2.51330  eV     1   --> A              
     e( 13 - 13) =     -0.49710  eV     1   --> A              
     e( 14 - 14) =     -0.26754  eV     1   --> A              
     e( 15 - 15) =     -0.06040  eV     1   --> A              
     e( 16 - 16) =      0.35490  eV     1   --> A              
     e( 17 - 17) =      0.72237  eV     1   --> A              
     e( 18 - 18) =      1.03640  eV     1   --> A              
     e( 19 - 19) =      1.09646  eV     1   --> A              
     e( 20 - 20) =      1.51903  eV     1   --> A              
     e( 21 - 21) =      1.59363  eV     1   --> A              
     e( 22 - 22) =      1.77711  eV     1   --> A              
     e( 23 - 23) =      2.33199  eV     1   --> A              
     e( 24 - 24) =      2.38747  eV     1   --> A              
     e( 25 - 25) =      9.27805  eV     1   --> A              
     e( 26 - 26) =     12.00730  eV     1   --> A              
     e( 27 - 27) =     12.07957  eV     1   --> A              
     e( 28 - 28) =     12.53634  eV     1   --> A              
     e( 29 - 29) =     12.66174  eV     1   --> A              
     e( 30 - 30) =     13.72647  eV     1   --> A              
     e( 31 - 31) =     13.91500  eV     1   --> A              
     e( 32 - 32) =     14.77895  eV     1   --> A              
     e( 33 - 33) =     15.15279  eV     1   --> A              
     e( 34 - 34) =     15.24830  eV     1   --> A              
     e( 35 - 35) =     15.87433  eV     1   --> A              
     e( 36 - 36) =     16.14313  eV     1   --> A              

 **************************************************************************

 **************************************************************************

                    xk=(   0.21000,   0.12124,   0.00000  )

     Band symmetry, C_1 (1)     point group:

     e(  1 -  1) =    -16.64461  eV     1   --> A              
     e(  2 -  2) =    -15.38162  eV     1   --> A              
     e(  3 -  3) =    -15.21435  eV     1   --> A              
     e(  4 -  4) =    -14.62084  eV     1   --> A              
     e(  5 -  5) =    -14.56962  eV     1   --> A              
     e(  6 -  6) =    -14.55379  eV     1   --> A              
     e(  7 -  7) =     -5.74654  eV     1   --> A              
     e(  8 -  8) =     -5.41353  eV     1   --> A              
     e(  9 -  9) =     -2.95410  eV     1   --> A              
     e( 10 - 10) =     -2.93767  eV     1   --> A              
     e( 11 - 11) =     -2.84723  eV     1   --> A              
     e( 12 - 12) =     -2.49616  eV     1   --> A              
     e( 13 - 13) =     -0.50447  eV     1   --> A              
     e( 14 - 14) =     -0.25975  eV     1   --> A              
     e( 15 - 15) =     -0.05822  eV     1   --> A              
     e( 16 - 16) =      0.36673  eV     1   --> A              
     e( 17 - 17) =      0.69138  eV     1   --> A              
     e( 18 - 18) =      1.03043  eV     1   --> A              
     e( 19 - 19) =      1.09386  eV     1   --> A              
     e( 20 - 20) =      1.51483  eV     1   --> A              
     e( 21 - 21) =      1.59331  eV     1   --> A              
     e( 22 - 22) =      1.77024  eV     1   --> A              
     e( 23 - 23) =      2.33440  eV     1   --> A              
     e( 24 - 24) =      2.39622  eV     1   --> A              
     e( 25 - 25) =      9.33209  eV     1   --> A              
     e( 26 - 26) =     12.01084  eV     1   --> A              
     e( 27 - 27) =     12.08453  eV     1   --> A              
     e( 28 - 28) =     12.54562  eV     1   --> A              
     e( 29 - 29) =     12.68009  eV     1   --> A              
     e( 30 - 30) =     13.69720  eV     1   --> A              
     e( 31 - 31) =     13.90150  eV     1   --> A              
     e( 32 - 32) =     14.76906  eV     1   --> A              
     e( 33 - 33) =     15.15360  eV     1   --> A              
     e( 34 - 34) =     15.24844  eV     1   --> A              
     e( 35 - 35) =     15.82281  eV     1   --> A              
     e( 36 - 36) =     16.12373  eV     1   --> A              

 **************************************************************************

 **************************************************************************

                    xk=(   0.22000,   0.12702,   0.00000  )

     Band symmetry, C_1 (1)     point group:

     e(  1 -  1) =    -16.63266  eV     1   --> A              
     e(  2 -  2) =    -15.39576  eV     1   --> A              
     e(  3 -  3) =    -15.21271  eV     1   --> A              
     e(  4 -  4) =    -14.62274  eV     1   --> A              
     e(  5 -  5) =    -14.57153  eV     1   --> A              
     e(  6 -  6) =    -14.55485  eV     1   --> A              
     e(  7 -  7) =     -5.75089  eV     1   --> A              
     e(  8 -  8) =     -5.38920  eV     1   --> A              
     e(  9 -  9) =     -2.96694  eV     1   --> A              
     e( 10 - 10) =     -2.94090  eV     1   --> A              
     e( 11 - 11) =     -2.84925  eV     1   --> A              
     e( 12 - 12) =     -2.47872  eV     1   --> A              
     e( 13 - 13) =     -0.51134  eV     1   --> A              
     e( 14 - 14) =     -0.25179  eV     1   --> A              
     e( 15 - 15) =     -0.05621  eV     1   --> A              
     e( 16 - 16) =      0.37809  eV     1   --> A              
     e( 17 - 17) =      0.66020  eV     1   --> A              
     e( 18 - 18) =      1.02411  eV     1   --> A              
     e( 19 - 19) =      1.09087  eV     1   --> A              
     e( 20 - 20) =      1.51087  eV     1   --> A              
     e( 21 - 21) =      1.59269  eV     1   --> A              
     e( 22 - 22) =      1.76413  eV     1   --> A              
     e( 23 - 23) =      2.33648  eV     1   --> A              
     e( 24 - 24) =      2.40493  eV     1   --> A              
     e( 25 - 25) =      9.38777  eV     1   --> A              
     e( 26 - 26) =     12.01492  eV     1   --> A              
     e( 27 - 27) =     12.08940  eV     1   --> A              
     e( 28 - 28) =     12.55518  eV     1   --> A              
     e( 29 - 29) =     12.69910  eV     1   --> A              
     e( 30 - 30) =     13.66495  eV     1   --> A              
     e( 31 - 31) =     13.89009  eV     1   --> A              
     e( 32 - 32) =     14.75972  eV     1   --> A              
     e( 33 - 33) =     15.15601  eV     1   --> A              
     e( 34 - 34) =     15.24884  eV     1   --> A              
     e( 35 - 35) =     15.76899  eV     1   --> A              
     e( 36 - 36) =     16.10219  eV     1   --> A              

 **************************************************************************

 **************************************************************************

                    xk=(   0.23000,   0.13279,   0.00000  )

     Band symmetry, C_1 (1)     point group:

     e(  1 -  1) =    -16.62026  eV     1   --> A              
     e(  2 -  2) =    -15.41045  eV     1   --> A              
     e(  3 -  3) =    -15.21105  eV     1   --> A              
     e(  4 -  4) =    -14.62457  eV     1   --> A              
     e(  5 -  5) =    -14.57344  eV     1   --> A              
     e(  6 -  6) =    -14.55595  eV     1   --> A              
     e(  7 -  7) =     -5.75528  eV     1   --> A              
     e(  8 -  8) =     -5.36427  eV     1   --> A              
     e(  9 -  9) =     -2.98220  eV     1   --> A              
     e( 10 - 10) =     -2.94253  eV     1   --> A              
     e( 11 - 11) =     -2.85080  eV     1   --> A              
     e( 12 - 12) =     -2.46101  eV     1   --> A              
     e( 13 - 13) =     -0.51768  eV     1   --> A              
     e( 14 - 14) =     -0.24372  eV     1   --> A              
     e( 15 - 15) =     -0.05441  eV     1   --> A              
     e( 16 - 16) =      0.38885  eV     1   --> A              
     e( 17 - 17) =      0.62908  eV     1   --> A              
     e( 18 - 18) =      1.01744  eV     1   --> A              
     e( 19 - 19) =      1.08747  eV     1   --> A              
     e( 20 - 20) =      1.50716  eV     1   --> A              
     e( 21 - 21) =      1.59172  eV     1   --> A              
     e( 22 - 22) =      1.75889  eV     1   --> A              
     e( 23 - 23) =      2.33822  eV     1   --> A              
     e( 24 - 24) =      2.41356  eV     1   --> A              
     e( 25 - 25) =      9.44500  eV     1   --> A              
     e( 26 - 26) =     12.01947  eV     1   --> A              
     e( 27 - 27) =     12.09418  eV     1   --> A              
     e( 28 - 28) =     12.56486  eV     1   --> A              
     e( 29 - 29) =     12.71878  eV     1   --> A              
     e( 30 - 30) =     13.63081  eV     1   --> A              
     e( 31 - 31) =     13.87998  eV     1   --> A              
     e( 32 - 32) =     14.75093  eV     1   --> A              
     e( 33 - 33) =     15.15992  eV     1   --> A              
     e( 34 - 34) =     15.24941  eV     1   --> A              
     e( 35 - 35) =     15.71335  eV     1   --> A              
     e( 36 - 36) =     16.07882  eV     1   --> A              

 **************************************************************************

 **************************************************************************

                    xk=(   0.24000,   0.13856,   0.00000  )

     Band symmetry, C_1 (1)     point group:

     e(  1 -  1) =    -16.60743  eV     1   --> A              
     e(  2 -  2) =    -15.42567  eV     1   --> A              
     e(  3 -  3) =    -15.20936  eV     1   --> A              
     e(  4 -  4) =    -14.62635  eV     1   --> A              
     e(  5 -  5) =    -14.57534  eV     1   --> A              
     e(  6 -  6) =    -14.55709  eV     1   --> A              
     e(  7 -  7) =     -5.75968  eV     1   --> A              
     e(  8 -  8) =     -5.33882  eV     1   --> A              
     e(  9 -  9) =     -2.99868  eV     1   --> A              
     e( 10 - 10) =     -2.94354  eV     1   --> A              
     e( 11 - 11) =     -2.85205  eV     1   --> A              
     e( 12 - 12) =     -2.44310  eV     1   --> A              
     e( 13 - 13) =     -0.52346  eV     1   --> A              
     e( 14 - 14) =     -0.23563  eV     1   --> A              
     e( 15 - 15) =     -0.05282  eV     1   --> A              
     e( 16 - 16) =      0.39879  eV     1   --> A              
     e( 17 - 17) =      0.59840  eV     1   --> A              
     e( 18 - 18) =      1.01043  eV     1   --> A              
     e( 19 - 19) =      1.08364  eV     1   --> A              
     e( 20 - 20) =      1.50373  eV     1   --> A              
     e( 21 - 21) =      1.59034  eV     1   --> A              
     e( 22 - 22) =      1.75462  eV     1   --> A              
     e( 23 - 23) =      2.33961  eV     1   --> A              
     e( 24 - 24) =      2.42209  eV     1   --> A              
     e( 25 - 25) =      9.50364  eV     1   --> A              
     e( 26 - 26) =     12.02436  eV     1   --> A              
     e( 27 - 27) =     12.09889  eV     1   --> A              
     e( 28 - 28) =     12.57451  eV     1   --> A              
     e( 29 - 29) =     12.73911  eV     1   --> A              
     e( 30 - 30) =     13.59566  eV     1   --> A              
     e( 31 - 31) =     13.87062  eV     1   --> A              
     e( 32 - 32) =     14.74269  eV     1   --> A              
     e( 33 - 33) =     15.16513  eV     1   --> A              
     e( 34 - 34) =     15.25007  eV     1   --> A              
     e( 35 - 35) =     15.65636  eV     1   --> A              
     e( 36 - 36) =     16.05389  eV     1   --> A              

 **************************************************************************

 **************************************************************************

                    xk=(   0.25000,   0.14434,   0.00000  )

     Band symmetry, C_1 (1)     point group:

     e(  1 -  1) =    -16.59419  eV     1   --> A              
     e(  2 -  2) =    -15.44137  eV     1   --> A              
     e(  3 -  3) =    -15.20765  eV     1   --> A              
     e(  4 -  4) =    -14.62804  eV     1   --> A              
     e(  5 -  5) =    -14.57724  eV     1   --> A              
     e(  6 -  6) =    -14.55825  eV     1   --> A              
     e(  7 -  7) =     -5.76409  eV     1   --> A              
     e(  8 -  8) =     -5.31292  eV     1   --> A              
     e(  9 -  9) =     -3.01593  eV     1   --> A              
     e( 10 - 10) =     -2.94420  eV     1   --> A              
     e( 11 - 11) =     -2.85314  eV     1   --> A              
     e( 12 - 12) =     -2.42503  eV     1   --> A              
     e( 13 - 13) =     -0.52865  eV     1   --> A              
     e( 14 - 14) =     -0.22757  eV     1   --> A              
     e( 15 - 15) =     -0.05146  eV     1   --> A              
     e( 16 - 16) =      0.40755  eV     1   --> A              
     e( 17 - 17) =      0.56867  eV     1   --> A              
     e( 18 - 18) =      1.00309  eV     1   --> A              
     e( 19 - 19) =      1.07935  eV     1   --> A              
     e( 20 - 20) =      1.50058  eV     1   --> A              
     e( 21 - 21) =      1.58854  eV     1   --> A              
     e( 22 - 22) =      1.75138  eV     1   --> A              
     e( 23 - 23) =      2.34066  eV     1   --> A              
     e( 24 - 24) =      2.43048  eV     1   --> A              
     e( 25 - 25) =      9.56359  eV     1   --> A              
     e( 26 - 26) =     12.02942  eV     1   --> A              
     e( 27 - 27) =     12.10361  eV     1   --> A              
     e( 28 - 28) =     12.58395  eV     1   --> A              
     e( 29 - 29) =     12.76009  eV     1   --> A              
     e( 30 - 30) =     13.56019  eV     1   --> A              
     e( 31 - 31) =     13.86172  eV     1   --> A              
     e( 32 - 32) =     14.73498  eV     1   --> A              
     e( 33 - 33) =     15.17146  eV     1   --> A              
     e( 34 - 34) =     15.25071  eV     1   --> A              
     e( 35 - 35) =     15.59845  eV     1   --> A              
     e( 36 - 36) =     16.02771  eV     1   --> A              

 **************************************************************************

 **************************************************************************

                    xk=(   0.26000,   0.15011,   0.00000  )

     Band symmetry, C_1 (1)     point group:

     e(  1 -  1) =    -16.58056  eV     1   --> A              
     e(  2 -  2) =    -15.45752  eV     1   --> A              
     e(  3 -  3) =    -15.20594  eV     1   --> A              
     e(  4 -  4) =    -14.62966  eV     1   --> A              
     e(  5 -  5) =    -14.57912  eV     1   --> A              
     e(  6 -  6) =    -14.55944  eV     1   --> A              
     e(  7 -  7) =     -5.76848  eV     1   --> A              
     e(  8 -  8) =     -5.28665  eV     1   --> A              
     e(  9 -  9) =     -3.03374  eV     1   --> A              
     e( 10 - 10) =     -2.94460  eV     1   --> A              
     e( 11 - 11) =     -2.85414  eV     1   --> A              
     e( 12 - 12) =     -2.40688  eV     1   --> A              
     e( 13 - 13) =     -0.53322  eV     1   --> A              
     e( 14 - 14) =     -0.21966  eV     1   --> A              
     e( 15 - 15) =     -0.05034  eV     1   --> A              
     e( 16 - 16) =      0.41437  eV     1   --> A              
     e( 17 - 17) =      0.54083  eV     1   --> A              
     e( 18 - 18) =      0.99542  eV     1   --> A              
     e( 19 - 19) =      1.07458  eV     1   --> A              
     e( 20 - 20) =      1.49771  eV     1   --> A              
     e( 21 - 21) =      1.58632  eV     1   --> A              
     e( 22 - 22) =      1.74918  eV     1   --> A              
     e( 23 - 23) =      2.34136  eV     1   --> A              
     e( 24 - 24) =      2.43872  eV     1   --> A              
     e( 25 - 25) =      9.62473  eV     1   --> A              
     e( 26 - 26) =     12.03439  eV     1   --> A              
     e( 27 - 27) =     12.10846  eV     1   --> A              
     e( 28 - 28) =     12.59299  eV     1   --> A              
     e( 29 - 29) =     12.78172  eV     1   --> A              
     e( 30 - 30) =     13.52495  eV     1   --> A              
     e( 31 - 31) =     13.85312  eV     1   --> A              
     e( 32 - 32) =     14.72774  eV     1   --> A              
     e( 33 - 33) =     15.17856  eV     1   --> A              
     e( 34 - 34) =     15.25122  eV     1   --> A              
     e( 35 - 35) =     15.54011  eV     1   --> A              
     e( 36 - 36) =     16.00056  eV     1   --> A              

 **************************************************************************

 **************************************************************************

                    xk=(   0.27000,   0.15588,   0.00000  )

     Band symmetry, C_1 (1)     point group:

     e(  1 -  1) =    -16.56656  eV     1   --> A              
     e(  2 -  2) =    -15.47410  eV     1   --> A              
     e(  3 -  3) =    -15.20422  eV     1   --> A              
     e(  4 -  4) =    -14.63120  eV     1   --> A              
     e(  5 -  5) =    -14.58097  eV     1   --> A              
     e(  6 -  6) =    -14.56064  eV     1   --> A              
     e(  7 -  7) =     -5.77284  eV     1   --> A              
     e(  8 -  8) =     -5.26011  eV     1   --> A              
     e(  9 -  9) =     -3.05194  eV     1   --> A              
     e( 10 - 10) =     -2.94477  eV     1   --> A              
     e( 11 - 11) =     -2.85512  eV     1   --> A              
     e( 12 - 12) =     -2.38869  eV     1   --> A              
     e( 13 - 13) =     -0.53716  eV     1   --> A              
     e( 14 - 14) =     -0.21199  eV     1   --> A              
     e( 15 - 15) =     -0.04948  eV     1   --> A              
     e( 16 - 16) =      0.41769  eV     1   --> A              
     e( 17 - 17) =      0.51662  eV     1   --> A              
     e( 18 - 18) =      0.98743  eV     1   --> A              
     e( 19 - 19) =      1.06934  eV     1   --> A              
     e( 20 - 20) =      1.49512  eV     1   --> A              
     e( 21 - 21) =      1.58371  eV     1   --> A              
     e( 22 - 22) =      1.74802  eV     1   --> A              
     e( 23 - 23) =      2.34173  eV     1   --> A              
     e( 24 - 24) =      2.44676  eV     1   --> A              
     e( 25 - 25) =      9.68694  eV     1   --> A              
     e( 26 - 26) =     12.03889  eV     1   --> A              
     e( 27 - 27) =     12.11364  eV     1   --> A              
     e( 28 - 28) =     12.60140  eV     1   --> A              
     e( 29 - 29) =     12.80400  eV     1   --> A              
     e( 30 - 30) =     13.49042  eV     1   --> A              
     e( 31 - 31) =     13.84479  eV     1   --> A              
     e( 32 - 32) =     14.72096  eV     1   --> A              
     e( 33 - 33) =     15.18593  eV     1   --> A              
     e( 34 - 34) =     15.25146  eV     1   --> A              
     e( 35 - 35) =     15.48206  eV     1   --> A              
     e( 36 - 36) =     15.97272  eV     1   --> A              

 **************************************************************************

 **************************************************************************

                    xk=(   0.28000,   0.16166,   0.00000  )

     Band symmetry, C_1 (1)     point group:

     e(  1 -  1) =    -16.55223  eV     1   --> A              
     e(  2 -  2) =    -15.49105  eV     1   --> A              
     e(  3 -  3) =    -15.20250  eV     1   --> A              
     e(  4 -  4) =    -14.63266  eV     1   --> A              
     e(  5 -  5) =    -14.58280  eV     1   --> A              
     e(  6 -  6) =    -14.56186  eV     1   --> A              
     e(  7 -  7) =     -5.77714  eV     1   --> A              
     e(  8 -  8) =     -5.23337  eV     1   --> A              
     e(  9 -  9) =     -3.07042  eV     1   --> A              
     e( 10 - 10) =     -2.94474  eV     1   --> A              
     e( 11 - 11) =     -2.85613  eV     1   --> A              
     e( 12 - 12) =     -2.37054  eV     1   --> A              
     e( 13 - 13) =     -0.54044  eV     1   --> A              
     e( 14 - 14) =     -0.20469  eV     1   --> A              
     e( 15 - 15) =     -0.04887  eV     1   --> A              
     e( 16 - 16) =      0.41467  eV     1   --> A              
     e( 17 - 17) =      0.49909  eV     1   --> A              
     e( 18 - 18) =      0.97916  eV     1   --> A              
     e( 19 - 19) =      1.06364  eV     1   --> A              
     e( 20 - 20) =      1.49280  eV     1   --> A              
     e( 21 - 21) =      1.58079  eV     1   --> A              
     e( 22 - 22) =      1.74784  eV     1   --> A              
     e( 23 - 23) =      2.34177  eV     1   --> A              
     e( 24 - 24) =      2.45460  eV     1   --> A              
     e( 25 - 25) =      9.75010  eV     1   --> A              
     e( 26 - 26) =     12.04250  eV     1   --> A              
     e( 27 - 27) =     12.11940  eV     1   --> A              
     e( 28 - 28) =     12.60897  eV     1   --> A              
     e( 29 - 29) =     12.82692  eV     1   --> A              
     e( 30 - 30) =     13.45700  eV     1   --> A              
     e( 31 - 31) =     13.83677  eV     1   --> A              
     e( 32 - 32) =     14.71457  eV     1   --> A              
     e( 33 - 33) =     15.19249  eV     1   --> A              
     e( 34 - 34) =     15.25125  eV     1   --> A              
     e( 35 - 35) =     15.42553  eV     1   --> A              
     e( 36 - 36) =     15.94447  eV     1   --> A              

 **************************************************************************

 **************************************************************************

                    xk=(   0.29000,   0.16743,   0.00000  )

     Band symmetry, C_1 (1)     point group:

     e(  1 -  1) =    -16.53759  eV     1   --> A              
     e(  2 -  2) =    -15.50834  eV     1   --> A              
     e(  3 -  3) =    -15.20079  eV     1   --> A              
     e(  4 -  4) =    -14.63403  eV     1   --> A              
     e(  5 -  5) =    -14.58460  eV     1   --> A              
     e(  6 -  6) =    -14.56308  eV     1   --> A              
     e(  7 -  7) =     -5.78139  eV     1   --> A              
     e(  8 -  8) =     -5.20653  eV     1   --> A              
     e(  9 -  9) =     -3.08908  eV     1   --> A              
     e( 10 - 10) =     -2.94452  eV     1   --> A              
     e( 11 - 11) =     -2.85719  eV     1   --> A              
     e( 12 - 12) =     -2.35248  eV     1   --> A              
     e( 13 - 13) =     -0.54305  eV     1   --> A              
     e( 14 - 14) =     -0.19791  eV     1   --> A              
     e( 15 - 15) =     -0.04856  eV     1   --> A              
     e( 16 - 16) =      0.40299  eV     1   --> A              
     e( 17 - 17) =      0.49077  eV     1   --> A              
     e( 18 - 18) =      0.97061  eV     1   --> A              
     e( 19 - 19) =      1.05748  eV     1   --> A              
     e( 20 - 20) =      1.49075  eV     1   --> A              
     e( 21 - 21) =      1.57764  eV     1   --> A              
     e( 22 - 22) =      1.74855  eV     1   --> A              
     e( 23 - 23) =      2.34150  eV     1   --> A              
     e( 24 - 24) =      2.46222  eV     1   --> A              
     e( 25 - 25) =      9.81409  eV     1   --> A              
     e( 26 - 26) =     12.04471  eV     1   --> A              
     e( 27 - 27) =     12.12603  eV     1   --> A              
     e( 28 - 28) =     12.61546  eV     1   --> A              
     e( 29 - 29) =     12.85046  eV     1   --> A              
     e( 30 - 30) =     13.42510  eV     1   --> A              
     e( 31 - 31) =     13.82917  eV     1   --> A              
     e( 32 - 32) =     14.70853  eV     1   --> A              
     e( 33 - 33) =     15.19556  eV     1   --> A              
     e( 34 - 34) =     15.25069  eV     1   --> A              
     e( 35 - 35) =     15.37310  eV     1   --> A              
     e( 36 - 36) =     15.91607  eV     1   --> A              

 **************************************************************************

 **************************************************************************

                    xk=(   0.30000,   0.17321,   0.00000  )

     Band symmetry, C_1 (1)     point group:

     e(  1 -  1) =    -16.52267  eV     1   --> A              
     e(  2 -  2) =    -15.52592  eV     1   --> A              
     e(  3 -  3) =    -15.19910  eV     1   --> A              
     e(  4 -  4) =    -14.63531  eV     1   --> A              
     e(  5 -  5) =    -14.58635  eV     1   --> A              
     e(  6 -  6) =    -14.56430  eV     1   --> A              
     e(  7 -  7) =     -5.78554  eV     1   --> A              
     e(  8 -  8) =     -5.17970  eV     1   --> A              
     e(  9 -  9) =     -3.10782  eV     1   --> A              
[...]
     e(  8 -  8) =     -5.40414  eV     1   --> A              
     e(  9 -  9) =     -2.95653  eV     1   --> A              
     e( 10 - 10) =     -2.89422  eV     1   --> A              
     e( 11 - 11) =     -2.77930  eV     1   --> A              
     e( 12 - 12) =     -2.61732  eV     1   --> A              
     e( 13 - 13) =     -0.42080  eV     1   --> A              
     e( 14 - 14) =     -0.29164  eV     1   --> A              
     e( 15 - 15) =     -0.08113  eV     1   --> A              
     e( 16 - 16) =      0.21804  eV     1   --> A              
     e( 17 - 17) =      0.98522  eV     1   --> A              
     e( 18 - 18) =      1.08345  eV     1   --> A              
     e( 19 - 19) =      1.10724  eV     1   --> A              
     e( 20 - 20) =      1.47327  eV     1   --> A              
     e( 21 - 21) =      1.64770  eV     1   --> A              
     e( 22 - 22) =      1.88835  eV     1   --> A              
     e( 23 - 23) =      2.24229  eV     1   --> A              
     e( 24 - 24) =      2.36634  eV     1   --> A              
     e( 25 - 25) =      8.84666  eV     1   --> A              
     e( 26 - 26) =     11.95195  eV     1   --> A              
     e( 27 - 27) =     12.06112  eV     1   --> A              
     e( 28 - 28) =     12.37672  eV     1   --> A              
     e( 29 - 29) =     12.58367  eV     1   --> A              
     e( 30 - 30) =     13.78792  eV     1   --> A              
     e( 31 - 31) =     14.16190  eV     1   --> A              
     e( 32 - 32) =     14.93228  eV     1   --> A              
     e( 33 - 33) =     15.17054  eV     1   --> A              
     e( 34 - 34) =     15.35451  eV     1   --> A              
     e( 35 - 35) =     15.96388  eV     1   --> A              
     e( 36 - 36) =     16.25196  eV     1   --> A              

 **************************************************************************

 **************************************************************************

                    xk=(   0.04000,   0.06928,   0.05455  )

     Band symmetry, C_1 (1)     point group:

     e(  1 -  1) =    -16.75114  eV     1   --> A              
     e(  2 -  2) =    -15.37049  eV     1   --> A              
     e(  3 -  3) =    -15.11640  eV     1   --> A              
     e(  4 -  4) =    -14.59418  eV     1   --> A              
     e(  5 -  5) =    -14.55112  eV     1   --> A              
     e(  6 -  6) =    -14.54097  eV     1   --> A              
     e(  7 -  7) =     -5.89732  eV     1   --> A              
     e(  8 -  8) =     -5.44693  eV     1   --> A              
     e(  9 -  9) =     -2.94281  eV     1   --> A              
     e( 10 - 10) =     -2.89117  eV     1   --> A              
     e( 11 - 11) =     -2.77774  eV     1   --> A              
     e( 12 - 12) =     -2.63119  eV     1   --> A              
     e( 13 - 13) =     -0.40930  eV     1   --> A              
     e( 14 - 14) =     -0.30095  eV     1   --> A              
     e( 15 - 15) =     -0.08592  eV     1   --> A              
     e( 16 - 16) =      0.20328  eV     1   --> A              
     e( 17 - 17) =      1.01191  eV     1   --> A              
     e( 18 - 18) =      1.08445  eV     1   --> A              
     e( 19 - 19) =      1.10771  eV     1   --> A              
     e( 20 - 20) =      1.49430  eV     1   --> A              
     e( 21 - 21) =      1.64217  eV     1   --> A              
     e( 22 - 22) =      1.89246  eV     1   --> A              
     e( 23 - 23) =      2.24431  eV     1   --> A              
     e( 24 - 24) =      2.34877  eV     1   --> A              
     e( 25 - 25) =      8.80752  eV     1   --> A              
     e( 26 - 26) =     11.95901  eV     1   --> A              
     e( 27 - 27) =     12.05442  eV     1   --> A              
     e( 28 - 28) =     12.38901  eV     1   --> A              
     e( 29 - 29) =     12.56329  eV     1   --> A              
     e( 30 - 30) =     13.78174  eV     1   --> A              
     e( 31 - 31) =     14.20192  eV     1   --> A              
     e( 32 - 32) =     14.94265  eV     1   --> A              
     e( 33 - 33) =     15.20214  eV     1   --> A              
     e( 34 - 34) =     15.35836  eV     1   --> A              
     e( 35 - 35) =     15.96955  eV     1   --> A              
     e( 36 - 36) =     16.20928  eV     1   --> A              

 **************************************************************************

 **************************************************************************

                    xk=(   0.03333,   0.05773,   0.04545  )

     Band symmetry, C_1 (1)     point group:

     e(  1 -  1) =    -16.75766  eV     1   --> A              
     e(  2 -  2) =    -15.34700  eV     1   --> A              
     e(  3 -  3) =    -15.13389  eV     1   --> A              
     e(  4 -  4) =    -14.59287  eV     1   --> A              
     e(  5 -  5) =    -14.54956  eV     1   --> A              
     e(  6 -  6) =    -14.54117  eV     1   --> A              
     e(  7 -  7) =     -5.86689  eV     1   --> A              
     e(  8 -  8) =     -5.48937  eV     1   --> A              
     e(  9 -  9) =     -2.93188  eV     1   --> A              
     e( 10 - 10) =     -2.88886  eV     1   --> A              
     e( 11 - 11) =     -2.77315  eV     1   --> A              
     e( 12 - 12) =     -2.64522  eV     1   --> A              
     e( 13 - 13) =     -0.39817  eV     1   --> A              
     e( 14 - 14) =     -0.30982  eV     1   --> A              
     e( 15 - 15) =     -0.08985  eV     1   --> A              
     e( 16 - 16) =      0.18980  eV     1   --> A              
     e( 17 - 17) =      1.03481  eV     1   --> A              
     e( 18 - 18) =      1.08533  eV     1   --> A              
     e( 19 - 19) =      1.10832  eV     1   --> A              
     e( 20 - 20) =      1.51456  eV     1   --> A              
     e( 21 - 21) =      1.63626  eV     1   --> A              
     e( 22 - 22) =      1.89611  eV     1   --> A              
     e( 23 - 23) =      2.24668  eV     1   --> A              
     e( 24 - 24) =      2.33193  eV     1   --> A              
     e( 25 - 25) =      8.77402  eV     1   --> A              
     e( 26 - 26) =     11.96668  eV     1   --> A              
     e( 27 - 27) =     12.04767  eV     1   --> A              
     e( 28 - 28) =     12.40136  eV     1   --> A              
     e( 29 - 29) =     12.54405  eV     1   --> A              
     e( 30 - 30) =     13.77531  eV     1   --> A              
     e( 31 - 31) =     14.23833  eV     1   --> A              
     e( 32 - 32) =     14.94650  eV     1   --> A              
     e( 33 - 33) =     15.23853  eV     1   --> A              
     e( 34 - 34) =     15.36173  eV     1   --> A              
     e( 35 - 35) =     15.97264  eV     1   --> A              
     e( 36 - 36) =     16.16561  eV     1   --> A              

 **************************************************************************

 **************************************************************************

                    xk=(   0.02667,   0.04619,   0.03636  )

     Band symmetry, C_1 (1)     point group:

     e(  1 -  1) =    -16.76302  eV     1   --> A              
     e(  2 -  2) =    -15.32369  eV     1   --> A              
     e(  3 -  3) =    -15.15231  eV     1   --> A              
     e(  4 -  4) =    -14.59176  eV     1   --> A              
     e(  5 -  5) =    -14.54814  eV     1   --> A              
     e(  6 -  6) =    -14.54147  eV     1   --> A              
     e(  7 -  7) =     -5.83479  eV     1   --> A              
     e(  8 -  8) =     -5.53134  eV     1   --> A              
     e(  9 -  9) =     -2.92336  eV     1   --> A              
     e( 10 - 10) =     -2.88761  eV     1   --> A              
     e( 11 - 11) =     -2.76561  eV     1   --> A              
     e( 12 - 12) =     -2.65940  eV     1   --> A              
     e( 13 - 13) =     -0.38752  eV     1   --> A              
     e( 14 - 14) =     -0.31828  eV     1   --> A              
     e( 15 - 15) =     -0.09296  eV     1   --> A              
     e( 16 - 16) =      0.17801  eV     1   --> A              
     e( 17 - 17) =      1.05353  eV     1   --> A              
     e( 18 - 18) =      1.08604  eV     1   --> A              
     e( 19 - 19) =      1.10923  eV     1   --> A              
     e( 20 - 20) =      1.53369  eV     1   --> A              
     e( 21 - 21) =      1.62980  eV     1   --> A              
     e( 22 - 22) =      1.89926  eV     1   --> A              
     e( 23 - 23) =      2.24953  eV     1   --> A              
     e( 24 - 24) =      2.31621  eV     1   --> A              
     e( 25 - 25) =      8.74634  eV     1   --> A              
     e( 26 - 26) =     11.97483  eV     1   --> A              
     e( 27 - 27) =     12.04071  eV     1   --> A              
     e( 28 - 28) =     12.41374  eV     1   --> A              
     e( 29 - 29) =     12.52601  eV     1   --> A              
     e( 30 - 30) =     13.76925  eV     1   --> A              
     e( 31 - 31) =     14.27004  eV     1   --> A              
     e( 32 - 32) =     14.94640  eV     1   --> A              
     e( 33 - 33) =     15.27584  eV     1   --> A              
     e( 34 - 34) =     15.36461  eV     1   --> A              
     e( 35 - 35) =     15.97445  eV     1   --> A              
     e( 36 - 36) =     16.12299  eV     1   --> A              

 **************************************************************************

 **************************************************************************

                    xk=(   0.02000,   0.03464,   0.02727  )

     Band symmetry, C_1 (1)     point group:

     e(  1 -  1) =    -16.76719  eV     1   --> A              
     e(  2 -  2) =    -15.30063  eV     1   --> A              
     e(  3 -  3) =    -15.17158  eV     1   --> A              
     e(  4 -  4) =    -14.59086  eV     1   --> A              
     e(  5 -  5) =    -14.54687  eV     1   --> A              
     e(  6 -  6) =    -14.54189  eV     1   --> A              
     e(  7 -  7) =     -5.80112  eV     1   --> A              
     e(  8 -  8) =     -5.57270  eV     1   --> A              
     e(  9 -  9) =     -2.91679  eV     1   --> A              
     e( 10 - 10) =     -2.88745  eV     1   --> A              
     e( 11 - 11) =     -2.75558  eV     1   --> A              
     e( 12 - 12) =     -2.67370  eV     1   --> A              
     e( 13 - 13) =     -0.37743  eV     1   --> A              
     e( 14 - 14) =     -0.32644  eV     1   --> A              
     e( 15 - 15) =     -0.09530  eV     1   --> A              
     e( 16 - 16) =      0.16834  eV     1   --> A              
     e( 17 - 17) =      1.06775  eV     1   --> A              
     e( 18 - 18) =      1.08657  eV     1   --> A              
     e( 19 - 19) =      1.11055  eV     1   --> A              
     e( 20 - 20) =      1.55137  eV     1   --> A              
     e( 21 - 21) =      1.62259  eV     1   --> A              
     e( 22 - 22) =      1.90184  eV     1   --> A              
     e( 23 - 23) =      2.25304  eV     1   --> A              
     e( 24 - 24) =      2.30197  eV     1   --> A              
     e( 25 - 25) =      8.72464  eV     1   --> A              
     e( 26 - 26) =     11.98333  eV     1   --> A              
     e( 27 - 27) =     12.03344  eV     1   --> A              
     e( 28 - 28) =     12.42616  eV     1   --> A              
     e( 29 - 29) =     12.50916  eV     1   --> A              
     e( 30 - 30) =     13.76406  eV     1   --> A              
     e( 31 - 31) =     14.29605  eV     1   --> A              
     e( 32 - 32) =     14.94442  eV     1   --> A              
     e( 33 - 33) =     15.31041  eV     1   --> A              
     e( 34 - 34) =     15.36690  eV     1   --> A              
     e( 35 - 35) =     15.97646  eV     1   --> A              
     e( 36 - 36) =     16.08347  eV     1   --> A              

 **************************************************************************

 **************************************************************************

                    xk=(   0.01333,   0.02309,   0.01818  )

     Band symmetry, C_1 (1)     point group:

     e(  1 -  1) =    -16.77018  eV     1   --> A              
     e(  2 -  2) =    -15.27790  eV     1   --> A              
     e(  3 -  3) =    -15.19162  eV     1   --> A              
     e(  4 -  4) =    -14.59020  eV     1   --> A              
     e(  5 -  5) =    -14.54573  eV     1   --> A              
     e(  6 -  6) =    -14.54242  eV     1   --> A              
     e(  7 -  7) =     -5.76601  eV     1   --> A              
     e(  8 -  8) =     -5.61332  eV     1   --> A              
     e(  9 -  9) =     -2.91190  eV     1   --> A              
     e( 10 - 10) =     -2.88808  eV     1   --> A              
     e( 11 - 11) =     -2.74368  eV     1   --> A              
     e( 12 - 12) =     -2.68809  eV     1   --> A              
     e( 13 - 13) =     -0.36792  eV     1   --> A              
     e( 14 - 14) =     -0.33442  eV     1   --> A              
     e( 15 - 15) =     -0.09692  eV     1   --> A              
     e( 16 - 16) =      0.16113  eV     1   --> A              
     e( 17 - 17) =      1.07742  eV     1   --> A              
     e( 18 - 18) =      1.08684  eV     1   --> A              
     e( 19 - 19) =      1.11222  eV     1   --> A              
     e( 20 - 20) =      1.56739  eV     1   --> A              
     e( 21 - 21) =      1.61441  eV     1   --> A              
     e( 22 - 22) =      1.90376  eV     1   --> A              
     e( 23 - 23) =      2.25744  eV     1   --> A              
     e( 24 - 24) =      2.28946  eV     1   --> A              
     e( 25 - 25) =      8.70905  eV     1   --> A              
     e( 26 - 26) =     11.99202  eV     1   --> A              
     e( 27 - 27) =     12.02578  eV     1   --> A              
     e( 28 - 28) =     12.43871  eV     1   --> A              
     e( 29 - 29) =     12.49342  eV     1   --> A              
     e( 30 - 30) =     13.76010  eV     1   --> A              
     e( 31 - 31) =     14.31542  eV     1   --> A              
     e( 32 - 32) =     14.94200  eV     1   --> A              
     e( 33 - 33) =     15.33875  eV     1   --> A              
     e( 34 - 34) =     15.36848  eV     1   --> A              
     e( 35 - 35) =     15.98031  eV     1   --> A              
     e( 36 - 36) =     16.04901  eV     1   --> A              

 **************************************************************************

 **************************************************************************

                    xk=(   0.00667,   0.01155,   0.00909  )

     Band symmetry, C_1 (1)     point group:

     e(  1 -  1) =    -16.77198  eV     1   --> A              
     e(  2 -  2) =    -15.25556  eV     1   --> A              
     e(  3 -  3) =    -15.21234  eV     1   --> A              
     e(  4 -  4) =    -14.58980  eV     1   --> A              
     e(  5 -  5) =    -14.54472  eV     1   --> A              
     e(  6 -  6) =    -14.54307  eV     1   --> A              
     e(  7 -  7) =     -5.72955  eV     1   --> A              
     e(  8 -  8) =     -5.65309  eV     1   --> A              
     e(  9 -  9) =     -2.90871  eV     1   --> A              
     e( 10 - 10) =     -2.88895  eV     1   --> A              
     e( 11 - 11) =     -2.73056  eV     1   --> A              
     e( 12 - 12) =     -2.70247  eV     1   --> A              
     e( 13 - 13) =     -0.35898  eV     1   --> A              
     e( 14 - 14) =     -0.34238  eV     1   --> A              
     e( 15 - 15) =     -0.09787  eV     1   --> A              
     e( 16 - 16) =      0.15669  eV     1   --> A              
     e( 17 - 17) =      1.08305  eV     1   --> A              
     e( 18 - 18) =      1.08670  eV     1   --> A              
     e( 19 - 19) =      1.11375  eV     1   --> A              
     e( 20 - 20) =      1.58165  eV     1   --> A              
     e( 21 - 21) =      1.60501  eV     1   --> A              
     e( 22 - 22) =      1.90496  eV     1   --> A              
     e( 23 - 23) =      2.26302  eV     1   --> A              
     e( 24 - 24) =      2.27883  eV     1   --> A              
     e( 25 - 25) =      8.69966  eV     1   --> A              
     e( 26 - 26) =     12.00075  eV     1   --> A              
     e( 27 - 27) =     12.01774  eV     1   --> A              
     e( 28 - 28) =     12.45153  eV     1   --> A              
     e( 29 - 29) =     12.47869  eV     1   --> A              
     e( 30 - 30) =     13.75762  eV     1   --> A              
     e( 31 - 31) =     14.32739  eV     1   --> A              
     e( 32 - 32) =     14.94015  eV     1   --> A              
     e( 33 - 33) =     15.35793  eV     1   --> A              
     e( 34 - 34) =     15.36898  eV     1   --> A              
     e( 35 - 35) =     15.98786  eV     1   --> A              
     e( 36 - 36) =     16.02126  eV     1   --> A              

 **************************************************************************

 **************************************************************************

                    xk=(   0.00000,   0.00000,   0.00000  )

     point group D_3 (32)   
     there are  3 classes
     the character table:

       E     2C3   3C2' 
A_1    1.00  1.00  1.00
A_2    1.00  1.00 -1.00
E      2.00 -1.00  0.00

     the symmetry operations in each class and the name of the first element:

     E        1
                                                                 
     2C3      3    4
                                                                 
     3C2'     2    5    6
                                                                 

     Band symmetry, D_3 (32)    point group:

     e(  1 -  1) =    -16.77258  eV     1   --> A_1            
     e(  2 -  3) =    -15.23368  eV     2   --> E              
     e(  4 -  4) =    -14.58966  eV     1   --> A_2            
     e(  5 -  6) =    -14.54384  eV     2   --> E              
     e(  7 -  8) =     -5.69187  eV     2   --> E              
     e(  9 -  9) =     -2.90756  eV     1   --> A_2            
     e( 10 - 10) =     -2.88937  eV     1   --> A_1            
     e( 11 - 12) =     -2.71671  eV     2   --> E              
     e( 13 - 14) =     -0.35052  eV     2   --> E              
     e( 15 - 15) =     -0.09819  eV     1   --> A_1            
     e( 16 - 16) =      0.15518  eV     1   --> A_2            
     e( 17 - 18) =      1.08573  eV     2   --> E              
     e( 19 - 19) =      1.11438  eV     1   --> A_2            
     e( 20 - 21) =      1.59415  eV     2   --> E              
     e( 22 - 22) =      1.90537  eV     1   --> A_1            
     e( 23 - 24) =      2.27006  eV     2   --> E              
     e( 25 - 25) =      8.69652  eV     1   --> A_1            
     e( 26 - 27) =     12.00936  eV     2   --> E              
     e( 28 - 29) =     12.46479  eV     2   --> E              
     e( 30 - 30) =     13.75678  eV     1   --> A_1            
     e( 31 - 31) =     14.33144  eV     1   --> A_2            
     e( 32 - 32) =     14.93947  eV     1   --> A_1            
     e( 33 - 34) =     15.36689  eV     2   --> E              
     e( 35 - 36) =     16.00102  eV     2   --> E              

 **************************************************************************

     BANDS        :   5m26.22s CPU   5m52.66s WALL


   This run was terminated on:  10:26: 2  24Feb2026            

=------------------------------------------------------------------------------=
   JOB DONE.
=------------------------------------------------------------------------------=
