
     Program PWSCF v.7.3.1 starts on  5Feb2026 at 15:54: 8 

     This program is part of the open-source Quantum ESPRESSO suite
     for quantum simulation of materials; please cite
         "P. Giannozzi et al., J. Phys.:Condens. Matter 21 395502 (2009);
         "P. Giannozzi et al., J. Phys.:Condens. Matter 29 465901 (2017);
         "P. Giannozzi et al., J. Chem. Phys. 152 154105 (2020);
          URL http://www.quantum-espresso.org", 
     in publications or presentations arising from this work. More details at
     http://www.quantum-espresso.org/quote

     Parallel version (MPI), running on   128 processors

     MPI processes distributed on     1 nodes
     242460 MiB available memory on the printing compute node when the environment starts

     Waiting for input...
     Reading input from standard input

     Current dimensions of program PWSCF are:
     Max number of different atomic species (ntypx) = 10
     Max number of k-points (npk) =  40000
     Max angular momentum in pseudopotentials (lmaxx) =  4

     K-points division:     npool     =       8
     R & G space division:  proc/nbgrp/npool/nimage =      16
     Subspace diagonalization in iterative solution of the eigenvalue problem:
     a serial algorithm will be used


     Parallelization info
     --------------------
     sticks:   dense  smooth     PW     G-vecs:    dense   smooth      PW
     Min         137     137     42                 3080     3080     542
     Max         138     138     43                 3082     3082     545
     Sum        2201    2201    685                49295    49295    8699

     Using Slab Decomposition



     bravais-lattice index     =            7
     lattice parameter (alat)  =      11.0200  a.u.
     unit-cell volume          =     365.0809 (a.u.)^3
     number of atoms/cell      =            2
     number of atomic types    =            1
     number of electrons       =        28.00
     number of Kohn-Sham states=           14
     kinetic-energy cutoff     =     100.0000  Ry
     charge density cutoff     =     400.0000  Ry
     scf convergence threshold =      1.0E-07
     mixing beta               =       0.7000
     number of iterations used =            8  plain     mixing
     Exchange-correlation=  SLA  PW   GGX  GGC
                           (   1   4   2   2   0   0   0)

     celldm(1)=  11.020000  celldm(2)=   0.000000  celldm(3)=   0.545600
     celldm(4)=   0.000000  celldm(5)=   0.000000  celldm(6)=   0.000000

     crystal axes: (cart. coord. in units of alat)
               a(1) = (   0.500000  -0.500000   0.272800 )  
               a(2) = (   0.500000   0.500000   0.272800 )  
               a(3) = (  -0.500000  -0.500000   0.272800 )  

     reciprocal axes: (cart. coord. in units 2 pi/alat)
               b(1) = (  1.000000 -1.000000  0.000000 )  
               b(2) = (  0.000000  1.000000  1.832845 )  
               b(3) = ( -1.000000  0.000000  1.832845 )  


     PseudoPot. # 1 for Sn read from file:
     ./Sn.pw91-n-van.UPF
     MD5 check sum: a38d2a872edd1a4efd76c0a1a38f7031
     Pseudo is Ultrasoft + core correction, Zval = 14.0
     Generated by new atomic code, or converted to UPF format
     Using radial grid of  891 points,  6 beta functions with: 
                l(1) =   0
                l(2) =   0
                l(3) =   1
                l(4) =   1
                l(5) =   2
                l(6) =   2
     Q(r) pseudized with  8 coefficients,  rinner =    1.100   1.100   1.100
                                                       1.100   1.100

     atomic species   valence    mass     pseudopotential
     Sn               14.00   118.70000     Sn( 1.00)

     16 Sym. Ops., with inversion, found (12 have fractional translation)



   Cartesian axes

     site n.     atom                  positions (alat units)
         1        Sn     tau(   1) = (   0.0000000  -0.2500000   0.0682000  )
         2        Sn     tau(   2) = (   0.0000000   0.2500000  -0.0682000  )

     number of k points=    13
                       cart. coord. in units 2pi/alat
        k(    1) = (   0.0000000   0.0000000   0.0000000), wk =   0.0312500
        k(    2) = (  -0.2500000   0.0000000   0.4582111), wk =   0.2500000
        k(    3) = (   0.5000000   0.0000000  -0.9164223), wk =   0.1250000
        k(    4) = (  -0.2500000   0.2500000   0.9164223), wk =   0.2500000
        k(    5) = (   0.5000000   0.2500000  -0.4582111), wk =   0.5000000
        k(    6) = (   0.2500000   0.2500000   0.0000000), wk =   0.1250000
        k(    7) = (   0.5000000  -0.5000000  -1.8328446), wk =   0.0625000
        k(    8) = (   0.0000000   0.0000000   0.9164223), wk =   0.0625000
        k(    9) = (   0.7500000   0.0000000  -0.4582111), wk =   0.2500000
        k(   10) = (   0.5000000   0.0000000   0.0000000), wk =   0.1250000
        k(   11) = (   0.7500000  -0.7500000  -1.8328446), wk =   0.1250000
        k(   12) = (   0.5000000  -0.5000000  -0.9164223), wk =   0.0625000
        k(   13) = (   0.0000000   0.0000000  -1.8328446), wk =   0.0312500

     Dense  grid:    49295 G-vectors     FFT dimensions: (  54,  54,  54)

     Estimated max dynamical RAM per process >       5.29 MB

     Estimated total dynamical RAM >     593.05 MB

     Initial potential from superposition of free atoms

     starting charge      27.9964, renormalised to      28.0000
     Starting wfcs are   18 randomized atomic wfcs

     total cpu time spent up to now is        0.6 secs

     per-process dynamical memory:    12.8 Mb

     Self-consistent Calculation

     iteration #  1     ecut=   100.00 Ry     beta= 0.70
     Davidson diagonalization with overlap
     ethr =  1.00E-02,  avg # of iterations =  1.8

     Threshold (ethr) on eigenvalues was too large:
     Diagonalizing with lowered threshold

     Davidson diagonalization with overlap
     ethr =  2.40E-05,  avg # of iterations =  3.8

     total cpu time spent up to now is        0.8 secs

     total energy              =    -325.57176921 Ry
     estimated scf accuracy    <       0.00692957 Ry

     iteration #  2     ecut=   100.00 Ry     beta= 0.70
     Davidson diagonalization with overlap
     ethr =  2.47E-05,  avg # of iterations =  2.0

     total cpu time spent up to now is        0.9 secs

     total energy              =    -325.57273721 Ry
     estimated scf accuracy    <       0.00055899 Ry

     iteration #  3     ecut=   100.00 Ry     beta= 0.70
     Davidson diagonalization with overlap
     ethr =  2.00E-06,  avg # of iterations =  2.4

     total cpu time spent up to now is        1.0 secs

     total energy              =    -325.57280451 Ry
     estimated scf accuracy    <       0.00004335 Ry

     iteration #  4     ecut=   100.00 Ry     beta= 0.70
     Davidson diagonalization with overlap
     ethr =  1.55E-07,  avg # of iterations =  2.8

     total cpu time spent up to now is        1.0 secs

     total energy              =    -325.57280947 Ry
     estimated scf accuracy    <       0.00000023 Ry

     iteration #  5     ecut=   100.00 Ry     beta= 0.70
     Davidson diagonalization with overlap
     ethr =  8.34E-10,  avg # of iterations =  4.5

     total cpu time spent up to now is        1.1 secs

     End of self-consistent calculation

          k = 0.0000 0.0000 0.0000 (  6145 PWs)   bands (ev):

   -10.8048 -10.7220 -10.6780 -10.6668 -10.5165 -10.5165 -10.5054 -10.5054
   -10.4133 -10.3013  -0.3473   7.1611   8.8398   8.8398

          k =-0.2500 0.0000 0.4582 (  6186 PWs)   bands (ev):

   -10.7689 -10.6407 -10.6362 -10.5950 -10.5724 -10.5311 -10.5227 -10.4998
   -10.4343 -10.3358   0.8909   6.5838   9.0441  11.2832

          k = 0.5000 0.0000-0.9164 (  6142 PWs)   bands (ev):

   -10.7295 -10.6589 -10.6421 -10.6027 -10.5685 -10.5656 -10.4667 -10.4197
   -10.4160 -10.3694   3.8532   5.3956   8.4873   9.1143

          k =-0.2500 0.2500 0.9164 (  6159 PWs)   bands (ev):

   -10.7434 -10.6555 -10.6122 -10.5951 -10.5933 -10.5427 -10.4840 -10.4644
   -10.3881 -10.3603   3.7386   6.0509   7.1233   9.1084

          k = 0.5000 0.2500-0.4582 (  6152 PWs)   bands (ev):

   -10.7121 -10.6526 -10.6489 -10.5948 -10.5776 -10.5205 -10.4867 -10.4792
   -10.4620 -10.3976   2.0034   4.1409   9.3956  10.6282

          k = 0.2500 0.2500 0.0000 (  6179 PWs)   bands (ev):

   -10.7548 -10.7289 -10.6936 -10.6362 -10.5433 -10.4958 -10.4941 -10.4861
   -10.4427 -10.3499   0.2174   4.5877   9.5064  10.5379

          k = 0.5000-0.5000-1.8328 (  6196 PWs)   bands (ev):

   -10.7253 -10.7253 -10.6373 -10.6373 -10.5431 -10.5431 -10.4718 -10.4718
   -10.4327 -10.4327   1.9005   1.9005  11.4185  11.4185

          k = 0.0000 0.0000 0.9164 (  6158 PWs)   bands (ev):

   -10.7350 -10.6272 -10.6272 -10.6075 -10.5626 -10.5626 -10.5388 -10.4451
   -10.3906 -10.3447   3.2953   7.1430   7.9731   9.4591

          k = 0.7500 0.0000-0.4582 (  6167 PWs)   bands (ev):

   -10.6993 -10.6570 -10.5943 -10.5848 -10.5503 -10.5336 -10.5228 -10.4860
   -10.4799 -10.4237   3.0225   4.3596   7.2620   8.4575

          k = 0.5000 0.0000 0.0000 (  6172 PWs)   bands (ev):

   -10.7407 -10.7111 -10.6990 -10.6047 -10.5207 -10.5128 -10.5089 -10.4661
   -10.4637 -10.3948   0.7799   4.3542   7.0800  10.7928

          k = 0.7500-0.7500-1.8328 (  6174 PWs)   bands (ev):

   -10.7317 -10.7317 -10.5995 -10.5995 -10.5353 -10.5353 -10.4860 -10.4860
   -10.4573 -10.4573   2.4048   2.4048   7.9918   7.9918

          k = 0.5000-0.5000-0.9164 (  6132 PWs)   bands (ev):

   -10.7076 -10.7076 -10.6371 -10.6371 -10.5293 -10.5293 -10.4358 -10.4358
   -10.4088 -10.4088   4.8057   4.8057   7.2812   7.2812

          k = 0.0000 0.0000-1.8328 (  6190 PWs)   bands (ev):

   -10.7346 -10.7346 -10.5357 -10.5357 -10.5250 -10.5250 -10.5135 -10.5135
   -10.5008 -10.5008   3.2426   3.2426   6.0122   6.0122

     highest occupied level (ev):    11.4185

!    total energy              =    -325.57280965 Ry
     estimated scf accuracy    <          6.6E-09 Ry

     The total energy is the sum of the following terms:
     one-electron contribution =    -107.30795315 Ry
     hartree contribution      =      74.47164082 Ry
     xc contribution           =     -95.22119412 Ry
     ewald contribution        =    -197.51530320 Ry

     convergence has been achieved in   5 iterations

     Writing all to output data dir ./beta-sn-scf/betatin.save/ :
     XML data file, charge density, pseudopotentials, collected wavefunctions

     init_run     :      0.31s CPU      0.36s WALL (       1 calls)
     electrons    :      0.42s CPU      0.48s WALL (       1 calls)

     Called by init_run:
     wfcinit      :      0.02s CPU      0.03s WALL (       1 calls)
     potinit      :      0.02s CPU      0.03s WALL (       1 calls)
     hinit0       :      0.24s CPU      0.25s WALL (       1 calls)

     Called by electrons:
     c_bands      :      0.24s CPU      0.26s WALL (       6 calls)
     sum_band     :      0.07s CPU      0.08s WALL (       6 calls)
     v_of_rho     :      0.06s CPU      0.08s WALL (       6 calls)
     newd         :      0.02s CPU      0.03s WALL (       6 calls)
     mix_rho      :      0.01s CPU      0.01s WALL (       6 calls)

     Called by c_bands:
     init_us_2    :      0.00s CPU      0.01s WALL (      26 calls)
     cegterg      :      0.21s CPU      0.23s WALL (      12 calls)

     Called by *egterg:
     cdiaghg      :      0.02s CPU      0.02s WALL (      55 calls)
     h_psi        :      0.19s CPU      0.21s WALL (      59 calls)
     s_psi        :      0.00s CPU      0.00s WALL (      59 calls)
     g_psi        :      0.00s CPU      0.00s WALL (      45 calls)

     Called by h_psi:
     h_psi:calbec :      0.01s CPU      0.01s WALL (      59 calls)
     vloc_psi     :      0.18s CPU      0.20s WALL (      59 calls)
     add_vuspsi   :      0.00s CPU      0.00s WALL (      59 calls)

     General routines
     calbec       :      0.01s CPU      0.01s WALL (      71 calls)
     fft          :      0.23s CPU      0.24s WALL (      67 calls)
     ffts         :      0.00s CPU      0.00s WALL (       6 calls)
     fftw         :      0.19s CPU      0.21s WALL (    1110 calls)

     Parallel routines

     PWSCF        :      0.97s CPU      1.22s WALL


   This run was terminated on:  15:54: 9   5Feb2026            

=------------------------------------------------------------------------------=
   JOB DONE.
=------------------------------------------------------------------------------=
