
     Program PWSCF v.7.3.1 starts on  5Feb2026 at 15:54:25 

     This program is part of the open-source Quantum ESPRESSO suite
     for quantum simulation of materials; please cite
         "P. Giannozzi et al., J. Phys.:Condens. Matter 21 395502 (2009);
         "P. Giannozzi et al., J. Phys.:Condens. Matter 29 465901 (2017);
         "P. Giannozzi et al., J. Chem. Phys. 152 154105 (2020);
          URL http://www.quantum-espresso.org", 
     in publications or presentations arising from this work. More details at
     http://www.quantum-espresso.org/quote

     Parallel version (MPI), running on   128 processors

     MPI processes distributed on     1 nodes
     242456 MiB available memory on the printing compute node when the environment starts

     Waiting for input...
     Reading input from standard input

     Current dimensions of program PWSCF are:
     Max number of different atomic species (ntypx) = 10
     Max number of k-points (npk) =  40000
     Max angular momentum in pseudopotentials (lmaxx) =  4

     K-points division:     npool     =       8
     R & G space division:  proc/nbgrp/npool/nimage =      16
     Subspace diagonalization in iterative solution of the eigenvalue problem:
     a serial algorithm will be used


     Parallelization info
     --------------------
     sticks:   dense  smooth     PW     G-vecs:    dense   smooth      PW
     Min         142     142     44                 3267     3267     572
     Max         143     143     45                 3269     3269     573
     Sum        2287    2287    719                52299    52299    9155

     Using Slab Decomposition



     bravais-lattice index     =            7
     lattice parameter (alat)  =      11.0200  a.u.
     unit-cell volume          =     365.0809 (a.u.)^3
     number of atoms/cell      =            2
     number of atomic types    =            1
     number of electrons       =        28.00
     number of Kohn-Sham states=           14
     kinetic-energy cutoff     =     104.0000  Ry
     charge density cutoff     =     416.0000  Ry
     scf convergence threshold =      1.0E-07
     mixing beta               =       0.7000
     number of iterations used =            8  plain     mixing
     Exchange-correlation=  SLA  PW   GGX  GGC
                           (   1   4   2   2   0   0   0)

     celldm(1)=  11.020000  celldm(2)=   0.000000  celldm(3)=   0.545600
     celldm(4)=   0.000000  celldm(5)=   0.000000  celldm(6)=   0.000000

     crystal axes: (cart. coord. in units of alat)
               a(1) = (   0.500000  -0.500000   0.272800 )  
               a(2) = (   0.500000   0.500000   0.272800 )  
               a(3) = (  -0.500000  -0.500000   0.272800 )  

     reciprocal axes: (cart. coord. in units 2 pi/alat)
               b(1) = (  1.000000 -1.000000  0.000000 )  
               b(2) = (  0.000000  1.000000  1.832845 )  
               b(3) = ( -1.000000  0.000000  1.832845 )  


     PseudoPot. # 1 for Sn read from file:
     ./Sn.pw91-n-van.UPF
     MD5 check sum: a38d2a872edd1a4efd76c0a1a38f7031
     Pseudo is Ultrasoft + core correction, Zval = 14.0
     Generated by new atomic code, or converted to UPF format
     Using radial grid of  891 points,  6 beta functions with: 
                l(1) =   0
                l(2) =   0
                l(3) =   1
                l(4) =   1
                l(5) =   2
                l(6) =   2
     Q(r) pseudized with  8 coefficients,  rinner =    1.100   1.100   1.100
                                                       1.100   1.100

     atomic species   valence    mass     pseudopotential
     Sn               14.00   118.70000     Sn( 1.00)

     16 Sym. Ops., with inversion, found (12 have fractional translation)



   Cartesian axes

     site n.     atom                  positions (alat units)
         1        Sn     tau(   1) = (   0.0000000  -0.2500000   0.0682000  )
         2        Sn     tau(   2) = (   0.0000000   0.2500000  -0.0682000  )

     number of k points=    13
                       cart. coord. in units 2pi/alat
        k(    1) = (   0.0000000   0.0000000   0.0000000), wk =   0.0312500
        k(    2) = (  -0.2500000   0.0000000   0.4582111), wk =   0.2500000
        k(    3) = (   0.5000000   0.0000000  -0.9164223), wk =   0.1250000
        k(    4) = (  -0.2500000   0.2500000   0.9164223), wk =   0.2500000
        k(    5) = (   0.5000000   0.2500000  -0.4582111), wk =   0.5000000
        k(    6) = (   0.2500000   0.2500000   0.0000000), wk =   0.1250000
        k(    7) = (   0.5000000  -0.5000000  -1.8328446), wk =   0.0625000
        k(    8) = (   0.0000000   0.0000000   0.9164223), wk =   0.0625000
        k(    9) = (   0.7500000   0.0000000  -0.4582111), wk =   0.2500000
        k(   10) = (   0.5000000   0.0000000   0.0000000), wk =   0.1250000
        k(   11) = (   0.7500000  -0.7500000  -1.8328446), wk =   0.1250000
        k(   12) = (   0.5000000  -0.5000000  -0.9164223), wk =   0.0625000
        k(   13) = (   0.0000000   0.0000000  -1.8328446), wk =   0.0312500

     Dense  grid:    52299 G-vectors     FFT dimensions: (  60,  60,  60)

     Estimated max dynamical RAM per process >       5.68 MB

     Estimated total dynamical RAM >     638.20 MB

     Initial potential from superposition of free atoms

     starting charge      27.9964, renormalised to      28.0000
     Starting wfcs are   18 randomized atomic wfcs

     total cpu time spent up to now is        0.9 secs

     per-process dynamical memory:    12.4 Mb

     Self-consistent Calculation

     iteration #  1     ecut=   104.00 Ry     beta= 0.70
     Davidson diagonalization with overlap
     ethr =  1.00E-02,  avg # of iterations =  1.8

     Threshold (ethr) on eigenvalues was too large:
     Diagonalizing with lowered threshold

     Davidson diagonalization with overlap
     ethr =  2.40E-05,  avg # of iterations =  3.8

     total cpu time spent up to now is        1.1 secs

     total energy              =    -325.57179006 Ry
     estimated scf accuracy    <       0.00691631 Ry

     iteration #  2     ecut=   104.00 Ry     beta= 0.70
     Davidson diagonalization with overlap
     ethr =  2.47E-05,  avg # of iterations =  2.0

     total cpu time spent up to now is        1.2 secs

     total energy              =    -325.57276671 Ry
     estimated scf accuracy    <       0.00056107 Ry

     iteration #  3     ecut=   104.00 Ry     beta= 0.70
     Davidson diagonalization with overlap
     ethr =  2.00E-06,  avg # of iterations =  2.2

     total cpu time spent up to now is        1.2 secs

     total energy              =    -325.57283093 Ry
     estimated scf accuracy    <       0.00004335 Ry

     iteration #  4     ecut=   104.00 Ry     beta= 0.70
     Davidson diagonalization with overlap
     ethr =  1.55E-07,  avg # of iterations =  2.9

     total cpu time spent up to now is        1.3 secs

     total energy              =    -325.57283597 Ry
     estimated scf accuracy    <       0.00000035 Ry

     iteration #  5     ecut=   104.00 Ry     beta= 0.70
     Davidson diagonalization with overlap
     ethr =  1.24E-09,  avg # of iterations =  4.0

     total cpu time spent up to now is        1.4 secs

     End of self-consistent calculation

          k = 0.0000 0.0000 0.0000 (  6569 PWs)   bands (ev):

   -10.8050 -10.7221 -10.6783 -10.6669 -10.5167 -10.5167 -10.5056 -10.5056
   -10.4136 -10.3014  -0.3473   7.1611   8.8397   8.8397

          k =-0.2500 0.0000 0.4582 (  6542 PWs)   bands (ev):

   -10.7690 -10.6410 -10.6363 -10.5951 -10.5726 -10.5312 -10.5228 -10.4999
   -10.4346 -10.3360   0.8909   6.5838   9.0441  11.2832

          k = 0.5000 0.0000-0.9164 (  6544 PWs)   bands (ev):

   -10.7296 -10.6591 -10.6423 -10.6029 -10.5687 -10.5657 -10.4670 -10.4198
   -10.4161 -10.3695   3.8532   5.3956   8.4874   9.1144

          k =-0.2500 0.2500 0.9164 (  6542 PWs)   bands (ev):

   -10.7435 -10.6557 -10.6124 -10.5953 -10.5935 -10.5429 -10.4841 -10.4646
   -10.3882 -10.3604   3.7385   6.0508   7.1234   9.1084

          k = 0.5000 0.2500-0.4582 (  6539 PWs)   bands (ev):

   -10.7122 -10.6527 -10.6490 -10.5950 -10.5779 -10.5206 -10.4870 -10.4793
   -10.4621 -10.3977   2.0033   4.1409   9.3955  10.6282

          k = 0.2500 0.2500 0.0000 (  6565 PWs)   bands (ev):

   -10.7550 -10.7289 -10.6936 -10.6365 -10.5434 -10.4959 -10.4942 -10.4862
   -10.4429 -10.3500   0.2173   4.5876   9.5064  10.5378

          k = 0.5000-0.5000-1.8328 (  6518 PWs)   bands (ev):

   -10.7253 -10.7253 -10.6374 -10.6374 -10.5433 -10.5433 -10.4719 -10.4719
   -10.4328 -10.4328   1.9005   1.9005  11.4185  11.4185

          k = 0.0000 0.0000 0.9164 (  6534 PWs)   bands (ev):

   -10.7352 -10.6273 -10.6273 -10.6078 -10.5628 -10.5628 -10.5389 -10.4453
   -10.3907 -10.3449   3.2953   7.1430   7.9731   9.4590

          k = 0.7500 0.0000-0.4582 (  6529 PWs)   bands (ev):

   -10.6994 -10.6571 -10.5944 -10.5850 -10.5505 -10.5338 -10.5229 -10.4862
   -10.4800 -10.4238   3.0225   4.3596   7.2619   8.4574

          k = 0.5000 0.0000 0.0000 (  6538 PWs)   bands (ev):

   -10.7408 -10.7112 -10.6992 -10.6050 -10.5208 -10.5129 -10.5091 -10.4662
   -10.4639 -10.3949   0.7799   4.3542   7.0800  10.7928

          k = 0.7500-0.7500-1.8328 (  6544 PWs)   bands (ev):

   -10.7318 -10.7318 -10.5996 -10.5996 -10.5356 -10.5356 -10.4862 -10.4862
   -10.4575 -10.4575   2.4048   2.4048   7.9918   7.9918

          k = 0.5000-0.5000-0.9164 (  6536 PWs)   bands (ev):

   -10.7077 -10.7077 -10.6372 -10.6372 -10.5296 -10.5296 -10.4359 -10.4359
   -10.4089 -10.4089   4.8056   4.8056   7.2813   7.2813

          k = 0.0000 0.0000-1.8328 (  6518 PWs)   bands (ev):

   -10.7346 -10.7346 -10.5359 -10.5359 -10.5253 -10.5253 -10.5137 -10.5137
   -10.5010 -10.5010   3.2426   3.2426   6.0121   6.0121

     highest occupied level (ev):    11.4185

!    total energy              =    -325.57283630 Ry
     estimated scf accuracy    <       0.00000001 Ry

     The total energy is the sum of the following terms:
     one-electron contribution =    -107.30813994 Ry
     hartree contribution      =      74.47185104 Ry
     xc contribution           =     -95.22124421 Ry
     ewald contribution        =    -197.51530320 Ry

     convergence has been achieved in   5 iterations

     Writing all to output data dir ./beta-sn-scf/betatin.save/ :
     XML data file, charge density, pseudopotentials, collected wavefunctions

     init_run     :      0.55s CPU      0.60s WALL (       1 calls)
     electrons    :      0.45s CPU      0.51s WALL (       1 calls)

     Called by init_run:
     wfcinit      :      0.03s CPU      0.03s WALL (       1 calls)
     potinit      :      0.01s CPU      0.03s WALL (       1 calls)
     hinit0       :      0.46s CPU      0.47s WALL (       1 calls)

     Called by electrons:
     c_bands      :      0.25s CPU      0.27s WALL (       6 calls)
     sum_band     :      0.08s CPU      0.09s WALL (       6 calls)
     v_of_rho     :      0.08s CPU      0.08s WALL (       6 calls)
     newd         :      0.03s CPU      0.04s WALL (       6 calls)
     mix_rho      :      0.01s CPU      0.01s WALL (       6 calls)

     Called by c_bands:
     init_us_2    :      0.01s CPU      0.01s WALL (      26 calls)
     cegterg      :      0.23s CPU      0.24s WALL (      12 calls)

     Called by *egterg:
     cdiaghg      :      0.02s CPU      0.02s WALL (      49 calls)
     h_psi        :      0.21s CPU      0.22s WALL (      53 calls)
     s_psi        :      0.00s CPU      0.00s WALL (      53 calls)
     g_psi        :      0.00s CPU      0.00s WALL (      39 calls)

     Called by h_psi:
     h_psi:calbec :      0.01s CPU      0.01s WALL (      53 calls)
     vloc_psi     :      0.20s CPU      0.20s WALL (      53 calls)
     add_vuspsi   :      0.00s CPU      0.00s WALL (      53 calls)

     General routines
     calbec       :      0.01s CPU      0.01s WALL (      65 calls)
     fft          :      0.46s CPU      0.46s WALL (      67 calls)
     ffts         :      0.00s CPU      0.00s WALL (       6 calls)
     fftw         :      0.20s CPU      0.21s WALL (    1096 calls)

     Parallel routines

     PWSCF        :      1.26s CPU      1.52s WALL


   This run was terminated on:  15:54:26   5Feb2026            

=------------------------------------------------------------------------------=
   JOB DONE.
=------------------------------------------------------------------------------=
