
     Program PWSCF v.7.3.1 starts on  5Feb2026 at 15:54:39 

     This program is part of the open-source Quantum ESPRESSO suite
     for quantum simulation of materials; please cite
         "P. Giannozzi et al., J. Phys.:Condens. Matter 21 395502 (2009);
         "P. Giannozzi et al., J. Phys.:Condens. Matter 29 465901 (2017);
         "P. Giannozzi et al., J. Chem. Phys. 152 154105 (2020);
          URL http://www.quantum-espresso.org", 
     in publications or presentations arising from this work. More details at
     http://www.quantum-espresso.org/quote

     Parallel version (MPI), running on   128 processors

     MPI processes distributed on     1 nodes
     242306 MiB available memory on the printing compute node when the environment starts

     Waiting for input...
     Reading input from standard input

     Current dimensions of program PWSCF are:
     Max number of different atomic species (ntypx) = 10
     Max number of k-points (npk) =  40000
     Max angular momentum in pseudopotentials (lmaxx) =  4

     K-points division:     npool     =       8
     R & G space division:  proc/nbgrp/npool/nimage =      16
     Subspace diagonalization in iterative solution of the eigenvalue problem:
     a serial algorithm will be used


     Parallelization info
     --------------------
     sticks:   dense  smooth     PW     G-vecs:    dense   smooth      PW
     Min         145     145     45                 3361     3361     579
     Max         146     146     46                 3363     3363     581
     Sum        2333    2333    727                53799    53799    9283

     Using Slab Decomposition



     bravais-lattice index     =            7
     lattice parameter (alat)  =      11.0200  a.u.
     unit-cell volume          =     365.0809 (a.u.)^3
     number of atoms/cell      =            2
     number of atomic types    =            1
     number of electrons       =        28.00
     number of Kohn-Sham states=           14
     kinetic-energy cutoff     =     106.0000  Ry
     charge density cutoff     =     424.0000  Ry
     scf convergence threshold =      1.0E-07
     mixing beta               =       0.7000
     number of iterations used =            8  plain     mixing
     Exchange-correlation=  SLA  PW   GGX  GGC
                           (   1   4   2   2   0   0   0)

     celldm(1)=  11.020000  celldm(2)=   0.000000  celldm(3)=   0.545600
     celldm(4)=   0.000000  celldm(5)=   0.000000  celldm(6)=   0.000000

     crystal axes: (cart. coord. in units of alat)
               a(1) = (   0.500000  -0.500000   0.272800 )  
               a(2) = (   0.500000   0.500000   0.272800 )  
               a(3) = (  -0.500000  -0.500000   0.272800 )  

     reciprocal axes: (cart. coord. in units 2 pi/alat)
               b(1) = (  1.000000 -1.000000  0.000000 )  
               b(2) = (  0.000000  1.000000  1.832845 )  
               b(3) = ( -1.000000  0.000000  1.832845 )  


     PseudoPot. # 1 for Sn read from file:
     ./Sn.pw91-n-van.UPF
     MD5 check sum: a38d2a872edd1a4efd76c0a1a38f7031
     Pseudo is Ultrasoft + core correction, Zval = 14.0
     Generated by new atomic code, or converted to UPF format
     Using radial grid of  891 points,  6 beta functions with: 
                l(1) =   0
                l(2) =   0
                l(3) =   1
                l(4) =   1
                l(5) =   2
                l(6) =   2
     Q(r) pseudized with  8 coefficients,  rinner =    1.100   1.100   1.100
                                                       1.100   1.100

     atomic species   valence    mass     pseudopotential
     Sn               14.00   118.70000     Sn( 1.00)

     16 Sym. Ops., with inversion, found (12 have fractional translation)



   Cartesian axes

     site n.     atom                  positions (alat units)
         1        Sn     tau(   1) = (   0.0000000  -0.2500000   0.0682000  )
         2        Sn     tau(   2) = (   0.0000000   0.2500000  -0.0682000  )

     number of k points=    13
                       cart. coord. in units 2pi/alat
        k(    1) = (   0.0000000   0.0000000   0.0000000), wk =   0.0312500
        k(    2) = (  -0.2500000   0.0000000   0.4582111), wk =   0.2500000
        k(    3) = (   0.5000000   0.0000000  -0.9164223), wk =   0.1250000
        k(    4) = (  -0.2500000   0.2500000   0.9164223), wk =   0.2500000
        k(    5) = (   0.5000000   0.2500000  -0.4582111), wk =   0.5000000
        k(    6) = (   0.2500000   0.2500000   0.0000000), wk =   0.1250000
        k(    7) = (   0.5000000  -0.5000000  -1.8328446), wk =   0.0625000
        k(    8) = (   0.0000000   0.0000000   0.9164223), wk =   0.0625000
        k(    9) = (   0.7500000   0.0000000  -0.4582111), wk =   0.2500000
        k(   10) = (   0.5000000   0.0000000   0.0000000), wk =   0.1250000
        k(   11) = (   0.7500000  -0.7500000  -1.8328446), wk =   0.1250000
        k(   12) = (   0.5000000  -0.5000000  -0.9164223), wk =   0.0625000
        k(   13) = (   0.0000000   0.0000000  -1.8328446), wk =   0.0312500

     Dense  grid:    53799 G-vectors     FFT dimensions: (  60,  60,  60)

     Estimated max dynamical RAM per process >       5.79 MB

     Estimated total dynamical RAM >     649.08 MB

     Initial potential from superposition of free atoms

     starting charge      27.9964, renormalised to      28.0000
     Starting wfcs are   18 randomized atomic wfcs

     total cpu time spent up to now is        0.9 secs

     per-process dynamical memory:    12.3 Mb

     Self-consistent Calculation

     iteration #  1     ecut=   106.00 Ry     beta= 0.70
     Davidson diagonalization with overlap
     ethr =  1.00E-02,  avg # of iterations =  1.8

     Threshold (ethr) on eigenvalues was too large:
     Diagonalizing with lowered threshold

     Davidson diagonalization with overlap
     ethr =  2.41E-05,  avg # of iterations =  4.0

     total cpu time spent up to now is        1.0 secs

     total energy              =    -325.57185966 Ry
     estimated scf accuracy    <       0.00692966 Ry

     iteration #  2     ecut=   106.00 Ry     beta= 0.70
     Davidson diagonalization with overlap
     ethr =  2.47E-05,  avg # of iterations =  2.0

     total cpu time spent up to now is        1.1 secs

     total energy              =    -325.57283812 Ry
     estimated scf accuracy    <       0.00055918 Ry

     iteration #  3     ecut=   106.00 Ry     beta= 0.70
     Davidson diagonalization with overlap
     ethr =  2.00E-06,  avg # of iterations =  2.2

     total cpu time spent up to now is        1.2 secs

     total energy              =    -325.57289975 Ry
     estimated scf accuracy    <       0.00004178 Ry

     iteration #  4     ecut=   106.00 Ry     beta= 0.70
     Davidson diagonalization with overlap
     ethr =  1.49E-07,  avg # of iterations =  2.8

     total cpu time spent up to now is        1.3 secs

     total energy              =    -325.57290587 Ry
     estimated scf accuracy    <       0.00000061 Ry

     iteration #  5     ecut=   106.00 Ry     beta= 0.70
     Davidson diagonalization with overlap
     ethr =  2.19E-09,  avg # of iterations =  3.5

     total cpu time spent up to now is        1.4 secs

     End of self-consistent calculation

          k = 0.0000 0.0000 0.0000 (  6741 PWs)   bands (ev):

   -10.8054 -10.7223 -10.6787 -10.6670 -10.5170 -10.5170 -10.5059 -10.5059
   -10.4141 -10.3019  -0.3474   7.1611   8.8396   8.8396

          k =-0.2500 0.0000 0.4582 (  6718 PWs)   bands (ev):

   -10.7695 -10.6414 -10.6366 -10.5954 -10.5729 -10.5316 -10.5231 -10.5001
   -10.4351 -10.3364   0.8909   6.5837   9.0439  11.2832

          k = 0.5000 0.0000-0.9164 (  6726 PWs)   bands (ev):

   -10.7300 -10.6594 -10.6426 -10.6032 -10.5692 -10.5661 -10.4675 -10.4201
   -10.4163 -10.3699   3.8530   5.3956   8.4874   9.1145

          k =-0.2500 0.2500 0.9164 (  6740 PWs)   bands (ev):

   -10.7439 -10.6560 -10.6127 -10.5958 -10.5938 -10.5433 -10.4844 -10.4651
   -10.3885 -10.3608   3.7384   6.0507   7.1234   9.1085

          k = 0.5000 0.2500-0.4582 (  6730 PWs)   bands (ev):

   -10.7126 -10.6530 -10.6493 -10.5954 -10.5783 -10.5210 -10.4874 -10.4796
   -10.4625 -10.3981   2.0033   4.1409   9.3954  10.6282

          k = 0.2500 0.2500 0.0000 (  6744 PWs)   bands (ev):

   -10.7554 -10.7291 -10.6938 -10.6369 -10.5438 -10.4963 -10.4946 -10.4866
   -10.4434 -10.3504   0.2173   4.5876   9.5063  10.5378

          k = 0.5000-0.5000-1.8328 (  6710 PWs)   bands (ev):

   -10.7256 -10.7256 -10.6378 -10.6378 -10.5438 -10.5438 -10.4723 -10.4723
   -10.4332 -10.4332   1.9004   1.9004  11.4184  11.4184

          k = 0.0000 0.0000 0.9164 (  6726 PWs)   bands (ev):

   -10.7356 -10.6276 -10.6276 -10.6082 -10.5631 -10.5631 -10.5392 -10.4458
   -10.3909 -10.3453   3.2952   7.1430   7.9732   9.4588

          k = 0.7500 0.0000-0.4582 (  6732 PWs)   bands (ev):

   -10.6998 -10.6574 -10.5947 -10.5854 -10.5509 -10.5341 -10.5232 -10.4867
   -10.4804 -10.4242   3.0224   4.3596   7.2618   8.4573

          k = 0.5000 0.0000 0.0000 (  6712 PWs)   bands (ev):

   -10.7411 -10.7114 -10.6995 -10.6055 -10.5212 -10.5132 -10.5094 -10.4665
   -10.4644 -10.3953   0.7798   4.3541   7.0799  10.7927

          k = 0.7500-0.7500-1.8328 (  6706 PWs)   bands (ev):

   -10.7321 -10.7321 -10.6000 -10.6000 -10.5360 -10.5360 -10.4865 -10.4865
   -10.4578 -10.4578   2.4048   2.4048   7.9917   7.9917

          k = 0.5000-0.5000-0.9164 (  6748 PWs)   bands (ev):

   -10.7081 -10.7081 -10.6375 -10.6375 -10.5301 -10.5301 -10.4363 -10.4363
   -10.4091 -10.4091   4.8055   4.8055   7.2814   7.2814

          k = 0.0000 0.0000-1.8328 (  6734 PWs)   bands (ev):

   -10.7349 -10.7349 -10.5363 -10.5363 -10.5258 -10.5258 -10.5140 -10.5140
   -10.5013 -10.5013   3.2425   3.2425   6.0120   6.0120

     highest occupied level (ev):    11.4184

!    total energy              =    -325.57290617 Ry
     estimated scf accuracy    <       0.00000005 Ry

     The total energy is the sum of the following terms:
     one-electron contribution =    -107.30853081 Ry
     hartree contribution      =      74.47226743 Ry
     xc contribution           =     -95.22133960 Ry
     ewald contribution        =    -197.51530320 Ry

     convergence has been achieved in   5 iterations

     Writing all to output data dir ./beta-sn-scf/betatin.save/ :
     XML data file, charge density, pseudopotentials, collected wavefunctions

     init_run     :      0.54s CPU      0.60s WALL (       1 calls)
     electrons    :      0.45s CPU      0.53s WALL (       1 calls)

     Called by init_run:
     wfcinit      :      0.03s CPU      0.04s WALL (       1 calls)
     potinit      :      0.02s CPU      0.02s WALL (       1 calls)
     hinit0       :      0.45s CPU      0.47s WALL (       1 calls)

     Called by electrons:
     c_bands      :      0.26s CPU      0.28s WALL (       6 calls)
     sum_band     :      0.07s CPU      0.09s WALL (       6 calls)
     v_of_rho     :      0.08s CPU      0.08s WALL (       6 calls)
     newd         :      0.03s CPU      0.03s WALL (       6 calls)
     mix_rho      :      0.00s CPU      0.01s WALL (       6 calls)

     Called by c_bands:
     init_us_2    :      0.00s CPU      0.01s WALL (      26 calls)
     cegterg      :      0.23s CPU      0.24s WALL (      12 calls)

     Called by *egterg:
     cdiaghg      :      0.02s CPU      0.02s WALL (      50 calls)
     h_psi        :      0.21s CPU      0.22s WALL (      54 calls)
     s_psi        :      0.00s CPU      0.00s WALL (      54 calls)
     g_psi        :      0.00s CPU      0.00s WALL (      40 calls)

     Called by h_psi:
     h_psi:calbec :      0.01s CPU      0.01s WALL (      54 calls)
     vloc_psi     :      0.20s CPU      0.21s WALL (      54 calls)
     add_vuspsi   :      0.00s CPU      0.00s WALL (      54 calls)

     General routines
     calbec       :      0.01s CPU      0.01s WALL (      66 calls)
     fft          :      0.45s CPU      0.46s WALL (      67 calls)
     ffts         :      0.00s CPU      0.00s WALL (       6 calls)
     fftw         :      0.20s CPU      0.22s WALL (    1094 calls)

     Parallel routines

     PWSCF        :      1.21s CPU      1.66s WALL


   This run was terminated on:  15:54:40   5Feb2026            

=------------------------------------------------------------------------------=
   JOB DONE.
=------------------------------------------------------------------------------=
