
     Program PWSCF v.7.3.1 starts on  5Feb2026 at 15:54:49 

     This program is part of the open-source Quantum ESPRESSO suite
     for quantum simulation of materials; please cite
         "P. Giannozzi et al., J. Phys.:Condens. Matter 21 395502 (2009);
         "P. Giannozzi et al., J. Phys.:Condens. Matter 29 465901 (2017);
         "P. Giannozzi et al., J. Chem. Phys. 152 154105 (2020);
          URL http://www.quantum-espresso.org", 
     in publications or presentations arising from this work. More details at
     http://www.quantum-espresso.org/quote

     Parallel version (MPI), running on   128 processors

     MPI processes distributed on     1 nodes
     242404 MiB available memory on the printing compute node when the environment starts

     Waiting for input...
     Reading input from standard input

     Current dimensions of program PWSCF are:
     Max number of different atomic species (ntypx) = 10
     Max number of k-points (npk) =  40000
     Max angular momentum in pseudopotentials (lmaxx) =  4

     K-points division:     npool     =       8
     R & G space division:  proc/nbgrp/npool/nimage =      16
     Subspace diagonalization in iterative solution of the eigenvalue problem:
     a serial algorithm will be used


     Parallelization info
     --------------------
     sticks:   dense  smooth     PW     G-vecs:    dense   smooth      PW
     Min         148     148     46                 3460     3460     602
     Max         149     149     47                 3462     3462     603
     Sum        2381    2381    747                55383    55383    9643

     Using Slab Decomposition



     bravais-lattice index     =            7
     lattice parameter (alat)  =      11.0200  a.u.
     unit-cell volume          =     365.0809 (a.u.)^3
     number of atoms/cell      =            2
     number of atomic types    =            1
     number of electrons       =        28.00
     number of Kohn-Sham states=           14
     kinetic-energy cutoff     =     108.0000  Ry
     charge density cutoff     =     432.0000  Ry
     scf convergence threshold =      1.0E-07
     mixing beta               =       0.7000
     number of iterations used =            8  plain     mixing
     Exchange-correlation=  SLA  PW   GGX  GGC
                           (   1   4   2   2   0   0   0)

     celldm(1)=  11.020000  celldm(2)=   0.000000  celldm(3)=   0.545600
     celldm(4)=   0.000000  celldm(5)=   0.000000  celldm(6)=   0.000000

     crystal axes: (cart. coord. in units of alat)
               a(1) = (   0.500000  -0.500000   0.272800 )  
               a(2) = (   0.500000   0.500000   0.272800 )  
               a(3) = (  -0.500000  -0.500000   0.272800 )  

     reciprocal axes: (cart. coord. in units 2 pi/alat)
               b(1) = (  1.000000 -1.000000  0.000000 )  
               b(2) = (  0.000000  1.000000  1.832845 )  
               b(3) = ( -1.000000  0.000000  1.832845 )  


     PseudoPot. # 1 for Sn read from file:
     ./Sn.pw91-n-van.UPF
     MD5 check sum: a38d2a872edd1a4efd76c0a1a38f7031
     Pseudo is Ultrasoft + core correction, Zval = 14.0
     Generated by new atomic code, or converted to UPF format
     Using radial grid of  891 points,  6 beta functions with: 
                l(1) =   0
                l(2) =   0
                l(3) =   1
                l(4) =   1
                l(5) =   2
                l(6) =   2
     Q(r) pseudized with  8 coefficients,  rinner =    1.100   1.100   1.100
                                                       1.100   1.100

     atomic species   valence    mass     pseudopotential
     Sn               14.00   118.70000     Sn( 1.00)

     16 Sym. Ops., with inversion, found (12 have fractional translation)



   Cartesian axes

     site n.     atom                  positions (alat units)
         1        Sn     tau(   1) = (   0.0000000  -0.2500000   0.0682000  )
         2        Sn     tau(   2) = (   0.0000000   0.2500000  -0.0682000  )

     number of k points=    13
                       cart. coord. in units 2pi/alat
        k(    1) = (   0.0000000   0.0000000   0.0000000), wk =   0.0312500
        k(    2) = (  -0.2500000   0.0000000   0.4582111), wk =   0.2500000
        k(    3) = (   0.5000000   0.0000000  -0.9164223), wk =   0.1250000
        k(    4) = (  -0.2500000   0.2500000   0.9164223), wk =   0.2500000
        k(    5) = (   0.5000000   0.2500000  -0.4582111), wk =   0.5000000
        k(    6) = (   0.2500000   0.2500000   0.0000000), wk =   0.1250000
        k(    7) = (   0.5000000  -0.5000000  -1.8328446), wk =   0.0625000
        k(    8) = (   0.0000000   0.0000000   0.9164223), wk =   0.0625000
        k(    9) = (   0.7500000   0.0000000  -0.4582111), wk =   0.2500000
        k(   10) = (   0.5000000   0.0000000   0.0000000), wk =   0.1250000
        k(   11) = (   0.7500000  -0.7500000  -1.8328446), wk =   0.1250000
        k(   12) = (   0.5000000  -0.5000000  -0.9164223), wk =   0.0625000
        k(   13) = (   0.0000000   0.0000000  -1.8328446), wk =   0.0312500

     Dense  grid:    55383 G-vectors     FFT dimensions: (  60,  60,  60)

     Estimated max dynamical RAM per process >       5.90 MB

     Estimated total dynamical RAM >     659.97 MB

     Initial potential from superposition of free atoms

     starting charge      27.9964, renormalised to      28.0000
     Starting wfcs are   18 randomized atomic wfcs

     total cpu time spent up to now is        0.9 secs

     per-process dynamical memory:    12.4 Mb

     Self-consistent Calculation

     iteration #  1     ecut=   108.00 Ry     beta= 0.70
     Davidson diagonalization with overlap
     ethr =  1.00E-02,  avg # of iterations =  1.8

     Threshold (ethr) on eigenvalues was too large:
     Diagonalizing with lowered threshold

     Davidson diagonalization with overlap
     ethr =  2.39E-05,  avg # of iterations =  4.0

     total cpu time spent up to now is        1.1 secs

     total energy              =    -325.57199528 Ry
     estimated scf accuracy    <       0.00694897 Ry

     iteration #  2     ecut=   108.00 Ry     beta= 0.70
     Davidson diagonalization with overlap
     ethr =  2.48E-05,  avg # of iterations =  2.0

     total cpu time spent up to now is        1.1 secs

     total energy              =    -325.57298239 Ry
     estimated scf accuracy    <       0.00055771 Ry

     iteration #  3     ecut=   108.00 Ry     beta= 0.70
     Davidson diagonalization with overlap
     ethr =  1.99E-06,  avg # of iterations =  2.2

     total cpu time spent up to now is        1.2 secs

     total energy              =    -325.57304469 Ry
     estimated scf accuracy    <       0.00004145 Ry

     iteration #  4     ecut=   108.00 Ry     beta= 0.70
     Davidson diagonalization with overlap
     ethr =  1.48E-07,  avg # of iterations =  3.2

     total cpu time spent up to now is        1.3 secs

     total energy              =    -325.57305215 Ry
     estimated scf accuracy    <       0.00000105 Ry

     iteration #  5     ecut=   108.00 Ry     beta= 0.70
     Davidson diagonalization with overlap
     ethr =  3.76E-09,  avg # of iterations =  3.5

     total cpu time spent up to now is        1.4 secs

     total energy              =    -325.57305239 Ry
     estimated scf accuracy    <       0.00000025 Ry

     iteration #  6     ecut=   108.00 Ry     beta= 0.70
     Davidson diagonalization with overlap
     ethr =  9.09E-10,  avg # of iterations =  2.5

     total cpu time spent up to now is        1.4 secs

     End of self-consistent calculation

          k = 0.0000 0.0000 0.0000 (  6877 PWs)   bands (ev):

   -10.8047 -10.7219 -10.6781 -10.6666 -10.5165 -10.5165 -10.5054 -10.5054
   -10.4133 -10.3011  -0.3473   7.1612   8.8398   8.8398

          k =-0.2500 0.0000 0.4582 (  6926 PWs)   bands (ev):

   -10.7688 -10.6408 -10.6361 -10.5949 -10.5724 -10.5311 -10.5227 -10.4997
   -10.4344 -10.3357   0.8910   6.5838   9.0441  11.2832

          k = 0.5000 0.0000-0.9164 (  6932 PWs)   bands (ev):

   -10.7294 -10.6589 -10.6421 -10.6027 -10.5686 -10.5656 -10.4668 -10.4196
   -10.4158 -10.3693   3.8532   5.3956   8.4874   9.1143

          k =-0.2500 0.2500 0.9164 (  6912 PWs)   bands (ev):

   -10.7433 -10.6555 -10.6122 -10.5951 -10.5933 -10.5427 -10.4839 -10.4644
   -10.3880 -10.3602   3.7386   6.0509   7.1233   9.1084

          k = 0.5000 0.2500-0.4582 (  6912 PWs)   bands (ev):

   -10.7120 -10.6525 -10.6488 -10.5948 -10.5777 -10.5205 -10.4867 -10.4791
   -10.4619 -10.3974   2.0034   4.1410   9.3956  10.6282

          k = 0.2500 0.2500 0.0000 (  6904 PWs)   bands (ev):

   -10.7547 -10.7287 -10.6934 -10.6363 -10.5432 -10.4958 -10.4940 -10.4861
   -10.4427 -10.3497   0.2174   4.5877   9.5064  10.5379

          k = 0.5000-0.5000-1.8328 (  6926 PWs)   bands (ev):

   -10.7251 -10.7251 -10.6372 -10.6372 -10.5431 -10.5431 -10.4718 -10.4718
   -10.4326 -10.4326   1.9005   1.9005  11.4185  11.4185

          k = 0.0000 0.0000 0.9164 (  6906 PWs)   bands (ev):

   -10.7349 -10.6271 -10.6271 -10.6075 -10.5626 -10.5626 -10.5387 -10.4451
   -10.3905 -10.3446   3.2954   7.1431   7.9731   9.4591

          k = 0.7500 0.0000-0.4582 (  6925 PWs)   bands (ev):

   -10.6992 -10.6569 -10.5942 -10.5848 -10.5503 -10.5337 -10.5227 -10.4860
   -10.4798 -10.4235   3.0225   4.3597   7.2619   8.4575

          k = 0.5000 0.0000 0.0000 (  6912 PWs)   bands (ev):

   -10.7406 -10.7110 -10.6989 -10.6048 -10.5207 -10.5127 -10.5089 -10.4660
   -10.4638 -10.3947   0.7799   4.3542   7.0800  10.7928

          k = 0.7500-0.7500-1.8328 (  6906 PWs)   bands (ev):

   -10.7316 -10.7316 -10.5994 -10.5994 -10.5354 -10.5354 -10.4860 -10.4860
   -10.4573 -10.4573   2.4049   2.4049   7.9918   7.9918

          k = 0.5000-0.5000-0.9164 (  6916 PWs)   bands (ev):

   -10.7075 -10.7075 -10.6370 -10.6370 -10.5294 -10.5294 -10.4357 -10.4357
   -10.4086 -10.4086   4.8057   4.8057   7.2812   7.2812

          k = 0.0000 0.0000-1.8328 (  6926 PWs)   bands (ev):

   -10.7344 -10.7344 -10.5356 -10.5356 -10.5252 -10.5252 -10.5135 -10.5135
   -10.5008 -10.5008   3.2426   3.2426   6.0121   6.0121

     highest occupied level (ev):    11.4185

!    total energy              =    -325.57305242 Ry
     estimated scf accuracy    <          2.8E-09 Ry

     The total energy is the sum of the following terms:
     one-electron contribution =    -107.30816173 Ry
     hartree contribution      =      74.47159535 Ry
     xc contribution           =     -95.22118284 Ry
     ewald contribution        =    -197.51530320 Ry

     convergence has been achieved in   6 iterations

     Writing all to output data dir ./beta-sn-scf/betatin.save/ :
     XML data file, charge density, pseudopotentials, collected wavefunctions

     init_run     :      0.55s CPU      0.60s WALL (       1 calls)
     electrons    :      0.52s CPU      0.59s WALL (       1 calls)

     Called by init_run:
     wfcinit      :      0.01s CPU      0.03s WALL (       1 calls)
     potinit      :      0.03s CPU      0.03s WALL (       1 calls)
     hinit0       :      0.46s CPU      0.47s WALL (       1 calls)

     Called by electrons:
     c_bands      :      0.30s CPU      0.32s WALL (       7 calls)
     sum_band     :      0.09s CPU      0.10s WALL (       7 calls)
     v_of_rho     :      0.09s CPU      0.10s WALL (       7 calls)
     newd         :      0.02s CPU      0.03s WALL (       7 calls)
     mix_rho      :      0.01s CPU      0.01s WALL (       7 calls)

     Called by c_bands:
     init_us_2    :      0.01s CPU      0.01s WALL (      30 calls)
     cegterg      :      0.27s CPU      0.28s WALL (      14 calls)

     Called by *egterg:
     cdiaghg      :      0.02s CPU      0.02s WALL (      62 calls)
     h_psi        :      0.24s CPU      0.26s WALL (      66 calls)
     s_psi        :      0.00s CPU      0.00s WALL (      66 calls)
     g_psi        :      0.00s CPU      0.00s WALL (      50 calls)

     Called by h_psi:
     h_psi:calbec :      0.01s CPU      0.01s WALL (      66 calls)
     vloc_psi     :      0.22s CPU      0.24s WALL (      66 calls)
     add_vuspsi   :      0.01s CPU      0.01s WALL (      66 calls)

     General routines
     calbec       :      0.01s CPU      0.01s WALL (      80 calls)
     fft          :      0.46s CPU      0.47s WALL (      78 calls)
     ffts         :      0.00s CPU      0.01s WALL (       7 calls)
     fftw         :      0.24s CPU      0.25s WALL (    1258 calls)

     Parallel routines

     PWSCF        :      1.27s CPU      1.56s WALL


   This run was terminated on:  15:54:51   5Feb2026            

=------------------------------------------------------------------------------=
   JOB DONE.
=------------------------------------------------------------------------------=
