
     Program PWSCF v.7.3.1 starts on  5Feb2026 at 15:55: 0 

     This program is part of the open-source Quantum ESPRESSO suite
     for quantum simulation of materials; please cite
         "P. Giannozzi et al., J. Phys.:Condens. Matter 21 395502 (2009);
         "P. Giannozzi et al., J. Phys.:Condens. Matter 29 465901 (2017);
         "P. Giannozzi et al., J. Chem. Phys. 152 154105 (2020);
          URL http://www.quantum-espresso.org", 
     in publications or presentations arising from this work. More details at
     http://www.quantum-espresso.org/quote

     Parallel version (MPI), running on   128 processors

     MPI processes distributed on     1 nodes
     242268 MiB available memory on the printing compute node when the environment starts

     Waiting for input...
     Reading input from standard input

     Current dimensions of program PWSCF are:
     Max number of different atomic species (ntypx) = 10
     Max number of k-points (npk) =  40000
     Max angular momentum in pseudopotentials (lmaxx) =  4

     K-points division:     npool     =       8
     R & G space division:  proc/nbgrp/npool/nimage =      16
     Subspace diagonalization in iterative solution of the eigenvalue problem:
     a serial algorithm will be used


     Parallelization info
     --------------------
     sticks:   dense  smooth     PW     G-vecs:    dense   smooth      PW
     Min         150     150     47                 3549     3549     617
     Max         151     151     48                 3551     3551     618
     Sum        2409    2409    755                56797    56797    9875

     Using Slab Decomposition



     bravais-lattice index     =            7
     lattice parameter (alat)  =      11.0200  a.u.
     unit-cell volume          =     365.0809 (a.u.)^3
     number of atoms/cell      =            2
     number of atomic types    =            1
     number of electrons       =        28.00
     number of Kohn-Sham states=           14
     kinetic-energy cutoff     =     110.0000  Ry
     charge density cutoff     =     440.0000  Ry
     scf convergence threshold =      1.0E-07
     mixing beta               =       0.7000
     number of iterations used =            8  plain     mixing
     Exchange-correlation=  SLA  PW   GGX  GGC
                           (   1   4   2   2   0   0   0)

     celldm(1)=  11.020000  celldm(2)=   0.000000  celldm(3)=   0.545600
     celldm(4)=   0.000000  celldm(5)=   0.000000  celldm(6)=   0.000000

     crystal axes: (cart. coord. in units of alat)
               a(1) = (   0.500000  -0.500000   0.272800 )  
               a(2) = (   0.500000   0.500000   0.272800 )  
               a(3) = (  -0.500000  -0.500000   0.272800 )  

     reciprocal axes: (cart. coord. in units 2 pi/alat)
               b(1) = (  1.000000 -1.000000  0.000000 )  
               b(2) = (  0.000000  1.000000  1.832845 )  
               b(3) = ( -1.000000  0.000000  1.832845 )  


     PseudoPot. # 1 for Sn read from file:
     ./Sn.pw91-n-van.UPF
     MD5 check sum: a38d2a872edd1a4efd76c0a1a38f7031
     Pseudo is Ultrasoft + core correction, Zval = 14.0
     Generated by new atomic code, or converted to UPF format
     Using radial grid of  891 points,  6 beta functions with: 
                l(1) =   0
                l(2) =   0
                l(3) =   1
                l(4) =   1
                l(5) =   2
                l(6) =   2
     Q(r) pseudized with  8 coefficients,  rinner =    1.100   1.100   1.100
                                                       1.100   1.100

     atomic species   valence    mass     pseudopotential
     Sn               14.00   118.70000     Sn( 1.00)

     16 Sym. Ops., with inversion, found (12 have fractional translation)



   Cartesian axes

     site n.     atom                  positions (alat units)
         1        Sn     tau(   1) = (   0.0000000  -0.2500000   0.0682000  )
         2        Sn     tau(   2) = (   0.0000000   0.2500000  -0.0682000  )

     number of k points=    13
                       cart. coord. in units 2pi/alat
        k(    1) = (   0.0000000   0.0000000   0.0000000), wk =   0.0312500
        k(    2) = (  -0.2500000   0.0000000   0.4582111), wk =   0.2500000
        k(    3) = (   0.5000000   0.0000000  -0.9164223), wk =   0.1250000
        k(    4) = (  -0.2500000   0.2500000   0.9164223), wk =   0.2500000
        k(    5) = (   0.5000000   0.2500000  -0.4582111), wk =   0.5000000
        k(    6) = (   0.2500000   0.2500000   0.0000000), wk =   0.1250000
        k(    7) = (   0.5000000  -0.5000000  -1.8328446), wk =   0.0625000
        k(    8) = (   0.0000000   0.0000000   0.9164223), wk =   0.0625000
        k(    9) = (   0.7500000   0.0000000  -0.4582111), wk =   0.2500000
        k(   10) = (   0.5000000   0.0000000   0.0000000), wk =   0.1250000
        k(   11) = (   0.7500000  -0.7500000  -1.8328446), wk =   0.1250000
        k(   12) = (   0.5000000  -0.5000000  -0.9164223), wk =   0.0625000
        k(   13) = (   0.0000000   0.0000000  -1.8328446), wk =   0.0312500

     Dense  grid:    56797 G-vectors     FFT dimensions: (  60,  60,  60)

     Estimated max dynamical RAM per process >       6.00 MB

     Estimated total dynamical RAM >     670.27 MB

     Initial potential from superposition of free atoms

     starting charge      27.9964, renormalised to      28.0000
     Starting wfcs are   18 randomized atomic wfcs

     total cpu time spent up to now is        0.9 secs

     per-process dynamical memory:    12.4 Mb

     Self-consistent Calculation

     iteration #  1     ecut=   110.00 Ry     beta= 0.70
     Davidson diagonalization with overlap
     ethr =  1.00E-02,  avg # of iterations =  1.8

     Threshold (ethr) on eigenvalues was too large:
     Diagonalizing with lowered threshold

     Davidson diagonalization with overlap
     ethr =  2.38E-05,  avg # of iterations =  3.9

     total cpu time spent up to now is        1.1 secs

     total energy              =    -325.57224800 Ry
     estimated scf accuracy    <       0.00693734 Ry

     iteration #  2     ecut=   110.00 Ry     beta= 0.70
     Davidson diagonalization with overlap
     ethr =  2.48E-05,  avg # of iterations =  2.0

     total cpu time spent up to now is        1.2 secs

     total energy              =    -325.57323816 Ry
     estimated scf accuracy    <       0.00055882 Ry

     iteration #  3     ecut=   110.00 Ry     beta= 0.70
     Davidson diagonalization with overlap
     ethr =  2.00E-06,  avg # of iterations =  2.5

     total cpu time spent up to now is        1.2 secs

     total energy              =    -325.57330751 Ry
     estimated scf accuracy    <       0.00004318 Ry

     iteration #  4     ecut=   110.00 Ry     beta= 0.70
     Davidson diagonalization with overlap
     ethr =  1.54E-07,  avg # of iterations =  2.5

     total cpu time spent up to now is        1.3 secs

     total energy              =    -325.57331172 Ry
     estimated scf accuracy    <       0.00000022 Ry

     iteration #  5     ecut=   110.00 Ry     beta= 0.70
     Davidson diagonalization with overlap
     ethr =  7.75E-10,  avg # of iterations =  4.2

     total cpu time spent up to now is        1.4 secs

     End of self-consistent calculation

          k = 0.0000 0.0000 0.0000 (  7091 PWs)   bands (ev):

   -10.8050 -10.7223 -10.6784 -10.6670 -10.5168 -10.5168 -10.5058 -10.5058
   -10.4135 -10.3016  -0.3473   7.1611   8.8397   8.8397

          k =-0.2500 0.0000 0.4582 (  7114 PWs)   bands (ev):

   -10.7691 -10.6410 -10.6365 -10.5952 -10.5727 -10.5315 -10.5230 -10.5000
   -10.4347 -10.3360   0.8909   6.5838   9.0441  11.2832

          k = 0.5000 0.0000-0.9164 (  7116 PWs)   bands (ev):

   -10.7297 -10.6592 -10.6424 -10.6030 -10.5689 -10.5659 -10.4671 -10.4199
   -10.4162 -10.3696   3.8532   5.3956   8.4873   9.1143

          k =-0.2500 0.2500 0.9164 (  7123 PWs)   bands (ev):

   -10.7436 -10.6558 -10.6125 -10.5954 -10.5937 -10.5430 -10.4842 -10.4647
   -10.3883 -10.3605   3.7386   6.0509   7.1233   9.1084

          k = 0.5000 0.2500-0.4582 (  7114 PWs)   bands (ev):

   -10.7123 -10.6528 -10.6492 -10.5952 -10.5780 -10.5208 -10.4871 -10.4795
   -10.4623 -10.3978   2.0033   4.1409   9.3956  10.6282

          k = 0.2500 0.2500 0.0000 (  7072 PWs)   bands (ev):

   -10.7550 -10.7290 -10.6937 -10.6365 -10.5436 -10.4961 -10.4943 -10.4864
   -10.4430 -10.3501   0.2173   4.5876   9.5064  10.5378

          k = 0.5000-0.5000-1.8328 (  7090 PWs)   bands (ev):

   -10.7254 -10.7254 -10.6376 -10.6376 -10.5434 -10.5434 -10.4721 -10.4721
   -10.4329 -10.4329   1.9005   1.9005  11.4185  11.4185

          k = 0.0000 0.0000 0.9164 (  7134 PWs)   bands (ev):

   -10.7353 -10.6275 -10.6275 -10.6079 -10.5630 -10.5630 -10.5390 -10.4455
   -10.3908 -10.3449   3.2953   7.1430   7.9730   9.4590

          k = 0.7500 0.0000-0.4582 (  7121 PWs)   bands (ev):

   -10.6995 -10.6572 -10.5945 -10.5851 -10.5506 -10.5340 -10.5230 -10.4864
   -10.4802 -10.4239   3.0225   4.3596   7.2619   8.4574

          k = 0.5000 0.0000 0.0000 (  7104 PWs)   bands (ev):

   -10.7409 -10.7113 -10.6992 -10.6051 -10.5210 -10.5131 -10.5093 -10.4664
   -10.4641 -10.3950   0.7799   4.3542   7.0800  10.7927

          k = 0.7500-0.7500-1.8328 (  7132 PWs)   bands (ev):

   -10.7319 -10.7319 -10.5998 -10.5998 -10.5357 -10.5357 -10.4864 -10.4864
   -10.4576 -10.4576   2.4048   2.4048   7.9918   7.9918

          k = 0.5000-0.5000-0.9164 (  7104 PWs)   bands (ev):

   -10.7078 -10.7078 -10.6373 -10.6373 -10.5297 -10.5297 -10.4360 -10.4360
   -10.4090 -10.4090   4.8057   4.8057   7.2812   7.2812

          k = 0.0000 0.0000-1.8328 (  7062 PWs)   bands (ev):

   -10.7347 -10.7347 -10.5358 -10.5358 -10.5254 -10.5254 -10.5138 -10.5138
   -10.5011 -10.5011   3.2426   3.2426   6.0121   6.0121

     highest occupied level (ev):    11.4185

!    total energy              =    -325.57331200 Ry
     estimated scf accuracy    <          8.1E-09 Ry

     The total energy is the sum of the following terms:
     one-electron contribution =    -107.30861762 Ry
     hartree contribution      =      74.47185091 Ry
     xc contribution           =     -95.22124209 Ry
     ewald contribution        =    -197.51530320 Ry

     convergence has been achieved in   5 iterations

     Writing all to output data dir ./beta-sn-scf/betatin.save/ :
     XML data file, charge density, pseudopotentials, collected wavefunctions

     init_run     :      0.53s CPU      0.60s WALL (       1 calls)
     electrons    :      0.46s CPU      0.51s WALL (       1 calls)

     Called by init_run:
     wfcinit      :      0.01s CPU      0.03s WALL (       1 calls)
     potinit      :      0.03s CPU      0.04s WALL (       1 calls)
     hinit0       :      0.45s CPU      0.46s WALL (       1 calls)

     Called by electrons:
     c_bands      :      0.27s CPU      0.28s WALL (       6 calls)
     sum_band     :      0.08s CPU      0.09s WALL (       6 calls)
     v_of_rho     :      0.07s CPU      0.09s WALL (       6 calls)
     newd         :      0.02s CPU      0.02s WALL (       6 calls)
     mix_rho      :      0.01s CPU      0.01s WALL (       6 calls)

     Called by c_bands:
     init_us_2    :      0.01s CPU      0.01s WALL (      26 calls)
     cegterg      :      0.24s CPU      0.25s WALL (      12 calls)

     Called by *egterg:
     cdiaghg      :      0.02s CPU      0.02s WALL (      53 calls)
     h_psi        :      0.21s CPU      0.23s WALL (      57 calls)
     s_psi        :      0.00s CPU      0.00s WALL (      57 calls)
     g_psi        :      0.00s CPU      0.00s WALL (      43 calls)

     Called by h_psi:
     h_psi:calbec :      0.01s CPU      0.01s WALL (      57 calls)
     vloc_psi     :      0.20s CPU      0.21s WALL (      57 calls)
     add_vuspsi   :      0.00s CPU      0.01s WALL (      57 calls)

     General routines
     calbec       :      0.01s CPU      0.01s WALL (      69 calls)
     fft          :      0.45s CPU      0.46s WALL (      67 calls)
     ffts         :      0.00s CPU      0.00s WALL (       6 calls)
     fftw         :      0.21s CPU      0.22s WALL (    1116 calls)

     Parallel routines

     PWSCF        :      1.24s CPU      1.52s WALL


   This run was terminated on:  15:55: 2   5Feb2026            

=------------------------------------------------------------------------------=
   JOB DONE.
=------------------------------------------------------------------------------=
