
     Program PWSCF v.7.3.1 starts on  5Feb2026 at 15:55: 9 

     This program is part of the open-source Quantum ESPRESSO suite
     for quantum simulation of materials; please cite
         "P. Giannozzi et al., J. Phys.:Condens. Matter 21 395502 (2009);
         "P. Giannozzi et al., J. Phys.:Condens. Matter 29 465901 (2017);
         "P. Giannozzi et al., J. Chem. Phys. 152 154105 (2020);
          URL http://www.quantum-espresso.org", 
     in publications or presentations arising from this work. More details at
     http://www.quantum-espresso.org/quote

     Parallel version (MPI), running on   128 processors

     MPI processes distributed on     1 nodes
     242421 MiB available memory on the printing compute node when the environment starts

     Waiting for input...
     Reading input from standard input

     Current dimensions of program PWSCF are:
     Max number of different atomic species (ntypx) = 10
     Max number of k-points (npk) =  40000
     Max angular momentum in pseudopotentials (lmaxx) =  4

     K-points division:     npool     =       8
     R & G space division:  proc/nbgrp/npool/nimage =      16
     Subspace diagonalization in iterative solution of the eigenvalue problem:
     a serial algorithm will be used


     Parallelization info
     --------------------
     sticks:   dense  smooth     PW     G-vecs:    dense   smooth      PW
     Min         155     155     47                 3653     3653     632
     Max         156     156     48                 3654     3654     635
     Sum        2483    2483    763                58453    58453   10139

     Using Slab Decomposition



     bravais-lattice index     =            7
     lattice parameter (alat)  =      11.0200  a.u.
     unit-cell volume          =     365.0809 (a.u.)^3
     number of atoms/cell      =            2
     number of atomic types    =            1
     number of electrons       =        28.00
     number of Kohn-Sham states=           14
     kinetic-energy cutoff     =     112.0000  Ry
     charge density cutoff     =     448.0000  Ry
     scf convergence threshold =      1.0E-07
     mixing beta               =       0.7000
     number of iterations used =            8  plain     mixing
     Exchange-correlation=  SLA  PW   GGX  GGC
                           (   1   4   2   2   0   0   0)

     celldm(1)=  11.020000  celldm(2)=   0.000000  celldm(3)=   0.545600
     celldm(4)=   0.000000  celldm(5)=   0.000000  celldm(6)=   0.000000

     crystal axes: (cart. coord. in units of alat)
               a(1) = (   0.500000  -0.500000   0.272800 )  
               a(2) = (   0.500000   0.500000   0.272800 )  
               a(3) = (  -0.500000  -0.500000   0.272800 )  

     reciprocal axes: (cart. coord. in units 2 pi/alat)
               b(1) = (  1.000000 -1.000000  0.000000 )  
               b(2) = (  0.000000  1.000000  1.832845 )  
               b(3) = ( -1.000000  0.000000  1.832845 )  


     PseudoPot. # 1 for Sn read from file:
     ./Sn.pw91-n-van.UPF
     MD5 check sum: a38d2a872edd1a4efd76c0a1a38f7031
     Pseudo is Ultrasoft + core correction, Zval = 14.0
     Generated by new atomic code, or converted to UPF format
     Using radial grid of  891 points,  6 beta functions with: 
                l(1) =   0
                l(2) =   0
                l(3) =   1
                l(4) =   1
                l(5) =   2
                l(6) =   2
     Q(r) pseudized with  8 coefficients,  rinner =    1.100   1.100   1.100
                                                       1.100   1.100

     atomic species   valence    mass     pseudopotential
     Sn               14.00   118.70000     Sn( 1.00)

     16 Sym. Ops., with inversion, found (12 have fractional translation)



   Cartesian axes

     site n.     atom                  positions (alat units)
         1        Sn     tau(   1) = (   0.0000000  -0.2500000   0.0682000  )
         2        Sn     tau(   2) = (   0.0000000   0.2500000  -0.0682000  )

     number of k points=    13
                       cart. coord. in units 2pi/alat
        k(    1) = (   0.0000000   0.0000000   0.0000000), wk =   0.0312500
        k(    2) = (  -0.2500000   0.0000000   0.4582111), wk =   0.2500000
        k(    3) = (   0.5000000   0.0000000  -0.9164223), wk =   0.1250000
        k(    4) = (  -0.2500000   0.2500000   0.9164223), wk =   0.2500000
        k(    5) = (   0.5000000   0.2500000  -0.4582111), wk =   0.5000000
        k(    6) = (   0.2500000   0.2500000   0.0000000), wk =   0.1250000
        k(    7) = (   0.5000000  -0.5000000  -1.8328446), wk =   0.0625000
        k(    8) = (   0.0000000   0.0000000   0.9164223), wk =   0.0625000
        k(    9) = (   0.7500000   0.0000000  -0.4582111), wk =   0.2500000
        k(   10) = (   0.5000000   0.0000000   0.0000000), wk =   0.1250000
        k(   11) = (   0.7500000  -0.7500000  -1.8328446), wk =   0.1250000
        k(   12) = (   0.5000000  -0.5000000  -0.9164223), wk =   0.0625000
        k(   13) = (   0.0000000   0.0000000  -1.8328446), wk =   0.0312500

     Dense  grid:    58453 G-vectors     FFT dimensions: (  60,  60,  60)

     Estimated max dynamical RAM per process >       6.11 MB

     Estimated total dynamical RAM >     681.66 MB

     Initial potential from superposition of free atoms

     starting charge      27.9964, renormalised to      28.0000
     Starting wfcs are   18 randomized atomic wfcs

     total cpu time spent up to now is        0.9 secs

     per-process dynamical memory:    12.5 Mb

     Self-consistent Calculation

     iteration #  1     ecut=   112.00 Ry     beta= 0.70
     Davidson diagonalization with overlap
     ethr =  1.00E-02,  avg # of iterations =  1.8

     Threshold (ethr) on eigenvalues was too large:
     Diagonalizing with lowered threshold

     Davidson diagonalization with overlap
     ethr =  2.39E-05,  avg # of iterations =  3.8

     total cpu time spent up to now is        1.1 secs

     total energy              =    -325.57262608 Ry
     estimated scf accuracy    <       0.00691477 Ry

     iteration #  2     ecut=   112.00 Ry     beta= 0.70
     Davidson diagonalization with overlap
     ethr =  2.47E-05,  avg # of iterations =  2.0

     total cpu time spent up to now is        1.1 secs

     total energy              =    -325.57361447 Ry
     estimated scf accuracy    <       0.00055857 Ry

     iteration #  3     ecut=   112.00 Ry     beta= 0.70
     Davidson diagonalization with overlap
     ethr =  1.99E-06,  avg # of iterations =  2.2

     total cpu time spent up to now is        1.2 secs

     total energy              =    -325.57367934 Ry
     estimated scf accuracy    <       0.00004285 Ry

     iteration #  4     ecut=   112.00 Ry     beta= 0.70
     Davidson diagonalization with overlap
     ethr =  1.53E-07,  avg # of iterations =  2.9

     total cpu time spent up to now is        1.3 secs

     total energy              =    -325.57368411 Ry
     estimated scf accuracy    <       0.00000023 Ry

     iteration #  5     ecut=   112.00 Ry     beta= 0.70
     Davidson diagonalization with overlap
     ethr =  8.11E-10,  avg # of iterations =  3.6

     total cpu time spent up to now is        1.4 secs

     End of self-consistent calculation

          k = 0.0000 0.0000 0.0000 (  7251 PWs)   bands (ev):

   -10.8051 -10.7223 -10.6786 -10.6673 -10.5169 -10.5169 -10.5059 -10.5059
   -10.4138 -10.3018  -0.3473   7.1611   8.8397   8.8397

          k =-0.2500 0.0000 0.4582 (  7297 PWs)   bands (ev):

   -10.7692 -10.6413 -10.6366 -10.5954 -10.5729 -10.5316 -10.5232 -10.5002
   -10.4349 -10.3362   0.8909   6.5838   9.0441  11.2832

          k = 0.5000 0.0000-0.9164 (  7318 PWs)   bands (ev):

   -10.7299 -10.6593 -10.6427 -10.6031 -10.5690 -10.5662 -10.4673 -10.4201
   -10.4164 -10.3698   3.8532   5.3956   8.4873   9.1143

          k =-0.2500 0.2500 0.9164 (  7319 PWs)   bands (ev):

   -10.7438 -10.6560 -10.6127 -10.5956 -10.5939 -10.5433 -10.4844 -10.4650
   -10.3886 -10.3607   3.7386   6.0509   7.1233   9.1084

          k = 0.5000 0.2500-0.4582 (  7302 PWs)   bands (ev):

   -10.7125 -10.6530 -10.6494 -10.5953 -10.5782 -10.5210 -10.4873 -10.4797
   -10.4624 -10.3980   2.0033   4.1409   9.3955  10.6282

          k = 0.2500 0.2500 0.0000 (  7304 PWs)   bands (ev):

   -10.7552 -10.7293 -10.6940 -10.6368 -10.5438 -10.4963 -10.4946 -10.4867
   -10.4433 -10.3503   0.2173   4.5876   9.5064  10.5378

          k = 0.5000-0.5000-1.8328 (  7282 PWs)   bands (ev):

   -10.7256 -10.7256 -10.6377 -10.6377 -10.5436 -10.5436 -10.4723 -10.4723
   -10.4331 -10.4331   1.9005   1.9005  11.4185  11.4185

          k = 0.0000 0.0000 0.9164 (  7310 PWs)   bands (ev):

   -10.7354 -10.6276 -10.6276 -10.6080 -10.5632 -10.5632 -10.5392 -10.4456
   -10.3910 -10.3451   3.2953   7.1430   7.9730   9.4590

          k = 0.7500 0.0000-0.4582 (  7319 PWs)   bands (ev):

   -10.6997 -10.6574 -10.5947 -10.5853 -10.5508 -10.5342 -10.5233 -10.4866
   -10.4804 -10.4241   3.0225   4.3596   7.2619   8.4574

          k = 0.5000 0.0000 0.0000 (  7297 PWs)   bands (ev):

   -10.7411 -10.7115 -10.6994 -10.6053 -10.5212 -10.5132 -10.5095 -10.4665
   -10.4643 -10.3952   0.7799   4.3542   7.0800  10.7927

          k = 0.7500-0.7500-1.8328 (  7306 PWs)   bands (ev):

   -10.7322 -10.7322 -10.5999 -10.5999 -10.5359 -10.5359 -10.4865 -10.4865
   -10.4578 -10.4578   2.4048   2.4048   7.9918   7.9918

          k = 0.5000-0.5000-0.9164 (  7308 PWs)   bands (ev):

   -10.7080 -10.7080 -10.6376 -10.6376 -10.5299 -10.5299 -10.4363 -10.4363
   -10.4091 -10.4091   4.8057   4.8057   7.2812   7.2812

          k = 0.0000 0.0000-1.8328 (  7366 PWs)   bands (ev):

   -10.7350 -10.7350 -10.5362 -10.5362 -10.5258 -10.5258 -10.5141 -10.5141
   -10.5015 -10.5015   3.2426   3.2426   6.0121   6.0121

     highest occupied level (ev):    11.4185

!    total energy              =    -325.57368427 Ry
     estimated scf accuracy    <          7.1E-09 Ry

     The total energy is the sum of the following terms:
     one-electron contribution =    -107.30903635 Ry
     hartree contribution      =      74.47191715 Ry
     xc contribution           =     -95.22126187 Ry
     ewald contribution        =    -197.51530320 Ry

     convergence has been achieved in   5 iterations

     Writing all to output data dir ./beta-sn-scf/betatin.save/ :
     XML data file, charge density, pseudopotentials, collected wavefunctions

     init_run     :      0.55s CPU      0.60s WALL (       1 calls)
     electrons    :      0.45s CPU      0.51s WALL (       1 calls)

     Called by init_run:
     wfcinit      :      0.02s CPU      0.03s WALL (       1 calls)
     potinit      :      0.03s CPU      0.04s WALL (       1 calls)
     hinit0       :      0.45s CPU      0.47s WALL (       1 calls)

     Called by electrons:
     c_bands      :      0.26s CPU      0.27s WALL (       6 calls)
     sum_band     :      0.08s CPU      0.09s WALL (       6 calls)
     v_of_rho     :      0.08s CPU      0.09s WALL (       6 calls)
     newd         :      0.02s CPU      0.03s WALL (       6 calls)
     mix_rho      :      0.01s CPU      0.01s WALL (       6 calls)

     Called by c_bands:
     init_us_2    :      0.01s CPU      0.01s WALL (      26 calls)
     cegterg      :      0.23s CPU      0.24s WALL (      12 calls)

     Called by *egterg:
     cdiaghg      :      0.01s CPU      0.02s WALL (      45 calls)
     h_psi        :      0.21s CPU      0.22s WALL (      49 calls)
     s_psi        :      0.00s CPU      0.00s WALL (      49 calls)
     g_psi        :      0.00s CPU      0.00s WALL (      35 calls)

     Called by h_psi:
     h_psi:calbec :      0.01s CPU      0.01s WALL (      49 calls)
     vloc_psi     :      0.20s CPU      0.21s WALL (      49 calls)
     add_vuspsi   :      0.00s CPU      0.01s WALL (      49 calls)

     General routines
     calbec       :      0.01s CPU      0.01s WALL (      61 calls)
     fft          :      0.45s CPU      0.46s WALL (      67 calls)
     ffts         :      0.01s CPU      0.01s WALL (       6 calls)
     fftw         :      0.21s CPU      0.22s WALL (    1106 calls)

     Parallel routines

     PWSCF        :      1.41s CPU      1.68s WALL


   This run was terminated on:  15:55:11   5Feb2026            

=------------------------------------------------------------------------------=
   JOB DONE.
=------------------------------------------------------------------------------=
