
     Program PWSCF v.7.3.1 starts on  5Feb2026 at 15:55:18 

     This program is part of the open-source Quantum ESPRESSO suite
     for quantum simulation of materials; please cite
         "P. Giannozzi et al., J. Phys.:Condens. Matter 21 395502 (2009);
         "P. Giannozzi et al., J. Phys.:Condens. Matter 29 465901 (2017);
         "P. Giannozzi et al., J. Chem. Phys. 152 154105 (2020);
          URL http://www.quantum-espresso.org", 
     in publications or presentations arising from this work. More details at
     http://www.quantum-espresso.org/quote

     Parallel version (MPI), running on   128 processors

     MPI processes distributed on     1 nodes
     242398 MiB available memory on the printing compute node when the environment starts

     Waiting for input...
     Reading input from standard input

     Current dimensions of program PWSCF are:
     Max number of different atomic species (ntypx) = 10
     Max number of k-points (npk) =  40000
     Max angular momentum in pseudopotentials (lmaxx) =  4

     K-points division:     npool     =       8
     R & G space division:  proc/nbgrp/npool/nimage =      16
     Subspace diagonalization in iterative solution of the eigenvalue problem:
     a serial algorithm will be used


     Parallelization info
     --------------------
     sticks:   dense  smooth     PW     G-vecs:    dense   smooth      PW
     Min         157     157     48                 3758     3758     646
     Max         158     158     49                 3760     3760     647
     Sum        2515    2515    771                60133    60133   10347

     Using Slab Decomposition



     bravais-lattice index     =            7
     lattice parameter (alat)  =      11.0200  a.u.
     unit-cell volume          =     365.0809 (a.u.)^3
     number of atoms/cell      =            2
     number of atomic types    =            1
     number of electrons       =        28.00
     number of Kohn-Sham states=           14
     kinetic-energy cutoff     =     114.0000  Ry
     charge density cutoff     =     456.0000  Ry
     scf convergence threshold =      1.0E-07
     mixing beta               =       0.7000
     number of iterations used =            8  plain     mixing
     Exchange-correlation=  SLA  PW   GGX  GGC
                           (   1   4   2   2   0   0   0)

     celldm(1)=  11.020000  celldm(2)=   0.000000  celldm(3)=   0.545600
     celldm(4)=   0.000000  celldm(5)=   0.000000  celldm(6)=   0.000000

     crystal axes: (cart. coord. in units of alat)
               a(1) = (   0.500000  -0.500000   0.272800 )  
               a(2) = (   0.500000   0.500000   0.272800 )  
               a(3) = (  -0.500000  -0.500000   0.272800 )  

     reciprocal axes: (cart. coord. in units 2 pi/alat)
               b(1) = (  1.000000 -1.000000  0.000000 )  
               b(2) = (  0.000000  1.000000  1.832845 )  
               b(3) = ( -1.000000  0.000000  1.832845 )  


     PseudoPot. # 1 for Sn read from file:
     ./Sn.pw91-n-van.UPF
     MD5 check sum: a38d2a872edd1a4efd76c0a1a38f7031
     Pseudo is Ultrasoft + core correction, Zval = 14.0
     Generated by new atomic code, or converted to UPF format
     Using radial grid of  891 points,  6 beta functions with: 
                l(1) =   0
                l(2) =   0
                l(3) =   1
                l(4) =   1
                l(5) =   2
                l(6) =   2
     Q(r) pseudized with  8 coefficients,  rinner =    1.100   1.100   1.100
                                                       1.100   1.100

     atomic species   valence    mass     pseudopotential
     Sn               14.00   118.70000     Sn( 1.00)

     16 Sym. Ops., with inversion, found (12 have fractional translation)



   Cartesian axes

     site n.     atom                  positions (alat units)
         1        Sn     tau(   1) = (   0.0000000  -0.2500000   0.0682000  )
         2        Sn     tau(   2) = (   0.0000000   0.2500000  -0.0682000  )

     number of k points=    13
                       cart. coord. in units 2pi/alat
        k(    1) = (   0.0000000   0.0000000   0.0000000), wk =   0.0312500
        k(    2) = (  -0.2500000   0.0000000   0.4582111), wk =   0.2500000
        k(    3) = (   0.5000000   0.0000000  -0.9164223), wk =   0.1250000
        k(    4) = (  -0.2500000   0.2500000   0.9164223), wk =   0.2500000
        k(    5) = (   0.5000000   0.2500000  -0.4582111), wk =   0.5000000
        k(    6) = (   0.2500000   0.2500000   0.0000000), wk =   0.1250000
        k(    7) = (   0.5000000  -0.5000000  -1.8328446), wk =   0.0625000
        k(    8) = (   0.0000000   0.0000000   0.9164223), wk =   0.0625000
        k(    9) = (   0.7500000   0.0000000  -0.4582111), wk =   0.2500000
        k(   10) = (   0.5000000   0.0000000   0.0000000), wk =   0.1250000
        k(   11) = (   0.7500000  -0.7500000  -1.8328446), wk =   0.1250000
        k(   12) = (   0.5000000  -0.5000000  -0.9164223), wk =   0.0625000
        k(   13) = (   0.0000000   0.0000000  -1.8328446), wk =   0.0312500

     Dense  grid:    60133 G-vectors     FFT dimensions: (  60,  60,  60)

     Estimated max dynamical RAM per process >       6.22 MB

     Estimated total dynamical RAM >     693.65 MB

     Initial potential from superposition of free atoms

     starting charge      27.9964, renormalised to      28.0000
     Starting wfcs are   18 randomized atomic wfcs

     total cpu time spent up to now is        0.9 secs

     per-process dynamical memory:    12.5 Mb

     Self-consistent Calculation

     iteration #  1     ecut=   114.00 Ry     beta= 0.70
     Davidson diagonalization with overlap
     ethr =  1.00E-02,  avg # of iterations =  1.8

     Threshold (ethr) on eigenvalues was too large:
     Diagonalizing with lowered threshold

     Davidson diagonalization with overlap
     ethr =  2.40E-05,  avg # of iterations =  3.9

     total cpu time spent up to now is        1.1 secs

     total energy              =    -325.57312033 Ry
     estimated scf accuracy    <       0.00691625 Ry

     iteration #  2     ecut=   114.00 Ry     beta= 0.70
     Davidson diagonalization with overlap
     ethr =  2.47E-05,  avg # of iterations =  2.0

     total cpu time spent up to now is        1.2 secs

     total energy              =    -325.57410828 Ry
     estimated scf accuracy    <       0.00055671 Ry

     iteration #  3     ecut=   114.00 Ry     beta= 0.70
     Davidson diagonalization with overlap
     ethr =  1.99E-06,  avg # of iterations =  2.2

     total cpu time spent up to now is        1.2 secs

     total energy              =    -325.57417591 Ry
     estimated scf accuracy    <       0.00004194 Ry

     iteration #  4     ecut=   114.00 Ry     beta= 0.70
     Davidson diagonalization with overlap
     ethr =  1.50E-07,  avg # of iterations =  3.0

     total cpu time spent up to now is        1.3 secs

     total energy              =    -325.57418191 Ry
     estimated scf accuracy    <       0.00000042 Ry

     iteration #  5     ecut=   114.00 Ry     beta= 0.70
     Davidson diagonalization with overlap
     ethr =  1.50E-09,  avg # of iterations =  3.8

     total cpu time spent up to now is        1.4 secs

     End of self-consistent calculation

          k = 0.0000 0.0000 0.0000 (  7483 PWs)   bands (ev):

   -10.8053 -10.7225 -10.6789 -10.6673 -10.5173 -10.5173 -10.5062 -10.5062
   -10.4142 -10.3019  -0.3473   7.1612   8.8397   8.8397

          k =-0.2500 0.0000 0.4582 (  7506 PWs)   bands (ev):

   -10.7695 -10.6416 -10.6368 -10.5956 -10.5732 -10.5318 -10.5234 -10.5004
   -10.4352 -10.3366   0.8909   6.5838   9.0440  11.2832

          k = 0.5000 0.0000-0.9164 (  7506 PWs)   bands (ev):

   -10.7301 -10.6596 -10.6428 -10.6033 -10.5693 -10.5663 -10.4676 -10.4204
   -10.4166 -10.3701   3.8532   5.3956   8.4874   9.1144

          k =-0.2500 0.2500 0.9164 (  7510 PWs)   bands (ev):

   -10.7439 -10.6562 -10.6130 -10.5960 -10.5940 -10.5435 -10.4846 -10.4653
   -10.3888 -10.3610   3.7386   6.0509   7.1233   9.1084

          k = 0.5000 0.2500-0.4582 (  7499 PWs)   bands (ev):

   -10.7127 -10.6532 -10.6495 -10.5955 -10.5784 -10.5212 -10.4876 -10.4799
   -10.4627 -10.3983   2.0034   4.1410   9.3955  10.6282

          k = 0.2500 0.2500 0.0000 (  7490 PWs)   bands (ev):

   -10.7554 -10.7294 -10.6942 -10.6370 -10.5439 -10.4966 -10.4948 -10.4868
   -10.4435 -10.3506   0.2174   4.5877   9.5064  10.5378

          k = 0.5000-0.5000-1.8328 (  7538 PWs)   bands (ev):

   -10.7260 -10.7260 -10.6379 -10.6379 -10.5440 -10.5440 -10.4726 -10.4726
   -10.4335 -10.4335   1.9005   1.9005  11.4185  11.4185

          k = 0.0000 0.0000 0.9164 (  7518 PWs)   bands (ev):

   -10.7356 -10.6279 -10.6279 -10.6085 -10.5634 -10.5634 -10.5394 -10.4459
   -10.3912 -10.3454   3.2953   7.1431   7.9731   9.4590

          k = 0.7500 0.0000-0.4582 (  7512 PWs)   bands (ev):

   -10.6999 -10.6576 -10.5949 -10.5856 -10.5510 -10.5344 -10.5234 -10.4869
   -10.4806 -10.4244   3.0225   4.3597   7.2618   8.4574

          k = 0.5000 0.0000 0.0000 (  7479 PWs)   bands (ev):

   -10.7413 -10.7117 -10.6997 -10.6055 -10.5213 -10.5133 -10.5096 -10.4667
   -10.4645 -10.3955   0.7799   4.3542   7.0799  10.7927

          k = 0.7500-0.7500-1.8328 (  7500 PWs)   bands (ev):

   -10.7324 -10.7324 -10.6001 -10.6001 -10.5361 -10.5361 -10.4867 -10.4867
   -10.4581 -10.4581   2.4048   2.4048   7.9918   7.9918

          k = 0.5000-0.5000-0.9164 (  7500 PWs)   bands (ev):

   -10.7082 -10.7082 -10.6377 -10.6377 -10.5302 -10.5302 -10.4365 -10.4365
   -10.4094 -10.4094   4.8057   4.8057   7.2812   7.2812

          k = 0.0000 0.0000-1.8328 (  7550 PWs)   bands (ev):

   -10.7352 -10.7352 -10.5365 -10.5365 -10.5261 -10.5261 -10.5142 -10.5142
   -10.5016 -10.5016   3.2426   3.2426   6.0121   6.0121

     highest occupied level (ev):    11.4185

!    total energy              =    -325.57418213 Ry
     estimated scf accuracy    <       0.00000001 Ry

     The total energy is the sum of the following terms:
     one-electron contribution =    -107.30960911 Ry
     hartree contribution      =      74.47201680 Ry
     xc contribution           =     -95.22128663 Ry
     ewald contribution        =    -197.51530320 Ry

     convergence has been achieved in   5 iterations

     Writing all to output data dir ./beta-sn-scf/betatin.save/ :
     XML data file, charge density, pseudopotentials, collected wavefunctions

     init_run     :      0.56s CPU      0.61s WALL (       1 calls)
     electrons    :      0.44s CPU      0.51s WALL (       1 calls)

     Called by init_run:
     wfcinit      :      0.03s CPU      0.03s WALL (       1 calls)
     potinit      :      0.02s CPU      0.04s WALL (       1 calls)
     hinit0       :      0.46s CPU      0.47s WALL (       1 calls)

     Called by electrons:
     c_bands      :      0.24s CPU      0.28s WALL (       6 calls)
     sum_band     :      0.08s CPU      0.09s WALL (       6 calls)
     v_of_rho     :      0.07s CPU      0.09s WALL (       6 calls)
     newd         :      0.02s CPU      0.03s WALL (       6 calls)
     mix_rho      :      0.01s CPU      0.01s WALL (       6 calls)

     Called by c_bands:
     init_us_2    :      0.00s CPU      0.01s WALL (      26 calls)
     cegterg      :      0.22s CPU      0.25s WALL (      12 calls)

     Called by *egterg:
     cdiaghg      :      0.02s CPU      0.02s WALL (      51 calls)
     h_psi        :      0.21s CPU      0.23s WALL (      55 calls)
     s_psi        :      0.00s CPU      0.00s WALL (      55 calls)
     g_psi        :      0.00s CPU      0.00s WALL (      41 calls)

     Called by h_psi:
     h_psi:calbec :      0.01s CPU      0.01s WALL (      55 calls)
     vloc_psi     :      0.20s CPU      0.21s WALL (      55 calls)
     add_vuspsi   :      0.00s CPU      0.01s WALL (      55 calls)

     General routines
     calbec       :      0.01s CPU      0.01s WALL (      67 calls)
     fft          :      0.46s CPU      0.47s WALL (      67 calls)
     ffts         :      0.00s CPU      0.00s WALL (       6 calls)
     fftw         :      0.21s CPU      0.22s WALL (    1094 calls)

     Parallel routines

     PWSCF        :      1.24s CPU      1.52s WALL


   This run was terminated on:  15:55:20   5Feb2026            

=------------------------------------------------------------------------------=
   JOB DONE.
=------------------------------------------------------------------------------=
