
     Program PWSCF v.7.3.1 starts on  5Feb2026 at 15:55:27 

     This program is part of the open-source Quantum ESPRESSO suite
     for quantum simulation of materials; please cite
         "P. Giannozzi et al., J. Phys.:Condens. Matter 21 395502 (2009);
         "P. Giannozzi et al., J. Phys.:Condens. Matter 29 465901 (2017);
         "P. Giannozzi et al., J. Chem. Phys. 152 154105 (2020);
          URL http://www.quantum-espresso.org", 
     in publications or presentations arising from this work. More details at
     http://www.quantum-espresso.org/quote

     Parallel version (MPI), running on   128 processors

     MPI processes distributed on     1 nodes
     242399 MiB available memory on the printing compute node when the environment starts

     Waiting for input...
     Reading input from standard input

     Current dimensions of program PWSCF are:
     Max number of different atomic species (ntypx) = 10
     Max number of k-points (npk) =  40000
     Max angular momentum in pseudopotentials (lmaxx) =  4

     K-points division:     npool     =       8
     R & G space division:  proc/nbgrp/npool/nimage =      16
     Subspace diagonalization in iterative solution of the eigenvalue problem:
     a serial algorithm will be used


     Parallelization info
     --------------------
     sticks:   dense  smooth     PW     G-vecs:    dense   smooth      PW
     Min         159     159     48                 3851     3851     660
     Max         160     160     49                 3853     3853     662
     Sum        2551    2551    779                61629    61629   10579

     Using Slab Decomposition



     bravais-lattice index     =            7
     lattice parameter (alat)  =      11.0200  a.u.
     unit-cell volume          =     365.0809 (a.u.)^3
     number of atoms/cell      =            2
     number of atomic types    =            1
     number of electrons       =        28.00
     number of Kohn-Sham states=           14
     kinetic-energy cutoff     =     116.0000  Ry
     charge density cutoff     =     464.0000  Ry
     scf convergence threshold =      1.0E-07
     mixing beta               =       0.7000
     number of iterations used =            8  plain     mixing
     Exchange-correlation=  SLA  PW   GGX  GGC
                           (   1   4   2   2   0   0   0)

     celldm(1)=  11.020000  celldm(2)=   0.000000  celldm(3)=   0.545600
     celldm(4)=   0.000000  celldm(5)=   0.000000  celldm(6)=   0.000000

     crystal axes: (cart. coord. in units of alat)
               a(1) = (   0.500000  -0.500000   0.272800 )  
               a(2) = (   0.500000   0.500000   0.272800 )  
               a(3) = (  -0.500000  -0.500000   0.272800 )  

     reciprocal axes: (cart. coord. in units 2 pi/alat)
               b(1) = (  1.000000 -1.000000  0.000000 )  
               b(2) = (  0.000000  1.000000  1.832845 )  
               b(3) = ( -1.000000  0.000000  1.832845 )  


     PseudoPot. # 1 for Sn read from file:
     ./Sn.pw91-n-van.UPF
     MD5 check sum: a38d2a872edd1a4efd76c0a1a38f7031
     Pseudo is Ultrasoft + core correction, Zval = 14.0
     Generated by new atomic code, or converted to UPF format
     Using radial grid of  891 points,  6 beta functions with: 
                l(1) =   0
                l(2) =   0
                l(3) =   1
                l(4) =   1
                l(5) =   2
                l(6) =   2
     Q(r) pseudized with  8 coefficients,  rinner =    1.100   1.100   1.100
                                                       1.100   1.100

     atomic species   valence    mass     pseudopotential
     Sn               14.00   118.70000     Sn( 1.00)

     16 Sym. Ops., with inversion, found (12 have fractional translation)



   Cartesian axes

     site n.     atom                  positions (alat units)
         1        Sn     tau(   1) = (   0.0000000  -0.2500000   0.0682000  )
         2        Sn     tau(   2) = (   0.0000000   0.2500000  -0.0682000  )

     number of k points=    13
                       cart. coord. in units 2pi/alat
        k(    1) = (   0.0000000   0.0000000   0.0000000), wk =   0.0312500
        k(    2) = (  -0.2500000   0.0000000   0.4582111), wk =   0.2500000
        k(    3) = (   0.5000000   0.0000000  -0.9164223), wk =   0.1250000
        k(    4) = (  -0.2500000   0.2500000   0.9164223), wk =   0.2500000
        k(    5) = (   0.5000000   0.2500000  -0.4582111), wk =   0.5000000
        k(    6) = (   0.2500000   0.2500000   0.0000000), wk =   0.1250000
        k(    7) = (   0.5000000  -0.5000000  -1.8328446), wk =   0.0625000
        k(    8) = (   0.0000000   0.0000000   0.9164223), wk =   0.0625000
        k(    9) = (   0.7500000   0.0000000  -0.4582111), wk =   0.2500000
        k(   10) = (   0.5000000   0.0000000   0.0000000), wk =   0.1250000
        k(   11) = (   0.7500000  -0.7500000  -1.8328446), wk =   0.1250000
        k(   12) = (   0.5000000  -0.5000000  -0.9164223), wk =   0.0625000
        k(   13) = (   0.0000000   0.0000000  -1.8328446), wk =   0.0312500

     Dense  grid:    61629 G-vectors     FFT dimensions: (  60,  60,  60)

     Estimated max dynamical RAM per process >       6.32 MB

     Estimated total dynamical RAM >     704.01 MB

     Initial potential from superposition of free atoms

     starting charge      27.9964, renormalised to      28.0000
     Starting wfcs are   18 randomized atomic wfcs

     total cpu time spent up to now is        0.9 secs

     per-process dynamical memory:    12.6 Mb

     Self-consistent Calculation

     iteration #  1     ecut=   116.00 Ry     beta= 0.70
     Davidson diagonalization with overlap
     ethr =  1.00E-02,  avg # of iterations =  1.8

     Threshold (ethr) on eigenvalues was too large:
     Diagonalizing with lowered threshold

     Davidson diagonalization with overlap
     ethr =  2.39E-05,  avg # of iterations =  4.0

     total cpu time spent up to now is        1.1 secs

     total energy              =    -325.57374717 Ry
     estimated scf accuracy    <       0.00690762 Ry

     iteration #  2     ecut=   116.00 Ry     beta= 0.70
     Davidson diagonalization with overlap
     ethr =  2.47E-05,  avg # of iterations =  2.0

     total cpu time spent up to now is        1.2 secs

     total energy              =    -325.57473445 Ry
     estimated scf accuracy    <       0.00055767 Ry

     iteration #  3     ecut=   116.00 Ry     beta= 0.70
     Davidson diagonalization with overlap
     ethr =  1.99E-06,  avg # of iterations =  2.2

     total cpu time spent up to now is        1.2 secs

     total energy              =    -325.57480018 Ry
     estimated scf accuracy    <       0.00004164 Ry

     iteration #  4     ecut=   116.00 Ry     beta= 0.70
     Davidson diagonalization with overlap
     ethr =  1.49E-07,  avg # of iterations =  2.9

     total cpu time spent up to now is        1.3 secs

     total energy              =    -325.57480597 Ry
     estimated scf accuracy    <       0.00000047 Ry

     iteration #  5     ecut=   116.00 Ry     beta= 0.70
     Davidson diagonalization with overlap
     ethr =  1.69E-09,  avg # of iterations =  3.7

     total cpu time spent up to now is        1.4 secs

     End of self-consistent calculation

          k = 0.0000 0.0000 0.0000 (  7747 PWs)   bands (ev):

   -10.8059 -10.7230 -10.6796 -10.6680 -10.5176 -10.5176 -10.5066 -10.5066
   -10.4149 -10.3027  -0.3473   7.1613   8.8397   8.8397

          k =-0.2500 0.0000 0.4582 (  7702 PWs)   bands (ev):

   -10.7698 -10.6420 -10.6372 -10.5960 -10.5735 -10.5322 -10.5238 -10.5008
   -10.4358 -10.3370   0.8909   6.5839   9.0440  11.2832

          k = 0.5000 0.0000-0.9164 (  7694 PWs)   bands (ev):

   -10.7305 -10.6599 -10.6431 -10.6038 -10.5697 -10.5667 -10.4682 -10.4208
   -10.4169 -10.3704   3.8532   5.3956   8.4875   9.1145

          k =-0.2500 0.2500 0.9164 (  7707 PWs)   bands (ev):

   -10.7444 -10.6566 -10.6134 -10.5963 -10.5944 -10.5439 -10.4850 -10.4657
   -10.3891 -10.3615   3.7386   6.0509   7.1234   9.1085

          k = 0.5000 0.2500-0.4582 (  7702 PWs)   bands (ev):

   -10.7131 -10.6535 -10.6498 -10.5959 -10.5789 -10.5216 -10.4880 -10.4802
   -10.4631 -10.3988   2.0034   4.1410   9.3955  10.6282

          k = 0.2500 0.2500 0.0000 (  7711 PWs)   bands (ev):

   -10.7557 -10.7298 -10.6947 -10.6376 -10.5443 -10.4969 -10.4952 -10.4873
   -10.4440 -10.3511   0.2174   4.5877   9.5063  10.5378

          k = 0.5000-0.5000-1.8328 (  7722 PWs)   bands (ev):

   -10.7264 -10.7264 -10.6382 -10.6382 -10.5444 -10.5444 -10.4730 -10.4730
   -10.4338 -10.4338   1.9005   1.9005  11.4184  11.4184

          k = 0.0000 0.0000 0.9164 (  7654 PWs)   bands (ev):

   -10.7358 -10.6281 -10.6281 -10.6087 -10.5637 -10.5637 -10.5396 -10.4463
   -10.3915 -10.3458   3.2953   7.1431   7.9732   9.4589

          k = 0.7500 0.0000-0.4582 (  7690 PWs)   bands (ev):

   -10.7002 -10.6578 -10.5952 -10.5861 -10.5515 -10.5347 -10.5238 -10.4872
   -10.4810 -10.4248   3.0225   4.3597   7.2618   8.4574

          k = 0.5000 0.0000 0.0000 (  7703 PWs)   bands (ev):

   -10.7416 -10.7122 -10.7000 -10.6061 -10.5217 -10.5137 -10.5101 -10.4672
   -10.4650 -10.3960   0.7799   4.3543   7.0799  10.7927

          k = 0.7500-0.7500-1.8328 (  7742 PWs)   bands (ev):

   -10.7327 -10.7327 -10.6006 -10.6006 -10.5367 -10.5367 -10.4873 -10.4873
   -10.4586 -10.4586   2.4048   2.4048   7.9917   7.9917

          k = 0.5000-0.5000-0.9164 (  7740 PWs)   bands (ev):

   -10.7087 -10.7087 -10.6382 -10.6382 -10.5307 -10.5307 -10.4371 -10.4371
   -10.4097 -10.4097   4.8057   4.8057   7.2813   7.2813

          k = 0.0000 0.0000-1.8328 (  7662 PWs)   bands (ev):

   -10.7355 -10.7355 -10.5367 -10.5367 -10.5262 -10.5262 -10.5144 -10.5144
   -10.5018 -10.5018   3.2426   3.2426   6.0120   6.0120

     highest occupied level (ev):    11.4184

!    total energy              =    -325.57480619 Ry
     estimated scf accuracy    <       0.00000003 Ry

     The total energy is the sum of the following terms:
     one-electron contribution =    -107.31045121 Ry
     hartree contribution      =      74.47230441 Ry
     xc contribution           =     -95.22135620 Ry
     ewald contribution        =    -197.51530320 Ry

     convergence has been achieved in   5 iterations

     Writing all to output data dir ./beta-sn-scf/betatin.save/ :
     XML data file, charge density, pseudopotentials, collected wavefunctions

     init_run     :      0.56s CPU      0.61s WALL (       1 calls)
     electrons    :      0.45s CPU      0.53s WALL (       1 calls)

     Called by init_run:
     wfcinit      :      0.02s CPU      0.03s WALL (       1 calls)
     potinit      :      0.02s CPU      0.04s WALL (       1 calls)
     hinit0       :      0.45s CPU      0.46s WALL (       1 calls)

     Called by electrons:
     c_bands      :      0.27s CPU      0.28s WALL (       6 calls)
     sum_band     :      0.08s CPU      0.10s WALL (       6 calls)
     v_of_rho     :      0.07s CPU      0.09s WALL (       6 calls)
     newd         :      0.02s CPU      0.03s WALL (       6 calls)
     mix_rho      :      0.01s CPU      0.01s WALL (       6 calls)

     Called by c_bands:
     init_us_2    :      0.01s CPU      0.01s WALL (      26 calls)
     cegterg      :      0.24s CPU      0.25s WALL (      12 calls)

     Called by *egterg:
     cdiaghg      :      0.02s CPU      0.02s WALL (      48 calls)
     h_psi        :      0.22s CPU      0.23s WALL (      52 calls)
     s_psi        :      0.00s CPU      0.00s WALL (      52 calls)
     g_psi        :      0.00s CPU      0.00s WALL (      38 calls)

     Called by h_psi:
     h_psi:calbec :      0.01s CPU      0.01s WALL (      52 calls)
     vloc_psi     :      0.20s CPU      0.21s WALL (      52 calls)
     add_vuspsi   :      0.00s CPU      0.01s WALL (      52 calls)

     General routines
     calbec       :      0.01s CPU      0.01s WALL (      64 calls)
     fft          :      0.45s CPU      0.46s WALL (      67 calls)
     ffts         :      0.00s CPU      0.01s WALL (       6 calls)
     fftw         :      0.21s CPU      0.22s WALL (    1086 calls)

     Parallel routines

     PWSCF        :      1.24s CPU      1.52s WALL


   This run was terminated on:  15:55:28   5Feb2026            

=------------------------------------------------------------------------------=
   JOB DONE.
=------------------------------------------------------------------------------=
