
     Program PWSCF v.7.3.1 starts on  5Feb2026 at 15:56:11 

     This program is part of the open-source Quantum ESPRESSO suite
     for quantum simulation of materials; please cite
         "P. Giannozzi et al., J. Phys.:Condens. Matter 21 395502 (2009);
         "P. Giannozzi et al., J. Phys.:Condens. Matter 29 465901 (2017);
         "P. Giannozzi et al., J. Chem. Phys. 152 154105 (2020);
          URL http://www.quantum-espresso.org", 
     in publications or presentations arising from this work. More details at
     http://www.quantum-espresso.org/quote

     Parallel version (MPI), running on   128 processors

     MPI processes distributed on     1 nodes
     242302 MiB available memory on the printing compute node when the environment starts

     Waiting for input...
     Reading input from standard input

     Current dimensions of program PWSCF are:
     Max number of different atomic species (ntypx) = 10
     Max number of k-points (npk) =  40000
     Max angular momentum in pseudopotentials (lmaxx) =  4

     K-points division:     npool     =       8
     R & G space division:  proc/nbgrp/npool/nimage =      16
     Subspace diagonalization in iterative solution of the eigenvalue problem:
     a serial algorithm will be used


     Parallelization info
     --------------------
     sticks:   dense  smooth     PW     G-vecs:    dense   smooth      PW
     Min         170     170     52                 4260     4260     726
     Max         171     171     53                 4262     4262     728
     Sum        2731    2731    841                68181    68181   11631

     Using Slab Decomposition



     bravais-lattice index     =            7
     lattice parameter (alat)  =      11.0200  a.u.
     unit-cell volume          =     365.0809 (a.u.)^3
     number of atoms/cell      =            2
     number of atomic types    =            1
     number of electrons       =        28.00
     number of Kohn-Sham states=           14
     kinetic-energy cutoff     =     124.0000  Ry
     charge density cutoff     =     496.0000  Ry
     scf convergence threshold =      1.0E-07
     mixing beta               =       0.7000
     number of iterations used =            8  plain     mixing
     Exchange-correlation=  SLA  PW   GGX  GGC
                           (   1   4   2   2   0   0   0)

     celldm(1)=  11.020000  celldm(2)=   0.000000  celldm(3)=   0.545600
     celldm(4)=   0.000000  celldm(5)=   0.000000  celldm(6)=   0.000000

     crystal axes: (cart. coord. in units of alat)
               a(1) = (   0.500000  -0.500000   0.272800 )  
               a(2) = (   0.500000   0.500000   0.272800 )  
               a(3) = (  -0.500000  -0.500000   0.272800 )  

     reciprocal axes: (cart. coord. in units 2 pi/alat)
               b(1) = (  1.000000 -1.000000  0.000000 )  
               b(2) = (  0.000000  1.000000  1.832845 )  
               b(3) = ( -1.000000  0.000000  1.832845 )  


     PseudoPot. # 1 for Sn read from file:
     ./Sn.pw91-n-van.UPF
     MD5 check sum: a38d2a872edd1a4efd76c0a1a38f7031
     Pseudo is Ultrasoft + core correction, Zval = 14.0
     Generated by new atomic code, or converted to UPF format
     Using radial grid of  891 points,  6 beta functions with: 
                l(1) =   0
                l(2) =   0
                l(3) =   1
                l(4) =   1
                l(5) =   2
                l(6) =   2
     Q(r) pseudized with  8 coefficients,  rinner =    1.100   1.100   1.100
                                                       1.100   1.100

     atomic species   valence    mass     pseudopotential
     Sn               14.00   118.70000     Sn( 1.00)

     16 Sym. Ops., with inversion, found (12 have fractional translation)



   Cartesian axes

     site n.     atom                  positions (alat units)
         1        Sn     tau(   1) = (   0.0000000  -0.2500000   0.0682000  )
         2        Sn     tau(   2) = (   0.0000000   0.2500000  -0.0682000  )

     number of k points=    13
                       cart. coord. in units 2pi/alat
        k(    1) = (   0.0000000   0.0000000   0.0000000), wk =   0.0312500
        k(    2) = (  -0.2500000   0.0000000   0.4582111), wk =   0.2500000
        k(    3) = (   0.5000000   0.0000000  -0.9164223), wk =   0.1250000
        k(    4) = (  -0.2500000   0.2500000   0.9164223), wk =   0.2500000
        k(    5) = (   0.5000000   0.2500000  -0.4582111), wk =   0.5000000
        k(    6) = (   0.2500000   0.2500000   0.0000000), wk =   0.1250000
        k(    7) = (   0.5000000  -0.5000000  -1.8328446), wk =   0.0625000
        k(    8) = (   0.0000000   0.0000000   0.9164223), wk =   0.0625000
        k(    9) = (   0.7500000   0.0000000  -0.4582111), wk =   0.2500000
        k(   10) = (   0.5000000   0.0000000   0.0000000), wk =   0.1250000
        k(   11) = (   0.7500000  -0.7500000  -1.8328446), wk =   0.1250000
        k(   12) = (   0.5000000  -0.5000000  -0.9164223), wk =   0.0625000
        k(   13) = (   0.0000000   0.0000000  -1.8328446), wk =   0.0312500

     Dense  grid:    68181 G-vectors     FFT dimensions: (  60,  60,  60)

     Estimated max dynamical RAM per process >       6.76 MB

     Estimated total dynamical RAM >     749.27 MB

     Initial potential from superposition of free atoms

     starting charge      27.9964, renormalised to      28.0000
     Starting wfcs are   18 randomized atomic wfcs

     total cpu time spent up to now is        0.9 secs

     per-process dynamical memory:    12.7 Mb

     Self-consistent Calculation

     iteration #  1     ecut=   124.00 Ry     beta= 0.70
     Davidson diagonalization with overlap
     ethr =  1.00E-02,  avg # of iterations =  1.8

     Threshold (ethr) on eigenvalues was too large:
     Diagonalizing with lowered threshold

     Davidson diagonalization with overlap
     ethr =  2.39E-05,  avg # of iterations =  4.0

     total cpu time spent up to now is        1.1 secs

     total energy              =    -325.57699279 Ry
     estimated scf accuracy    <       0.00689337 Ry

     iteration #  2     ecut=   124.00 Ry     beta= 0.70
     Davidson diagonalization with overlap
     ethr =  2.46E-05,  avg # of iterations =  2.0

     total cpu time spent up to now is        1.2 secs

     total energy              =    -325.57801283 Ry
     estimated scf accuracy    <       0.00055504 Ry

     iteration #  3     ecut=   124.00 Ry     beta= 0.70
     Davidson diagonalization with overlap
     ethr =  1.98E-06,  avg # of iterations =  2.0

     total cpu time spent up to now is        1.2 secs

     total energy              =    -325.57807844 Ry
     estimated scf accuracy    <       0.00004130 Ry

     iteration #  4     ecut=   124.00 Ry     beta= 0.70
     Davidson diagonalization with overlap
     ethr =  1.48E-07,  avg # of iterations =  3.1

     total cpu time spent up to now is        1.3 secs

     total energy              =    -325.57808513 Ry
     estimated scf accuracy    <       0.00000080 Ry

     iteration #  5     ecut=   124.00 Ry     beta= 0.70
     Davidson diagonalization with overlap
     ethr =  2.85E-09,  avg # of iterations =  3.7

     total cpu time spent up to now is        1.4 secs

     total energy              =    -325.57808540 Ry
     estimated scf accuracy    <       0.00000017 Ry

     iteration #  6     ecut=   124.00 Ry     beta= 0.70
     Davidson diagonalization with overlap
     ethr =  6.08E-10,  avg # of iterations =  2.3

     total cpu time spent up to now is        1.5 secs

     End of self-consistent calculation

          k = 0.0000 0.0000 0.0000 (  8523 PWs)   bands (ev):

   -10.8070 -10.7243 -10.6806 -10.6694 -10.5190 -10.5190 -10.5078 -10.5078
   -10.4158 -10.3041  -0.3472   7.1614   8.8398   8.8398

          k =-0.2500 0.0000 0.4582 (  8526 PWs)   bands (ev):

   -10.7711 -10.6432 -10.6386 -10.5974 -10.5750 -10.5335 -10.5252 -10.5022
   -10.4369 -10.3385   0.8910   6.5840   9.0440  11.2833

          k = 0.5000 0.0000-0.9164 (  8516 PWs)   bands (ev):

   -10.7318 -10.6613 -10.6447 -10.6050 -10.5711 -10.5679 -10.4694 -10.4221
   -10.4183 -10.3720   3.8534   5.3957   8.4875   9.1143

          k =-0.2500 0.2500 0.9164 (  8512 PWs)   bands (ev):

   -10.7456 -10.6580 -10.6146 -10.5976 -10.5957 -10.5453 -10.4863 -10.4669
   -10.3906 -10.3628   3.7387   6.0511   7.1233   9.1084

          k = 0.5000 0.2500-0.4582 (  8504 PWs)   bands (ev):

   -10.7143 -10.6549 -10.6512 -10.5972 -10.5801 -10.5230 -10.4893 -10.4817
   -10.4645 -10.4000   2.0035   4.1411   9.3956  10.6282

          k = 0.2500 0.2500 0.0000 (  8496 PWs)   bands (ev):

   -10.7568 -10.7311 -10.6960 -10.6386 -10.5456 -10.4981 -10.4966 -10.4886
   -10.4452 -10.3525   0.2175   4.5878   9.5064  10.5379

          k = 0.5000-0.5000-1.8328 (  8524 PWs)   bands (ev):

   -10.7276 -10.7276 -10.6396 -10.6396 -10.5457 -10.5457 -10.4743 -10.4743
   -10.4353 -10.4353   1.9006   1.9006  11.4185  11.4185

          k = 0.0000 0.0000 0.9164 (  8511 PWs)   bands (ev):

   -10.7372 -10.6297 -10.6297 -10.6102 -10.5648 -10.5648 -10.5412 -10.4477
   -10.3930 -10.3474   3.2955   7.1432   7.9731   9.4590

          k = 0.7500 0.0000-0.4582 (  8515 PWs)   bands (ev):

   -10.7015 -10.6593 -10.5966 -10.5872 -10.5527 -10.5361 -10.5252 -10.4885
   -10.4824 -10.4262   3.0226   4.3598   7.2618   8.4574

          k = 0.5000 0.0000 0.0000 (  8514 PWs)   bands (ev):

   -10.7431 -10.7133 -10.7013 -10.6072 -10.5232 -10.5153 -10.5114 -10.4687
   -10.4661 -10.3973   0.7800   4.3544   7.0799  10.7927

          k = 0.7500-0.7500-1.8328 (  8528 PWs)   bands (ev):

   -10.7341 -10.7341 -10.6018 -10.6018 -10.5380 -10.5380 -10.4885 -10.4885
   -10.4599 -10.4599   2.4049   2.4049   7.9918   7.9918

          k = 0.5000-0.5000-0.9164 (  8488 PWs)   bands (ev):

   -10.7098 -10.7098 -10.6394 -10.6394 -10.5318 -10.5318 -10.4382 -10.4382
   -10.4111 -10.4111   4.8059   4.8059   7.2812   7.2812

          k = 0.0000 0.0000-1.8328 (  8546 PWs)   bands (ev):

   -10.7370 -10.7370 -10.5382 -10.5382 -10.5277 -10.5277 -10.5160 -10.5160
   -10.5033 -10.5033   3.2427   3.2427   6.0121   6.0121

     highest occupied level (ev):    11.4185

!    total energy              =    -325.57808542 Ry
     estimated scf accuracy    <          3.7E-09 Ry

     The total energy is the sum of the following terms:
     one-electron contribution =    -107.31432622 Ry
     hartree contribution      =      74.47309037 Ry
     xc contribution           =     -95.22154637 Ry
     ewald contribution        =    -197.51530320 Ry

     convergence has been achieved in   6 iterations

     Writing all to output data dir ./beta-sn-scf/betatin.save/ :
     XML data file, charge density, pseudopotentials, collected wavefunctions

     init_run     :      0.55s CPU      0.61s WALL (       1 calls)
     electrons    :      0.56s CPU      0.66s WALL (       1 calls)

     Called by init_run:
     wfcinit      :      0.02s CPU      0.03s WALL (       1 calls)
     potinit      :      0.01s CPU      0.03s WALL (       1 calls)
     hinit0       :      0.46s CPU      0.47s WALL (       1 calls)

     Called by electrons:
     c_bands      :      0.31s CPU      0.33s WALL (       7 calls)
     sum_band     :      0.10s CPU      0.11s WALL (       7 calls)
     v_of_rho     :      0.09s CPU      0.10s WALL (       7 calls)
     newd         :      0.03s CPU      0.04s WALL (       7 calls)
     mix_rho      :      0.01s CPU      0.01s WALL (       7 calls)

     Called by c_bands:
     init_us_2    :      0.01s CPU      0.01s WALL (      30 calls)
     cegterg      :      0.29s CPU      0.30s WALL (      14 calls)

     Called by *egterg:
     cdiaghg      :      0.02s CPU      0.02s WALL (      60 calls)
     h_psi        :      0.26s CPU      0.27s WALL (      64 calls)
     s_psi        :      0.01s CPU      0.01s WALL (      64 calls)
     g_psi        :      0.00s CPU      0.00s WALL (      48 calls)

     Called by h_psi:
     h_psi:calbec :      0.01s CPU      0.01s WALL (      64 calls)
     vloc_psi     :      0.24s CPU      0.25s WALL (      64 calls)
     add_vuspsi   :      0.01s CPU      0.01s WALL (      64 calls)

     General routines
     calbec       :      0.01s CPU      0.01s WALL (      78 calls)
     fft          :      0.47s CPU      0.47s WALL (      78 calls)
     ffts         :      0.00s CPU      0.01s WALL (       7 calls)
     fftw         :      0.25s CPU      0.26s WALL (    1252 calls)

     Parallel routines

     PWSCF        :      1.33s CPU      1.65s WALL


   This run was terminated on:  15:56:13   5Feb2026            

=------------------------------------------------------------------------------=
   JOB DONE.
=------------------------------------------------------------------------------=
