
     Program PWSCF v.7.3.1 starts on  5Feb2026 at 15:56:20 

     This program is part of the open-source Quantum ESPRESSO suite
     for quantum simulation of materials; please cite
         "P. Giannozzi et al., J. Phys.:Condens. Matter 21 395502 (2009);
         "P. Giannozzi et al., J. Phys.:Condens. Matter 29 465901 (2017);
         "P. Giannozzi et al., J. Chem. Phys. 152 154105 (2020);
          URL http://www.quantum-espresso.org", 
     in publications or presentations arising from this work. More details at
     http://www.quantum-espresso.org/quote

     Parallel version (MPI), running on   128 processors

     MPI processes distributed on     1 nodes
     242298 MiB available memory on the printing compute node when the environment starts

     Waiting for input...
     Reading input from standard input

     Current dimensions of program PWSCF are:
     Max number of different atomic species (ntypx) = 10
     Max number of k-points (npk) =  40000
     Max angular momentum in pseudopotentials (lmaxx) =  4

     K-points division:     npool     =       8
     R & G space division:  proc/nbgrp/npool/nimage =      16
     Subspace diagonalization in iterative solution of the eigenvalue problem:
     a serial algorithm will be used


     Parallelization info
     --------------------
     sticks:   dense  smooth     PW     G-vecs:    dense   smooth      PW
     Min         172     172     53                 4362     4362     739
     Max         173     173     54                 4364     4364     742
     Sum        2767    2767    849                69813    69813   11855

     Using Slab Decomposition



     bravais-lattice index     =            7
     lattice parameter (alat)  =      11.0200  a.u.
     unit-cell volume          =     365.0809 (a.u.)^3
     number of atoms/cell      =            2
     number of atomic types    =            1
     number of electrons       =        28.00
     number of Kohn-Sham states=           14
     kinetic-energy cutoff     =     126.0000  Ry
     charge density cutoff     =     504.0000  Ry
     scf convergence threshold =      1.0E-07
     mixing beta               =       0.7000
     number of iterations used =            8  plain     mixing
     Exchange-correlation=  SLA  PW   GGX  GGC
                           (   1   4   2   2   0   0   0)

     celldm(1)=  11.020000  celldm(2)=   0.000000  celldm(3)=   0.545600
     celldm(4)=   0.000000  celldm(5)=   0.000000  celldm(6)=   0.000000

     crystal axes: (cart. coord. in units of alat)
               a(1) = (   0.500000  -0.500000   0.272800 )  
               a(2) = (   0.500000   0.500000   0.272800 )  
               a(3) = (  -0.500000  -0.500000   0.272800 )  

     reciprocal axes: (cart. coord. in units 2 pi/alat)
               b(1) = (  1.000000 -1.000000  0.000000 )  
               b(2) = (  0.000000  1.000000  1.832845 )  
               b(3) = ( -1.000000  0.000000  1.832845 )  


     PseudoPot. # 1 for Sn read from file:
     ./Sn.pw91-n-van.UPF
     MD5 check sum: a38d2a872edd1a4efd76c0a1a38f7031
     Pseudo is Ultrasoft + core correction, Zval = 14.0
     Generated by new atomic code, or converted to UPF format
     Using radial grid of  891 points,  6 beta functions with: 
                l(1) =   0
                l(2) =   0
                l(3) =   1
                l(4) =   1
                l(5) =   2
                l(6) =   2
     Q(r) pseudized with  8 coefficients,  rinner =    1.100   1.100   1.100
                                                       1.100   1.100

     atomic species   valence    mass     pseudopotential
     Sn               14.00   118.70000     Sn( 1.00)

     16 Sym. Ops., with inversion, found (12 have fractional translation)



   Cartesian axes

     site n.     atom                  positions (alat units)
         1        Sn     tau(   1) = (   0.0000000  -0.2500000   0.0682000  )
         2        Sn     tau(   2) = (   0.0000000   0.2500000  -0.0682000  )

     number of k points=    13
                       cart. coord. in units 2pi/alat
        k(    1) = (   0.0000000   0.0000000   0.0000000), wk =   0.0312500
        k(    2) = (  -0.2500000   0.0000000   0.4582111), wk =   0.2500000
        k(    3) = (   0.5000000   0.0000000  -0.9164223), wk =   0.1250000
        k(    4) = (  -0.2500000   0.2500000   0.9164223), wk =   0.2500000
        k(    5) = (   0.5000000   0.2500000  -0.4582111), wk =   0.5000000
        k(    6) = (   0.2500000   0.2500000   0.0000000), wk =   0.1250000
        k(    7) = (   0.5000000  -0.5000000  -1.8328446), wk =   0.0625000
        k(    8) = (   0.0000000   0.0000000   0.9164223), wk =   0.0625000
        k(    9) = (   0.7500000   0.0000000  -0.4582111), wk =   0.2500000
        k(   10) = (   0.5000000   0.0000000   0.0000000), wk =   0.1250000
        k(   11) = (   0.7500000  -0.7500000  -1.8328446), wk =   0.1250000
        k(   12) = (   0.5000000  -0.5000000  -0.9164223), wk =   0.0625000
        k(   13) = (   0.0000000   0.0000000  -1.8328446), wk =   0.0312500

     Dense  grid:    69813 G-vectors     FFT dimensions: (  60,  60,  60)

     Estimated max dynamical RAM per process >       6.87 MB

     Estimated total dynamical RAM >     760.61 MB

     Initial potential from superposition of free atoms

     starting charge      27.9964, renormalised to      28.0000
     Starting wfcs are   18 randomized atomic wfcs

     total cpu time spent up to now is        0.9 secs

     per-process dynamical memory:    12.8 Mb

     Self-consistent Calculation

     iteration #  1     ecut=   126.00 Ry     beta= 0.70
     Davidson diagonalization with overlap
     ethr =  1.00E-02,  avg # of iterations =  1.8

     Threshold (ethr) on eigenvalues was too large:
     Diagonalizing with lowered threshold

     Davidson diagonalization with overlap
     ethr =  2.39E-05,  avg # of iterations =  3.8

     total cpu time spent up to now is        1.1 secs

     total energy              =    -325.57787347 Ry
     estimated scf accuracy    <       0.00687670 Ry

     iteration #  2     ecut=   126.00 Ry     beta= 0.70
     Davidson diagonalization with overlap
     ethr =  2.46E-05,  avg # of iterations =  2.0

     total cpu time spent up to now is        1.2 secs

     total energy              =    -325.57890061 Ry
     estimated scf accuracy    <       0.00055200 Ry

     iteration #  3     ecut=   126.00 Ry     beta= 0.70
     Davidson diagonalization with overlap
     ethr =  1.97E-06,  avg # of iterations =  2.2

     total cpu time spent up to now is        1.3 secs

     total energy              =    -325.57897068 Ry
     estimated scf accuracy    <       0.00004239 Ry

     iteration #  4     ecut=   126.00 Ry     beta= 0.70
     Davidson diagonalization with overlap
     ethr =  1.51E-07,  avg # of iterations =  3.2

     total cpu time spent up to now is        1.4 secs

     total energy              =    -325.57897786 Ry
     estimated scf accuracy    <       0.00000056 Ry

     iteration #  5     ecut=   126.00 Ry     beta= 0.70
     Davidson diagonalization with overlap
     ethr =  2.01E-09,  avg # of iterations =  3.4

     total cpu time spent up to now is        1.4 secs

     End of self-consistent calculation

          k = 0.0000 0.0000 0.0000 (  8699 PWs)   bands (ev):

   -10.8081 -10.7252 -10.6813 -10.6697 -10.5197 -10.5197 -10.5086 -10.5086
   -10.4166 -10.3048  -0.3473   7.1614   8.8397   8.8397

          k =-0.2500 0.0000 0.4582 (  8699 PWs)   bands (ev):

   -10.7720 -10.6441 -10.6392 -10.5980 -10.5756 -10.5344 -10.5258 -10.5028
   -10.4378 -10.3393   0.8910   6.5840   9.0439  11.2832

          k = 0.5000 0.0000-0.9164 (  8730 PWs)   bands (ev):

   -10.7326 -10.6621 -10.6453 -10.6060 -10.5720 -10.5688 -10.4703 -10.4228
   -10.4193 -10.3728   3.8532   5.3957   8.4875   9.1145

          k =-0.2500 0.2500 0.9164 (  8726 PWs)   bands (ev):

   -10.7466 -10.6587 -10.6155 -10.5985 -10.5966 -10.5461 -10.4872 -10.4679
   -10.3913 -10.3637   3.7386   6.0510   7.1234   9.1085

          k = 0.5000 0.2500-0.4582 (  8717 PWs)   bands (ev):

   -10.7153 -10.6557 -10.6520 -10.5981 -10.5810 -10.5238 -10.4902 -10.4824
   -10.4653 -10.4010   2.0034   4.1410   9.3954  10.6281

          k = 0.2500 0.2500 0.0000 (  8724 PWs)   bands (ev):

   -10.7581 -10.7318 -10.6966 -10.6396 -10.5467 -10.4991 -10.4974 -10.4894
   -10.4462 -10.3533   0.2174   4.5878   9.5063  10.5378

          k = 0.5000-0.5000-1.8328 (  8736 PWs)   bands (ev):

   -10.7284 -10.7284 -10.6405 -10.6405 -10.5466 -10.5466 -10.4752 -10.4752
   -10.4361 -10.4361   1.9006   1.9006  11.4183  11.4183

          k = 0.0000 0.0000 0.9164 (  8695 PWs)   bands (ev):

   -10.7380 -10.6304 -10.6304 -10.6111 -10.5656 -10.5656 -10.5419 -10.4484
   -10.3938 -10.3482   3.2954   7.1432   7.9732   9.4588

          k = 0.7500 0.0000-0.4582 (  8717 PWs)   bands (ev):

   -10.7025 -10.6600 -10.5974 -10.5882 -10.5537 -10.5369 -10.5260 -10.4895
   -10.4832 -10.4270   3.0225   4.3598   7.2617   8.4573

          k = 0.5000 0.0000 0.0000 (  8736 PWs)   bands (ev):

   -10.7440 -10.7142 -10.7022 -10.6083 -10.5240 -10.5161 -10.5122 -10.4694
   -10.4673 -10.3982   0.7799   4.3543   7.0798  10.7926

          k = 0.7500-0.7500-1.8328 (  8746 PWs)   bands (ev):

   -10.7348 -10.7348 -10.6028 -10.6028 -10.5389 -10.5389 -10.4894 -10.4894
   -10.4608 -10.4608   2.4049   2.4049   7.9916   7.9916

          k = 0.5000-0.5000-0.9164 (  8740 PWs)   bands (ev):

   -10.7109 -10.7109 -10.6403 -10.6403 -10.5329 -10.5329 -10.4392 -10.4392
   -10.4119 -10.4119   4.8057   4.8057   7.2813   7.2813

          k = 0.0000 0.0000-1.8328 (  8722 PWs)   bands (ev):

   -10.7375 -10.7375 -10.5390 -10.5390 -10.5286 -10.5286 -10.5169 -10.5169
   -10.5041 -10.5041   3.2427   3.2427   6.0120   6.0120

     highest occupied level (ev):    11.4183

!    total energy              =    -325.57897809 Ry
     estimated scf accuracy    <       0.00000004 Ry

     The total energy is the sum of the following terms:
     one-electron contribution =    -107.31582102 Ry
     hartree contribution      =      74.47388080 Ry
     xc contribution           =     -95.22173467 Ry
     ewald contribution        =    -197.51530320 Ry

     convergence has been achieved in   5 iterations

     Writing all to output data dir ./beta-sn-scf/betatin.save/ :
     XML data file, charge density, pseudopotentials, collected wavefunctions

     init_run     :      0.59s CPU      0.61s WALL (       1 calls)
     electrons    :      0.47s CPU      0.54s WALL (       1 calls)

     Called by init_run:
     wfcinit      :      0.03s CPU      0.03s WALL (       1 calls)
     potinit      :      0.03s CPU      0.03s WALL (       1 calls)
     hinit0       :      0.46s CPU      0.46s WALL (       1 calls)

     Called by electrons:
     c_bands      :      0.27s CPU      0.29s WALL (       6 calls)
     sum_band     :      0.09s CPU      0.10s WALL (       6 calls)
     v_of_rho     :      0.08s CPU      0.09s WALL (       6 calls)
     newd         :      0.04s CPU      0.04s WALL (       6 calls)
     mix_rho      :      0.01s CPU      0.01s WALL (       6 calls)

     Called by c_bands:
     init_us_2    :      0.01s CPU      0.01s WALL (      26 calls)
     cegterg      :      0.24s CPU      0.26s WALL (      12 calls)

     Called by *egterg:
     cdiaghg      :      0.02s CPU      0.02s WALL (      49 calls)
     h_psi        :      0.23s CPU      0.24s WALL (      53 calls)
     s_psi        :      0.01s CPU      0.01s WALL (      53 calls)
     g_psi        :      0.00s CPU      0.00s WALL (      39 calls)

     Called by h_psi:
     h_psi:calbec :      0.01s CPU      0.01s WALL (      53 calls)
     vloc_psi     :      0.21s CPU      0.22s WALL (      53 calls)
     add_vuspsi   :      0.01s CPU      0.01s WALL (      53 calls)

     General routines
     calbec       :      0.01s CPU      0.01s WALL (      65 calls)
     fft          :      0.46s CPU      0.46s WALL (      67 calls)
     ffts         :      0.00s CPU      0.00s WALL (       6 calls)
     fftw         :      0.22s CPU      0.24s WALL (    1086 calls)

     Parallel routines

     PWSCF        :      1.30s CPU      1.56s WALL


   This run was terminated on:  15:56:21   5Feb2026            

=------------------------------------------------------------------------------=
   JOB DONE.
=------------------------------------------------------------------------------=
