
     Program PWSCF v.7.3.1 starts on  5Feb2026 at 15:56:28 

     This program is part of the open-source Quantum ESPRESSO suite
     for quantum simulation of materials; please cite
         "P. Giannozzi et al., J. Phys.:Condens. Matter 21 395502 (2009);
         "P. Giannozzi et al., J. Phys.:Condens. Matter 29 465901 (2017);
         "P. Giannozzi et al., J. Chem. Phys. 152 154105 (2020);
          URL http://www.quantum-espresso.org", 
     in publications or presentations arising from this work. More details at
     http://www.quantum-espresso.org/quote

     Parallel version (MPI), running on   128 processors

     MPI processes distributed on     1 nodes
     242374 MiB available memory on the printing compute node when the environment starts

     Waiting for input...
     Reading input from standard input

     Current dimensions of program PWSCF are:
     Max number of different atomic species (ntypx) = 10
     Max number of k-points (npk) =  40000
     Max angular momentum in pseudopotentials (lmaxx) =  4

     K-points division:     npool     =       4
     R & G space division:  proc/nbgrp/npool/nimage =      32
     Subspace diagonalization in iterative solution of the eigenvalue problem:
     a serial algorithm will be used


     Parallelization info
     --------------------
     sticks:   dense  smooth     PW     G-vecs:    dense   smooth      PW
     Min          88      88     26                 2229     2229     376
     Max          89      89     27                 2230     2230     380
     Sum        2819    2819    861                71345    71345   12111

     Using Slab Decomposition



     bravais-lattice index     =            7
     lattice parameter (alat)  =      11.0200  a.u.
     unit-cell volume          =     365.0809 (a.u.)^3
     number of atoms/cell      =            2
     number of atomic types    =            1
     number of electrons       =        28.00
     number of Kohn-Sham states=           14
     kinetic-energy cutoff     =     128.0000  Ry
     charge density cutoff     =     512.0000  Ry
     scf convergence threshold =      1.0E-07
     mixing beta               =       0.7000
     number of iterations used =            8  plain     mixing
     Exchange-correlation=  SLA  PW   GGX  GGC
                           (   1   4   2   2   0   0   0)

     celldm(1)=  11.020000  celldm(2)=   0.000000  celldm(3)=   0.545600
     celldm(4)=   0.000000  celldm(5)=   0.000000  celldm(6)=   0.000000

     crystal axes: (cart. coord. in units of alat)
               a(1) = (   0.500000  -0.500000   0.272800 )  
               a(2) = (   0.500000   0.500000   0.272800 )  
               a(3) = (  -0.500000  -0.500000   0.272800 )  

     reciprocal axes: (cart. coord. in units 2 pi/alat)
               b(1) = (  1.000000 -1.000000  0.000000 )  
               b(2) = (  0.000000  1.000000  1.832845 )  
               b(3) = ( -1.000000  0.000000  1.832845 )  


     PseudoPot. # 1 for Sn read from file:
     ./Sn.pw91-n-van.UPF
     MD5 check sum: a38d2a872edd1a4efd76c0a1a38f7031
     Pseudo is Ultrasoft + core correction, Zval = 14.0
     Generated by new atomic code, or converted to UPF format
     Using radial grid of  891 points,  6 beta functions with: 
                l(1) =   0
                l(2) =   0
                l(3) =   1
                l(4) =   1
                l(5) =   2
                l(6) =   2
     Q(r) pseudized with  8 coefficients,  rinner =    1.100   1.100   1.100
                                                       1.100   1.100

     atomic species   valence    mass     pseudopotential
     Sn               14.00   118.70000     Sn( 1.00)

     16 Sym. Ops., with inversion, found (12 have fractional translation)



   Cartesian axes

     site n.     atom                  positions (alat units)
         1        Sn     tau(   1) = (   0.0000000  -0.2500000   0.0682000  )
         2        Sn     tau(   2) = (   0.0000000   0.2500000  -0.0682000  )

     number of k points=    13
                       cart. coord. in units 2pi/alat
        k(    1) = (   0.0000000   0.0000000   0.0000000), wk =   0.0312500
        k(    2) = (  -0.2500000   0.0000000   0.4582111), wk =   0.2500000
        k(    3) = (   0.5000000   0.0000000  -0.9164223), wk =   0.1250000
        k(    4) = (  -0.2500000   0.2500000   0.9164223), wk =   0.2500000
        k(    5) = (   0.5000000   0.2500000  -0.4582111), wk =   0.5000000
        k(    6) = (   0.2500000   0.2500000   0.0000000), wk =   0.1250000
        k(    7) = (   0.5000000  -0.5000000  -1.8328446), wk =   0.0625000
        k(    8) = (   0.0000000   0.0000000   0.9164223), wk =   0.0625000
        k(    9) = (   0.7500000   0.0000000  -0.4582111), wk =   0.2500000
        k(   10) = (   0.5000000   0.0000000   0.0000000), wk =   0.1250000
        k(   11) = (   0.7500000  -0.7500000  -1.8328446), wk =   0.1250000
        k(   12) = (   0.5000000  -0.5000000  -0.9164223), wk =   0.0625000
        k(   13) = (   0.0000000   0.0000000  -1.8328446), wk =   0.0312500

     Dense  grid:    71345 G-vectors     FFT dimensions: (  64,  64,  64)

     Estimated max dynamical RAM per process >       5.38 MB

     Estimated total dynamical RAM >     636.33 MB

     Initial potential from superposition of free atoms

     starting charge      27.9964, renormalised to      28.0000
     Starting wfcs are   18 randomized atomic wfcs

     total cpu time spent up to now is        0.8 secs

     per-process dynamical memory:    11.8 Mb

     Self-consistent Calculation

     iteration #  1     ecut=   128.00 Ry     beta= 0.70
     Davidson diagonalization with overlap
     ethr =  1.00E-02,  avg # of iterations =  1.8

     Threshold (ethr) on eigenvalues was too large:
     Diagonalizing with lowered threshold

     Davidson diagonalization with overlap
     ethr =  2.35E-05,  avg # of iterations =  3.9

     total cpu time spent up to now is        1.0 secs

     total energy              =    -325.57872871 Ry
     estimated scf accuracy    <       0.00688750 Ry

     iteration #  2     ecut=   128.00 Ry     beta= 0.70
     Davidson diagonalization with overlap
     ethr =  2.46E-05,  avg # of iterations =  2.0

     total cpu time spent up to now is        1.1 secs

     total energy              =    -325.57975851 Ry
     estimated scf accuracy    <       0.00055320 Ry

     iteration #  3     ecut=   128.00 Ry     beta= 0.70
     Davidson diagonalization with overlap
     ethr =  1.98E-06,  avg # of iterations =  2.2

     total cpu time spent up to now is        1.2 secs

     total energy              =    -325.57982858 Ry
     estimated scf accuracy    <       0.00004234 Ry

     iteration #  4     ecut=   128.00 Ry     beta= 0.70
     Davidson diagonalization with overlap
     ethr =  1.51E-07,  avg # of iterations =  3.2

     total cpu time spent up to now is        1.3 secs

     total energy              =    -325.57983499 Ry
     estimated scf accuracy    <       0.00000044 Ry

     iteration #  5     ecut=   128.00 Ry     beta= 0.70
     Davidson diagonalization with overlap
     ethr =  1.59E-09,  avg # of iterations =  4.0

     total cpu time spent up to now is        1.4 secs

     End of self-consistent calculation

          k = 0.0000 0.0000 0.0000 (  8903 PWs)   bands (ev):

   -10.8081 -10.7252 -10.6815 -10.6700 -10.5199 -10.5199 -10.5093 -10.5093
   -10.4167 -10.3051  -0.3472   7.1614   8.8397   8.8397

          k =-0.2500 0.0000 0.4582 (  8898 PWs)   bands (ev):

   -10.7724 -10.6442 -10.6395 -10.5984 -10.5758 -10.5346 -10.5262 -10.5031
   -10.4380 -10.3394   0.8910   6.5840   9.0439  11.2832

          k = 0.5000 0.0000-0.9164 (  8920 PWs)   bands (ev):

   -10.7329 -10.6624 -10.6454 -10.6062 -10.5723 -10.5691 -10.4704 -10.4232
   -10.4195 -10.3730   3.8533   5.3957   8.4875   9.1145

          k =-0.2500 0.2500 0.9164 (  8941 PWs)   bands (ev):

   -10.7468 -10.6590 -10.6157 -10.5987 -10.5969 -10.5463 -10.4875 -10.4681
   -10.3917 -10.3639   3.7387   6.0510   7.1234   9.1085

          k = 0.5000 0.2500-0.4582 (  8933 PWs)   bands (ev):

   -10.7156 -10.6560 -10.6523 -10.5984 -10.5813 -10.5241 -10.4904 -10.4827
   -10.4655 -10.4012   2.0034   4.1411   9.3955  10.6281

          k = 0.2500 0.2500 0.0000 (  8916 PWs)   bands (ev):

   -10.7583 -10.7322 -10.6968 -10.6397 -10.5468 -10.4994 -10.4976 -10.4896
   -10.4463 -10.3535   0.2174   4.5878   9.5063  10.5378

          k = 0.5000-0.5000-1.8328 (  8912 PWs)   bands (ev):

   -10.7285 -10.7285 -10.6408 -10.6408 -10.5467 -10.5467 -10.4754 -10.4754
   -10.4362 -10.4362   1.9006   1.9006  11.4183  11.4183

          k = 0.0000 0.0000 0.9164 (  8951 PWs)   bands (ev):

   -10.7386 -10.6307 -10.6307 -10.6112 -10.5663 -10.5663 -10.5423 -10.4490
   -10.3941 -10.3483   3.2954   7.1432   7.9732   9.4589

          k = 0.7500 0.0000-0.4582 (  8945 PWs)   bands (ev):

   -10.7027 -10.6603 -10.5977 -10.5885 -10.5541 -10.5372 -10.5263 -10.4898
   -10.4835 -10.4272   3.0226   4.3598   7.2617   8.4573

          k = 0.5000 0.0000 0.0000 (  8930 PWs)   bands (ev):

   -10.7441 -10.7145 -10.7024 -10.6086 -10.5242 -10.5164 -10.5126 -10.4695
   -10.4674 -10.3984   0.7800   4.3544   7.0798  10.7926

          k = 0.7500-0.7500-1.8328 (  8938 PWs)   bands (ev):

   -10.7350 -10.7350 -10.6030 -10.6030 -10.5391 -10.5391 -10.4897 -10.4897
   -10.4609 -10.4609   2.4049   2.4049   7.9917   7.9917

          k = 0.5000-0.5000-0.9164 (  8944 PWs)   bands (ev):

   -10.7110 -10.7110 -10.6405 -10.6405 -10.5331 -10.5331 -10.4394 -10.4394
   -10.4124 -10.4124   4.8058   4.8058   7.2812   7.2812

          k = 0.0000 0.0000-1.8328 (  8938 PWs)   bands (ev):

   -10.7379 -10.7379 -10.5394 -10.5394 -10.5290 -10.5290 -10.5171 -10.5171
   -10.5043 -10.5043   3.2427   3.2427   6.0120   6.0120

     highest occupied level (ev):    11.4183

!    total energy              =    -325.57983522 Ry
     estimated scf accuracy    <       0.00000003 Ry

     The total energy is the sum of the following terms:
     one-electron contribution =    -107.31681695 Ry
     hartree contribution      =      74.47406443 Ry
     xc contribution           =     -95.22177950 Ry
     ewald contribution        =    -197.51530320 Ry

     convergence has been achieved in   5 iterations

     Writing all to output data dir ./beta-sn-scf/betatin.save/ :
     XML data file, charge density, pseudopotentials, collected wavefunctions

     init_run     :      0.43s CPU      0.51s WALL (       1 calls)
     electrons    :      0.49s CPU      0.57s WALL (       1 calls)

     Called by init_run:
     wfcinit      :      0.09s CPU      0.10s WALL (       1 calls)
     potinit      :      0.01s CPU      0.03s WALL (       1 calls)
     hinit0       :      0.29s CPU      0.31s WALL (       1 calls)

     Called by electrons:
     c_bands      :      0.33s CPU      0.37s WALL (       6 calls)
     sum_band     :      0.08s CPU      0.10s WALL (       6 calls)
     v_of_rho     :      0.04s CPU      0.05s WALL (       6 calls)
     newd         :      0.02s CPU      0.03s WALL (       6 calls)
     mix_rho      :      0.00s CPU      0.01s WALL (       6 calls)

     Called by c_bands:
     init_us_2    :      0.01s CPU      0.01s WALL (      52 calls)
     cegterg      :      0.31s CPU      0.34s WALL (      24 calls)

     Called by *egterg:
     cdiaghg      :      0.03s CPU      0.03s WALL (      97 calls)
     h_psi        :      0.33s CPU      0.35s WALL (     105 calls)
     s_psi        :      0.00s CPU      0.00s WALL (     105 calls)
     g_psi        :      0.00s CPU      0.00s WALL (      77 calls)

     Called by h_psi:
     h_psi:calbec :      0.01s CPU      0.01s WALL (     105 calls)
     vloc_psi     :      0.31s CPU      0.33s WALL (     105 calls)
     add_vuspsi   :      0.01s CPU      0.01s WALL (     105 calls)

     General routines
     calbec       :      0.01s CPU      0.02s WALL (     129 calls)
     fft          :      0.28s CPU      0.29s WALL (      67 calls)
     ffts         :      0.00s CPU      0.00s WALL (       6 calls)
     fftw         :      0.32s CPU      0.35s WALL (    2196 calls)

     Parallel routines

     PWSCF        :      1.19s CPU      1.52s WALL


   This run was terminated on:  15:56:30   5Feb2026            

=------------------------------------------------------------------------------=
   JOB DONE.
=------------------------------------------------------------------------------=
