
     Program PWSCF v.7.3.1 starts on  5Feb2026 at 15:57: 5 

     This program is part of the open-source Quantum ESPRESSO suite
     for quantum simulation of materials; please cite
         "P. Giannozzi et al., J. Phys.:Condens. Matter 21 395502 (2009);
         "P. Giannozzi et al., J. Phys.:Condens. Matter 29 465901 (2017);
         "P. Giannozzi et al., J. Chem. Phys. 152 154105 (2020);
          URL http://www.quantum-espresso.org", 
     in publications or presentations arising from this work. More details at
     http://www.quantum-espresso.org/quote

     Parallel version (MPI), running on   128 processors

     MPI processes distributed on     1 nodes
     242398 MiB available memory on the printing compute node when the environment starts

     Waiting for input...
     Reading input from standard input

     Current dimensions of program PWSCF are:
     Max number of different atomic species (ntypx) = 10
     Max number of k-points (npk) =  40000
     Max angular momentum in pseudopotentials (lmaxx) =  4

     K-points division:     npool     =       4
     R & G space division:  proc/nbgrp/npool/nimage =      32
     Subspace diagonalization in iterative solution of the eigenvalue problem:
     a serial algorithm will be used


     Parallelization info
     --------------------
     sticks:   dense  smooth     PW     G-vecs:    dense   smooth      PW
     Min          92      92     27                 2388     2388     398
     Max          93      93     28                 2389     2389     402
     Sum        2947    2947    887                76431    76431   12813

     Using Slab Decomposition



     bravais-lattice index     =            7
     lattice parameter (alat)  =      11.0200  a.u.
     unit-cell volume          =     365.0809 (a.u.)^3
     number of atoms/cell      =            2
     number of atomic types    =            1
     number of electrons       =        28.00
     number of Kohn-Sham states=           14
     kinetic-energy cutoff     =     134.0000  Ry
     charge density cutoff     =     536.0000  Ry
     scf convergence threshold =      1.0E-07
     mixing beta               =       0.7000
     number of iterations used =            8  plain     mixing
     Exchange-correlation=  SLA  PW   GGX  GGC
                           (   1   4   2   2   0   0   0)

     celldm(1)=  11.020000  celldm(2)=   0.000000  celldm(3)=   0.545600
     celldm(4)=   0.000000  celldm(5)=   0.000000  celldm(6)=   0.000000

     crystal axes: (cart. coord. in units of alat)
               a(1) = (   0.500000  -0.500000   0.272800 )  
               a(2) = (   0.500000   0.500000   0.272800 )  
               a(3) = (  -0.500000  -0.500000   0.272800 )  

     reciprocal axes: (cart. coord. in units 2 pi/alat)
               b(1) = (  1.000000 -1.000000  0.000000 )  
               b(2) = (  0.000000  1.000000  1.832845 )  
               b(3) = ( -1.000000  0.000000  1.832845 )  


     PseudoPot. # 1 for Sn read from file:
     ./Sn.pw91-n-van.UPF
     MD5 check sum: a38d2a872edd1a4efd76c0a1a38f7031
     Pseudo is Ultrasoft + core correction, Zval = 14.0
     Generated by new atomic code, or converted to UPF format
     Using radial grid of  891 points,  6 beta functions with: 
                l(1) =   0
                l(2) =   0
                l(3) =   1
                l(4) =   1
                l(5) =   2
                l(6) =   2
     Q(r) pseudized with  8 coefficients,  rinner =    1.100   1.100   1.100
                                                       1.100   1.100

     atomic species   valence    mass     pseudopotential
     Sn               14.00   118.70000     Sn( 1.00)

     16 Sym. Ops., with inversion, found (12 have fractional translation)



   Cartesian axes

     site n.     atom                  positions (alat units)
         1        Sn     tau(   1) = (   0.0000000  -0.2500000   0.0682000  )
         2        Sn     tau(   2) = (   0.0000000   0.2500000  -0.0682000  )

     number of k points=    13
                       cart. coord. in units 2pi/alat
        k(    1) = (   0.0000000   0.0000000   0.0000000), wk =   0.0312500
        k(    2) = (  -0.2500000   0.0000000   0.4582111), wk =   0.2500000
        k(    3) = (   0.5000000   0.0000000  -0.9164223), wk =   0.1250000
        k(    4) = (  -0.2500000   0.2500000   0.9164223), wk =   0.2500000
        k(    5) = (   0.5000000   0.2500000  -0.4582111), wk =   0.5000000
        k(    6) = (   0.2500000   0.2500000   0.0000000), wk =   0.1250000
        k(    7) = (   0.5000000  -0.5000000  -1.8328446), wk =   0.0625000
        k(    8) = (   0.0000000   0.0000000   0.9164223), wk =   0.0625000
        k(    9) = (   0.7500000   0.0000000  -0.4582111), wk =   0.2500000
        k(   10) = (   0.5000000   0.0000000   0.0000000), wk =   0.1250000
        k(   11) = (   0.7500000  -0.7500000  -1.8328446), wk =   0.1250000
        k(   12) = (   0.5000000  -0.5000000  -0.9164223), wk =   0.0625000
        k(   13) = (   0.0000000   0.0000000  -1.8328446), wk =   0.0312500

     Dense  grid:    76431 G-vectors     FFT dimensions: (  64,  64,  64)

     Estimated max dynamical RAM per process >       5.64 MB

     Estimated total dynamical RAM >     665.35 MB

     Initial potential from superposition of free atoms

     starting charge      27.9964, renormalised to      28.0000
     Starting wfcs are   18 randomized atomic wfcs

     total cpu time spent up to now is        0.8 secs

     per-process dynamical memory:    11.9 Mb

     Self-consistent Calculation

     iteration #  1     ecut=   134.00 Ry     beta= 0.70
     Davidson diagonalization with overlap
     ethr =  1.00E-02,  avg # of iterations =  1.8

     Threshold (ethr) on eigenvalues was too large:
     Diagonalizing with lowered threshold

     Davidson diagonalization with overlap
     ethr =  2.38E-05,  avg # of iterations =  3.9

     total cpu time spent up to now is        1.0 secs

     total energy              =    -325.58086362 Ry
     estimated scf accuracy    <       0.00685158 Ry

     iteration #  2     ecut=   134.00 Ry     beta= 0.70
     Davidson diagonalization with overlap
     ethr =  2.45E-05,  avg # of iterations =  2.0

     total cpu time spent up to now is        1.1 secs

     total energy              =    -325.58190447 Ry
     estimated scf accuracy    <       0.00055072 Ry

     iteration #  3     ecut=   134.00 Ry     beta= 0.70
     Davidson diagonalization with overlap
     ethr =  1.97E-06,  avg # of iterations =  2.2

     total cpu time spent up to now is        1.2 secs

     total energy              =    -325.58197490 Ry
     estimated scf accuracy    <       0.00004174 Ry

     iteration #  4     ecut=   134.00 Ry     beta= 0.70
     Davidson diagonalization with overlap
     ethr =  1.49E-07,  avg # of iterations =  2.7

     total cpu time spent up to now is        1.3 secs

     total energy              =    -325.58197955 Ry
     estimated scf accuracy    <       0.00000022 Ry

     iteration #  5     ecut=   134.00 Ry     beta= 0.70
     Davidson diagonalization with overlap
     ethr =  7.70E-10,  avg # of iterations =  3.6

     total cpu time spent up to now is        1.4 secs

     End of self-consistent calculation

          k = 0.0000 0.0000 0.0000 (  9571 PWs)   bands (ev):

   -10.8090 -10.7261 -10.6825 -10.6709 -10.5209 -10.5209 -10.5098 -10.5098
   -10.4180 -10.3055  -0.3472   7.1615   8.8397   8.8397

          k =-0.2500 0.0000 0.4582 (  9591 PWs)   bands (ev):

   -10.7732 -10.6452 -10.6405 -10.5993 -10.5768 -10.5356 -10.5270 -10.5041
   -10.4389 -10.3401   0.8911   6.5841   9.0440  11.2832

          k = 0.5000 0.0000-0.9164 (  9560 PWs)   bands (ev):

   -10.7337 -10.6632 -10.6464 -10.6070 -10.5728 -10.5700 -10.4712 -10.4240
   -10.4203 -10.3737   3.8534   5.3957   8.4875   9.1143

          k =-0.2500 0.2500 0.9164 (  9579 PWs)   bands (ev):

   -10.7477 -10.6598 -10.6166 -10.5995 -10.5977 -10.5470 -10.4883 -10.4689
   -10.3925 -10.3646   3.7387   6.0511   7.1233   9.1084

          k = 0.5000 0.2500-0.4582 (  9556 PWs)   bands (ev):

   -10.7163 -10.6568 -10.6532 -10.5991 -10.5820 -10.5248 -10.4912 -10.4835
   -10.4663 -10.4018   2.0035   4.1411   9.3955  10.6281

          k = 0.2500 0.2500 0.0000 (  9547 PWs)   bands (ev):

   -10.7590 -10.7329 -10.6976 -10.6406 -10.5476 -10.5001 -10.4984 -10.4905
   -10.4472 -10.3541   0.2175   4.5878   9.5064  10.5378

          k = 0.5000-0.5000-1.8328 (  9544 PWs)   bands (ev):

   -10.7293 -10.7293 -10.6417 -10.6417 -10.5475 -10.5475 -10.4761 -10.4761
   -10.4370 -10.4370   1.9006   1.9006  11.4184  11.4184

          k = 0.0000 0.0000 0.9164 (  9603 PWs)   bands (ev):

   -10.7394 -10.6314 -10.6314 -10.6120 -10.5671 -10.5671 -10.5432 -10.4495
   -10.3951 -10.3491   3.2955   7.1433   7.9731   9.4589

          k = 0.7500 0.0000-0.4582 (  9564 PWs)   bands (ev):

   -10.7036 -10.6613 -10.5986 -10.5891 -10.5546 -10.5380 -10.5271 -10.4904
   -10.4842 -10.4280   3.0226   4.3598   7.2618   8.4574

          k = 0.5000 0.0000 0.0000 (  9568 PWs)   bands (ev):

   -10.7449 -10.7153 -10.7033 -10.6092 -10.5250 -10.5171 -10.5133 -10.4705
   -10.4682 -10.3991   0.7800   4.3544   7.0799  10.7926

          k = 0.7500-0.7500-1.8328 (  9558 PWs)   bands (ev):

   -10.7359 -10.7359 -10.6038 -10.6038 -10.5397 -10.5397 -10.4905 -10.4905
   -10.4616 -10.4616   2.4050   2.4050   7.9917   7.9917

          k = 0.5000-0.5000-0.9164 (  9540 PWs)   bands (ev):

   -10.7117 -10.7117 -10.6413 -10.6413 -10.5337 -10.5337 -10.4401 -10.4401
   -10.4131 -10.4131   4.8059   4.8059   7.2811   7.2811

          k = 0.0000 0.0000-1.8328 (  9532 PWs)   bands (ev):

   -10.7387 -10.7387 -10.5398 -10.5398 -10.5294 -10.5294 -10.5179 -10.5179
   -10.5052 -10.5052   3.2427   3.2427   6.0120   6.0120

     highest occupied level (ev):    11.4184

!    total energy              =    -325.58197977 Ry
     estimated scf accuracy    <          9.8E-09 Ry

     The total energy is the sum of the following terms:
     one-electron contribution =    -107.31950578 Ry
     hartree contribution      =      74.47479980 Ry
     xc contribution           =     -95.22197060 Ry
     ewald contribution        =    -197.51530320 Ry

     convergence has been achieved in   5 iterations

     Writing all to output data dir ./beta-sn-scf/betatin.save/ :
     XML data file, charge density, pseudopotentials, collected wavefunctions

     init_run     :      0.45s CPU      0.51s WALL (       1 calls)
     electrons    :      0.51s CPU      0.59s WALL (       1 calls)

     Called by init_run:
     wfcinit      :      0.09s CPU      0.10s WALL (       1 calls)
     potinit      :      0.02s CPU      0.03s WALL (       1 calls)
     hinit0       :      0.30s CPU      0.31s WALL (       1 calls)

     Called by electrons:
     c_bands      :      0.35s CPU      0.38s WALL (       6 calls)
     sum_band     :      0.09s CPU      0.10s WALL (       6 calls)
     v_of_rho     :      0.04s CPU      0.05s WALL (       6 calls)
     newd         :      0.01s CPU      0.03s WALL (       6 calls)
     mix_rho      :      0.00s CPU      0.00s WALL (       6 calls)

     Called by c_bands:
     init_us_2    :      0.01s CPU      0.01s WALL (      52 calls)
     cegterg      :      0.32s CPU      0.34s WALL (      24 calls)

     Called by *egterg:
     cdiaghg      :      0.03s CPU      0.03s WALL (      91 calls)
     h_psi        :      0.33s CPU      0.36s WALL (      99 calls)
     s_psi        :      0.01s CPU      0.01s WALL (      99 calls)
     g_psi        :      0.00s CPU      0.00s WALL (      71 calls)

     Called by h_psi:
     h_psi:calbec :      0.01s CPU      0.01s WALL (      99 calls)
     vloc_psi     :      0.31s CPU      0.33s WALL (      99 calls)
     add_vuspsi   :      0.01s CPU      0.01s WALL (      99 calls)

     General routines
     calbec       :      0.02s CPU      0.02s WALL (     123 calls)
     fft          :      0.28s CPU      0.29s WALL (      67 calls)
     ffts         :      0.00s CPU      0.00s WALL (       6 calls)
     fftw         :      0.33s CPU      0.35s WALL (    2204 calls)

     Parallel routines

     PWSCF        :      2.11s CPU      2.43s WALL


   This run was terminated on:  15:57: 7   5Feb2026            

=------------------------------------------------------------------------------=
   JOB DONE.
=------------------------------------------------------------------------------=
