
     Program PWSCF v.7.3.1 starts on  5Feb2026 at 15:57:38 

     This program is part of the open-source Quantum ESPRESSO suite
     for quantum simulation of materials; please cite
         "P. Giannozzi et al., J. Phys.:Condens. Matter 21 395502 (2009);
         "P. Giannozzi et al., J. Phys.:Condens. Matter 29 465901 (2017);
         "P. Giannozzi et al., J. Chem. Phys. 152 154105 (2020);
          URL http://www.quantum-espresso.org", 
     in publications or presentations arising from this work. More details at
     http://www.quantum-espresso.org/quote

     Parallel version (MPI), running on   128 processors

     MPI processes distributed on     1 nodes
     242367 MiB available memory on the printing compute node when the environment starts

     Waiting for input...
     Reading input from standard input

     Current dimensions of program PWSCF are:
     Max number of different atomic species (ntypx) = 10
     Max number of k-points (npk) =  40000
     Max angular momentum in pseudopotentials (lmaxx) =  4

     K-points division:     npool     =       4
     R & G space division:  proc/nbgrp/npool/nimage =      32
     Subspace diagonalization in iterative solution of the eigenvalue problem:
     a serial algorithm will be used


     Parallelization info
     --------------------
     sticks:   dense  smooth     PW     G-vecs:    dense   smooth      PW
     Min          95      95     28                 2499     2499     419
     Max          96      96     29                 2501     2501     421
     Sum        3043    3043    927                79995    79995   13465

     Using Slab Decomposition



     bravais-lattice index     =            7
     lattice parameter (alat)  =      11.0200  a.u.
     unit-cell volume          =     365.0809 (a.u.)^3
     number of atoms/cell      =            2
     number of atomic types    =            1
     number of electrons       =        28.00
     number of Kohn-Sham states=           14
     kinetic-energy cutoff     =     138.0000  Ry
     charge density cutoff     =     552.0000  Ry
     scf convergence threshold =      1.0E-07
     mixing beta               =       0.7000
     number of iterations used =            8  plain     mixing
     Exchange-correlation=  SLA  PW   GGX  GGC
                           (   1   4   2   2   0   0   0)

     celldm(1)=  11.020000  celldm(2)=   0.000000  celldm(3)=   0.545600
     celldm(4)=   0.000000  celldm(5)=   0.000000  celldm(6)=   0.000000

     crystal axes: (cart. coord. in units of alat)
               a(1) = (   0.500000  -0.500000   0.272800 )  
               a(2) = (   0.500000   0.500000   0.272800 )  
               a(3) = (  -0.500000  -0.500000   0.272800 )  

     reciprocal axes: (cart. coord. in units 2 pi/alat)
               b(1) = (  1.000000 -1.000000  0.000000 )  
               b(2) = (  0.000000  1.000000  1.832845 )  
               b(3) = ( -1.000000  0.000000  1.832845 )  


     PseudoPot. # 1 for Sn read from file:
     ./Sn.pw91-n-van.UPF
     MD5 check sum: a38d2a872edd1a4efd76c0a1a38f7031
     Pseudo is Ultrasoft + core correction, Zval = 14.0
     Generated by new atomic code, or converted to UPF format
     Using radial grid of  891 points,  6 beta functions with: 
                l(1) =   0
                l(2) =   0
                l(3) =   1
                l(4) =   1
                l(5) =   2
                l(6) =   2
     Q(r) pseudized with  8 coefficients,  rinner =    1.100   1.100   1.100
                                                       1.100   1.100

     atomic species   valence    mass     pseudopotential
     Sn               14.00   118.70000     Sn( 1.00)

     16 Sym. Ops., with inversion, found (12 have fractional translation)



   Cartesian axes

     site n.     atom                  positions (alat units)
         1        Sn     tau(   1) = (   0.0000000  -0.2500000   0.0682000  )
         2        Sn     tau(   2) = (   0.0000000   0.2500000  -0.0682000  )

     number of k points=    13
                       cart. coord. in units 2pi/alat
        k(    1) = (   0.0000000   0.0000000   0.0000000), wk =   0.0312500
        k(    2) = (  -0.2500000   0.0000000   0.4582111), wk =   0.2500000
        k(    3) = (   0.5000000   0.0000000  -0.9164223), wk =   0.1250000
        k(    4) = (  -0.2500000   0.2500000   0.9164223), wk =   0.2500000
        k(    5) = (   0.5000000   0.2500000  -0.4582111), wk =   0.5000000
        k(    6) = (   0.2500000   0.2500000   0.0000000), wk =   0.1250000
        k(    7) = (   0.5000000  -0.5000000  -1.8328446), wk =   0.0625000
        k(    8) = (   0.0000000   0.0000000   0.9164223), wk =   0.0625000
        k(    9) = (   0.7500000   0.0000000  -0.4582111), wk =   0.2500000
        k(   10) = (   0.5000000   0.0000000   0.0000000), wk =   0.1250000
        k(   11) = (   0.7500000  -0.7500000  -1.8328446), wk =   0.1250000
        k(   12) = (   0.5000000  -0.5000000  -0.9164223), wk =   0.0625000
        k(   13) = (   0.0000000   0.0000000  -1.8328446), wk =   0.0312500

     Dense  grid:    79995 G-vectors     FFT dimensions: (  64,  64,  64)

     Estimated max dynamical RAM per process >       5.81 MB

     Estimated total dynamical RAM >     685.49 MB

     Initial potential from superposition of free atoms

     starting charge      27.9964, renormalised to      28.0000
     Starting wfcs are   18 randomized atomic wfcs

     total cpu time spent up to now is        0.8 secs

     per-process dynamical memory:    12.0 Mb

     Self-consistent Calculation

     iteration #  1     ecut=   138.00 Ry     beta= 0.70
     Davidson diagonalization with overlap
     ethr =  1.00E-02,  avg # of iterations =  1.8

     Threshold (ethr) on eigenvalues was too large:
     Diagonalizing with lowered threshold

     Davidson diagonalization with overlap
     ethr =  2.36E-05,  avg # of iterations =  3.8

     total cpu time spent up to now is        1.0 secs

     total energy              =    -325.58174883 Ry
     estimated scf accuracy    <       0.00683706 Ry

     iteration #  2     ecut=   138.00 Ry     beta= 0.70
     Davidson diagonalization with overlap
     ethr =  2.44E-05,  avg # of iterations =  2.0

     total cpu time spent up to now is        1.1 secs

     total energy              =    -325.58283496 Ry
     estimated scf accuracy    <       0.00054560 Ry

     iteration #  3     ecut=   138.00 Ry     beta= 0.70
     Davidson diagonalization with overlap
     ethr =  1.95E-06,  avg # of iterations =  2.2

     total cpu time spent up to now is        1.2 secs

     total energy              =    -325.58290941 Ry
     estimated scf accuracy    <       0.00004113 Ry

     iteration #  4     ecut=   138.00 Ry     beta= 0.70
     Davidson diagonalization with overlap
     ethr =  1.47E-07,  avg # of iterations =  2.4

     total cpu time spent up to now is        1.3 secs

     total energy              =    -325.58291337 Ry
     estimated scf accuracy    <       0.00000022 Ry

     iteration #  5     ecut=   138.00 Ry     beta= 0.70
     Davidson diagonalization with overlap
     ethr =  8.02E-10,  avg # of iterations =  4.6

     total cpu time spent up to now is        1.4 secs

     End of self-consistent calculation

          k = 0.0000 0.0000 0.0000 ( 10043 PWs)   bands (ev):

   -10.8092 -10.7265 -10.6827 -10.6713 -10.5211 -10.5211 -10.5101 -10.5101
   -10.4181 -10.3059  -0.3472   7.1615   8.8398   8.8398

          k =-0.2500 0.0000 0.4582 (  9998 PWs)   bands (ev):

   -10.7733 -10.6453 -10.6407 -10.5995 -10.5769 -10.5357 -10.5272 -10.5043
   -10.4391 -10.3404   0.8911   6.5842   9.0440  11.2833

          k = 0.5000 0.0000-0.9164 ( 10014 PWs)   bands (ev):

   -10.7339 -10.6634 -10.6467 -10.6073 -10.5731 -10.5702 -10.4714 -10.4243
   -10.4205 -10.3740   3.8535   5.3958   8.4875   9.1143

          k =-0.2500 0.2500 0.9164 ( 10005 PWs)   bands (ev):

   -10.7478 -10.6601 -10.6168 -10.5997 -10.5979 -10.5473 -10.4886 -10.4691
   -10.3928 -10.3649   3.7388   6.0512   7.1233   9.1084

          k = 0.5000 0.2500-0.4582 (  9985 PWs)   bands (ev):

   -10.7165 -10.6570 -10.6534 -10.5994 -10.5822 -10.5250 -10.4914 -10.4837
   -10.4666 -10.4021   2.0035   4.1412   9.3956  10.6281

          k = 0.2500 0.2500 0.0000 ( 10033 PWs)   bands (ev):

   -10.7593 -10.7333 -10.6980 -10.6408 -10.5479 -10.5004 -10.4988 -10.4907
   -10.4474 -10.3544   0.2175   4.5879   9.5064  10.5378

          k = 0.5000-0.5000-1.8328 (  9942 PWs)   bands (ev):

   -10.7296 -10.7296 -10.6417 -10.6417 -10.5476 -10.5476 -10.4764 -10.4764
   -10.4371 -10.4371   1.9007   1.9007  11.4184  11.4184

          k = 0.0000 0.0000 0.9164 (  9987 PWs)   bands (ev):

   -10.7394 -10.6317 -10.6317 -10.6121 -10.5672 -10.5672 -10.5433 -10.4497
   -10.3953 -10.3492   3.2955   7.1433   7.9731   9.4590

          k = 0.7500 0.0000-0.4582 (  9991 PWs)   bands (ev):

   -10.7037 -10.6615 -10.5988 -10.5894 -10.5548 -10.5382 -10.5273 -10.4906
   -10.4844 -10.4282   3.0227   4.3599   7.2618   8.4574

          k = 0.5000 0.0000 0.0000 (  9997 PWs)   bands (ev):

   -10.7451 -10.7155 -10.7035 -10.6093 -10.5252 -10.5174 -10.5135 -10.4706
   -10.4684 -10.3993   0.7800   4.3544   7.0799  10.7927

          k = 0.7500-0.7500-1.8328 (  9978 PWs)   bands (ev):

   -10.7361 -10.7361 -10.6039 -10.6039 -10.5399 -10.5399 -10.4906 -10.4906
   -10.4619 -10.4619   2.4050   2.4050   7.9917   7.9917

          k = 0.5000-0.5000-0.9164 ( 10004 PWs)   bands (ev):

   -10.7120 -10.7120 -10.6416 -10.6416 -10.5340 -10.5340 -10.4404 -10.4404
   -10.4134 -10.4134   4.8060   4.8060   7.2811   7.2811

          k = 0.0000 0.0000-1.8328 ( 10012 PWs)   bands (ev):

   -10.7389 -10.7389 -10.5402 -10.5402 -10.5296 -10.5296 -10.5182 -10.5182
   -10.5054 -10.5054   3.2428   3.2428   6.0121   6.0121

     highest occupied level (ev):    11.4184

!    total energy              =    -325.58291375 Ry
     estimated scf accuracy    <          5.1E-09 Ry

     The total energy is the sum of the following terms:
     one-electron contribution =    -107.32067158 Ry
     hartree contribution      =      74.47512585 Ry
     xc contribution           =     -95.22206483 Ry
     ewald contribution        =    -197.51530320 Ry

     convergence has been achieved in   5 iterations

     Writing all to output data dir ./beta-sn-scf/betatin.save/ :
     XML data file, charge density, pseudopotentials, collected wavefunctions

     init_run     :      0.45s CPU      0.52s WALL (       1 calls)
     electrons    :      0.53s CPU      0.60s WALL (       1 calls)

     Called by init_run:
     wfcinit      :      0.08s CPU      0.10s WALL (       1 calls)
     potinit      :      0.01s CPU      0.03s WALL (       1 calls)
     hinit0       :      0.30s CPU      0.32s WALL (       1 calls)

     Called by electrons:
     c_bands      :      0.36s CPU      0.38s WALL (       6 calls)
     sum_band     :      0.09s CPU      0.10s WALL (       6 calls)
     v_of_rho     :      0.04s CPU      0.05s WALL (       6 calls)
     newd         :      0.03s CPU      0.03s WALL (       6 calls)
     mix_rho      :      0.01s CPU      0.01s WALL (       6 calls)

     Called by c_bands:
     init_us_2    :      0.01s CPU      0.01s WALL (      52 calls)
     cegterg      :      0.33s CPU      0.34s WALL (      24 calls)

     Called by *egterg:
     cdiaghg      :      0.03s CPU      0.03s WALL (      98 calls)
     h_psi        :      0.34s CPU      0.36s WALL (     106 calls)
     s_psi        :      0.01s CPU      0.01s WALL (     106 calls)
     g_psi        :      0.00s CPU      0.00s WALL (      78 calls)

     Called by h_psi:
     h_psi:calbec :      0.01s CPU      0.01s WALL (     106 calls)
     vloc_psi     :      0.32s CPU      0.33s WALL (     106 calls)
     add_vuspsi   :      0.01s CPU      0.01s WALL (     106 calls)

     General routines
     calbec       :      0.02s CPU      0.02s WALL (     130 calls)
     fft          :      0.28s CPU      0.29s WALL (      67 calls)
     ffts         :      0.00s CPU      0.00s WALL (       6 calls)
     fftw         :      0.34s CPU      0.35s WALL (    2208 calls)

     Parallel routines

     PWSCF        :      1.25s CPU      1.54s WALL


   This run was terminated on:  15:57:39   5Feb2026            

=------------------------------------------------------------------------------=
   JOB DONE.
=------------------------------------------------------------------------------=
