
     Program PWSCF v.7.3.1 starts on  5Feb2026 at 15:57:58 

     This program is part of the open-source Quantum ESPRESSO suite
     for quantum simulation of materials; please cite
         "P. Giannozzi et al., J. Phys.:Condens. Matter 21 395502 (2009);
         "P. Giannozzi et al., J. Phys.:Condens. Matter 29 465901 (2017);
         "P. Giannozzi et al., J. Chem. Phys. 152 154105 (2020);
          URL http://www.quantum-espresso.org", 
     in publications or presentations arising from this work. More details at
     http://www.quantum-espresso.org/quote

     Parallel version (MPI), running on   128 processors

     MPI processes distributed on     1 nodes
     242346 MiB available memory on the printing compute node when the environment starts

     Waiting for input...
     Reading input from standard input

     Current dimensions of program PWSCF are:
     Max number of different atomic species (ntypx) = 10
     Max number of k-points (npk) =  40000
     Max angular momentum in pseudopotentials (lmaxx) =  4

     K-points division:     npool     =       4
     R & G space division:  proc/nbgrp/npool/nimage =      32
     Subspace diagonalization in iterative solution of the eigenvalue problem:
     a serial algorithm will be used


     Parallelization info
     --------------------
     sticks:   dense  smooth     PW     G-vecs:    dense   smooth      PW
     Min          97      97     29                 2608     2608     433
     Max          98      98     30                 2610     2610     436
     Sum        3123    3123    945                83491    83491   13905

     Using Slab Decomposition



     bravais-lattice index     =            7
     lattice parameter (alat)  =      11.0200  a.u.
     unit-cell volume          =     365.0809 (a.u.)^3
     number of atoms/cell      =            2
     number of atomic types    =            1
     number of electrons       =        28.00
     number of Kohn-Sham states=           14
     kinetic-energy cutoff     =     142.0000  Ry
     charge density cutoff     =     568.0000  Ry
     scf convergence threshold =      1.0E-07
     mixing beta               =       0.7000
     number of iterations used =            8  plain     mixing
     Exchange-correlation=  SLA  PW   GGX  GGC
                           (   1   4   2   2   0   0   0)

     celldm(1)=  11.020000  celldm(2)=   0.000000  celldm(3)=   0.545600
     celldm(4)=   0.000000  celldm(5)=   0.000000  celldm(6)=   0.000000

     crystal axes: (cart. coord. in units of alat)
               a(1) = (   0.500000  -0.500000   0.272800 )  
               a(2) = (   0.500000   0.500000   0.272800 )  
               a(3) = (  -0.500000  -0.500000   0.272800 )  

     reciprocal axes: (cart. coord. in units 2 pi/alat)
               b(1) = (  1.000000 -1.000000  0.000000 )  
               b(2) = (  0.000000  1.000000  1.832845 )  
               b(3) = ( -1.000000  0.000000  1.832845 )  


     PseudoPot. # 1 for Sn read from file:
     ./Sn.pw91-n-van.UPF
     MD5 check sum: a38d2a872edd1a4efd76c0a1a38f7031
     Pseudo is Ultrasoft + core correction, Zval = 14.0
     Generated by new atomic code, or converted to UPF format
     Using radial grid of  891 points,  6 beta functions with: 
                l(1) =   0
                l(2) =   0
                l(3) =   1
                l(4) =   1
                l(5) =   2
                l(6) =   2
     Q(r) pseudized with  8 coefficients,  rinner =    1.100   1.100   1.100
                                                       1.100   1.100

     atomic species   valence    mass     pseudopotential
     Sn               14.00   118.70000     Sn( 1.00)

     16 Sym. Ops., with inversion, found (12 have fractional translation)



   Cartesian axes

     site n.     atom                  positions (alat units)
         1        Sn     tau(   1) = (   0.0000000  -0.2500000   0.0682000  )
         2        Sn     tau(   2) = (   0.0000000   0.2500000  -0.0682000  )

     number of k points=    13
                       cart. coord. in units 2pi/alat
        k(    1) = (   0.0000000   0.0000000   0.0000000), wk =   0.0312500
        k(    2) = (  -0.2500000   0.0000000   0.4582111), wk =   0.2500000
        k(    3) = (   0.5000000   0.0000000  -0.9164223), wk =   0.1250000
        k(    4) = (  -0.2500000   0.2500000   0.9164223), wk =   0.2500000
        k(    5) = (   0.5000000   0.2500000  -0.4582111), wk =   0.5000000
        k(    6) = (   0.2500000   0.2500000   0.0000000), wk =   0.1250000
        k(    7) = (   0.5000000  -0.5000000  -1.8328446), wk =   0.0625000
        k(    8) = (   0.0000000   0.0000000   0.9164223), wk =   0.0625000
        k(    9) = (   0.7500000   0.0000000  -0.4582111), wk =   0.2500000
        k(   10) = (   0.5000000   0.0000000   0.0000000), wk =   0.1250000
        k(   11) = (   0.7500000  -0.7500000  -1.8328446), wk =   0.1250000
        k(   12) = (   0.5000000  -0.5000000  -0.9164223), wk =   0.0625000
        k(   13) = (   0.0000000   0.0000000  -1.8328446), wk =   0.0312500

     Dense  grid:    83491 G-vectors     FFT dimensions: (  64,  64,  64)

     Estimated max dynamical RAM per process >       5.99 MB

     Estimated total dynamical RAM >     705.22 MB

     Initial potential from superposition of free atoms

     starting charge      27.9964, renormalised to      28.0000
     Starting wfcs are   18 randomized atomic wfcs

     total cpu time spent up to now is        0.8 secs

     per-process dynamical memory:    12.1 Mb

     Self-consistent Calculation

     iteration #  1     ecut=   142.00 Ry     beta= 0.70
     Davidson diagonalization with overlap
     ethr =  1.00E-02,  avg # of iterations =  1.8

     Threshold (ethr) on eigenvalues was too large:
     Diagonalizing with lowered threshold

     Davidson diagonalization with overlap
     ethr =  2.37E-05,  avg # of iterations =  3.8

     total cpu time spent up to now is        1.0 secs

     total energy              =    -325.58225749 Ry
     estimated scf accuracy    <       0.00684714 Ry

     iteration #  2     ecut=   142.00 Ry     beta= 0.70
     Davidson diagonalization with overlap
     ethr =  2.45E-05,  avg # of iterations =  2.0

     total cpu time spent up to now is        1.1 secs

     total energy              =    -325.58336382 Ry
     estimated scf accuracy    <       0.00054087 Ry

     iteration #  3     ecut=   142.00 Ry     beta= 0.70
     Davidson diagonalization with overlap
     ethr =  1.93E-06,  avg # of iterations =  2.5

     total cpu time spent up to now is        1.2 secs

     total energy              =    -325.58344507 Ry
     estimated scf accuracy    <       0.00004176 Ry

     iteration #  4     ecut=   142.00 Ry     beta= 0.70
     Davidson diagonalization with overlap
     ethr =  1.49E-07,  avg # of iterations =  2.8

     total cpu time spent up to now is        1.3 secs

     total energy              =    -325.58345040 Ry
     estimated scf accuracy    <       0.00000027 Ry

     iteration #  5     ecut=   142.00 Ry     beta= 0.70
     Davidson diagonalization with overlap
     ethr =  9.73E-10,  avg # of iterations =  3.8

     total cpu time spent up to now is        1.4 secs

     End of self-consistent calculation

          k = 0.0000 0.0000 0.0000 ( 10443 PWs)   bands (ev):

   -10.8094 -10.7267 -10.6828 -10.6714 -10.5214 -10.5214 -10.5102 -10.5102
   -10.4183 -10.3061  -0.3472   7.1616   8.8398   8.8398

          k =-0.2500 0.0000 0.4582 ( 10429 PWs)   bands (ev):

   -10.7735 -10.6455 -10.6409 -10.5996 -10.5772 -10.5359 -10.5274 -10.5045
   -10.4393 -10.3407   0.8911   6.5842   9.0440  11.2833

          k = 0.5000 0.0000-0.9164 ( 10420 PWs)   bands (ev):

   -10.7341 -10.6636 -10.6469 -10.6074 -10.5733 -10.5703 -10.4716 -10.4245
   -10.4207 -10.3742   3.8534   5.3958   8.4876   9.1144

          k =-0.2500 0.2500 0.9164 ( 10421 PWs)   bands (ev):

   -10.7480 -10.6602 -10.6169 -10.5999 -10.5981 -10.5475 -10.4887 -10.4693
   -10.3929 -10.3651   3.7388   6.0512   7.1233   9.1084

          k = 0.5000 0.2500-0.4582 ( 10437 PWs)   bands (ev):

   -10.7167 -10.6572 -10.6535 -10.5996 -10.5824 -10.5253 -10.4916 -10.4839
   -10.4668 -10.4024   2.0035   4.1412   9.3955  10.6281

          k = 0.2500 0.2500 0.0000 ( 10428 PWs)   bands (ev):

   -10.7594 -10.7334 -10.6981 -10.6410 -10.5480 -10.5006 -10.4989 -10.4909
   -10.4476 -10.3547   0.2175   4.5879   9.5064  10.5378

          k = 0.5000-0.5000-1.8328 ( 10478 PWs)   bands (ev):

   -10.7298 -10.7298 -10.6420 -10.6420 -10.5480 -10.5480 -10.4766 -10.4766
   -10.4375 -10.4375   1.9007   1.9007  11.4184  11.4184

          k = 0.0000 0.0000 0.9164 ( 10411 PWs)   bands (ev):

   -10.7396 -10.6319 -10.6319 -10.6123 -10.5674 -10.5674 -10.5435 -10.4500
   -10.3953 -10.3495   3.2955   7.1434   7.9731   9.4589

          k = 0.7500 0.0000-0.4582 ( 10438 PWs)   bands (ev):

   -10.7039 -10.6616 -10.5990 -10.5896 -10.5551 -10.5384 -10.5275 -10.4908
   -10.4846 -10.4284   3.0227   4.3599   7.2617   8.4574

          k = 0.5000 0.0000 0.0000 ( 10449 PWs)   bands (ev):

   -10.7453 -10.7157 -10.7037 -10.6095 -10.5254 -10.5176 -10.5137 -10.4709
   -10.4686 -10.3996   0.7800   4.3544   7.0799  10.7926

          k = 0.7500-0.7500-1.8328 ( 10458 PWs)   bands (ev):

   -10.7363 -10.7363 -10.6042 -10.6042 -10.5402 -10.5402 -10.4908 -10.4908
   -10.4621 -10.4621   2.4050   2.4050   7.9917   7.9917

          k = 0.5000-0.5000-0.9164 ( 10424 PWs)   bands (ev):

   -10.7122 -10.7122 -10.6418 -10.6418 -10.5342 -10.5342 -10.4406 -10.4406
   -10.4135 -10.4135   4.8060   4.8060   7.2811   7.2811

          k = 0.0000 0.0000-1.8328 ( 10412 PWs)   bands (ev):

   -10.7391 -10.7391 -10.5404 -10.5404 -10.5299 -10.5299 -10.5184 -10.5184
   -10.5055 -10.5055   3.2428   3.2428   6.0120   6.0120

     highest occupied level (ev):    11.4184

!    total energy              =    -325.58345062 Ry
     estimated scf accuracy    <          8.9E-09 Ry

     The total energy is the sum of the following terms:
     one-electron contribution =    -107.32145963 Ry
     hartree contribution      =      74.47547189 Ry
     xc contribution           =     -95.22215969 Ry
     ewald contribution        =    -197.51530320 Ry

     convergence has been achieved in   5 iterations

     Writing all to output data dir ./beta-sn-scf/betatin.save/ :
     XML data file, charge density, pseudopotentials, collected wavefunctions

     init_run     :      0.44s CPU      0.52s WALL (       1 calls)
     electrons    :      0.53s CPU      0.61s WALL (       1 calls)

     Called by init_run:
     wfcinit      :      0.09s CPU      0.10s WALL (       1 calls)
     potinit      :      0.02s CPU      0.03s WALL (       1 calls)
     hinit0       :      0.30s CPU      0.31s WALL (       1 calls)

     Called by electrons:
     c_bands      :      0.36s CPU      0.39s WALL (       6 calls)
     sum_band     :      0.09s CPU      0.10s WALL (       6 calls)
     v_of_rho     :      0.05s CPU      0.05s WALL (       6 calls)
     newd         :      0.02s CPU      0.03s WALL (       6 calls)
     mix_rho      :      0.01s CPU      0.01s WALL (       6 calls)

     Called by c_bands:
     init_us_2    :      0.01s CPU      0.01s WALL (      52 calls)
     cegterg      :      0.34s CPU      0.36s WALL (      24 calls)

     Called by *egterg:
     cdiaghg      :      0.03s CPU      0.03s WALL (      95 calls)
     h_psi        :      0.34s CPU      0.37s WALL (     103 calls)
     s_psi        :      0.01s CPU      0.01s WALL (     103 calls)
     g_psi        :      0.00s CPU      0.00s WALL (      75 calls)

     Called by h_psi:
     h_psi:calbec :      0.01s CPU      0.01s WALL (     103 calls)
     vloc_psi     :      0.32s CPU      0.34s WALL (     103 calls)
     add_vuspsi   :      0.01s CPU      0.01s WALL (     103 calls)

     General routines
     calbec       :      0.02s CPU      0.02s WALL (     127 calls)
     fft          :      0.28s CPU      0.29s WALL (      67 calls)
     ffts         :      0.00s CPU      0.00s WALL (       6 calls)
     fftw         :      0.34s CPU      0.36s WALL (    2194 calls)

     Parallel routines

     PWSCF        :      1.20s CPU      1.54s WALL


   This run was terminated on:  15:57:59   5Feb2026            

=------------------------------------------------------------------------------=
   JOB DONE.
=------------------------------------------------------------------------------=
