
     Program PWSCF v.7.3.1 starts on  5Feb2026 at 15:58:52 

     This program is part of the open-source Quantum ESPRESSO suite
     for quantum simulation of materials; please cite
         "P. Giannozzi et al., J. Phys.:Condens. Matter 21 395502 (2009);
         "P. Giannozzi et al., J. Phys.:Condens. Matter 29 465901 (2017);
         "P. Giannozzi et al., J. Chem. Phys. 152 154105 (2020);
          URL http://www.quantum-espresso.org", 
     in publications or presentations arising from this work. More details at
     http://www.quantum-espresso.org/quote

     Parallel version (MPI), running on   128 processors

     MPI processes distributed on     1 nodes
     242382 MiB available memory on the printing compute node when the environment starts

     Waiting for input...
     Reading input from standard input

     Current dimensions of program PWSCF are:
     Max number of different atomic species (ntypx) = 10
     Max number of k-points (npk) =  40000
     Max angular momentum in pseudopotentials (lmaxx) =  4

     K-points division:     npool     =       4
     R & G space division:  proc/nbgrp/npool/nimage =      32
     Subspace diagonalization in iterative solution of the eigenvalue problem:
     a serial algorithm will be used


     Parallelization info
     --------------------
     sticks:   dense  smooth     PW     G-vecs:    dense   smooth      PW
     Min         104     104     31                 2888     2888     476
     Max         105     105     32                 2890     2890     478
     Sum        3343    3343   1001                92435    92435   15265

     Using Slab Decomposition



     bravais-lattice index     =            7
     lattice parameter (alat)  =      11.0200  a.u.
     unit-cell volume          =     365.0809 (a.u.)^3
     number of atoms/cell      =            2
     number of atomic types    =            1
     number of electrons       =        28.00
     number of Kohn-Sham states=           14
     kinetic-energy cutoff     =     152.0000  Ry
     charge density cutoff     =     608.0000  Ry
     scf convergence threshold =      1.0E-07
     mixing beta               =       0.7000
     number of iterations used =            8  plain     mixing
     Exchange-correlation=  SLA  PW   GGX  GGC
                           (   1   4   2   2   0   0   0)

     celldm(1)=  11.020000  celldm(2)=   0.000000  celldm(3)=   0.545600
     celldm(4)=   0.000000  celldm(5)=   0.000000  celldm(6)=   0.000000

     crystal axes: (cart. coord. in units of alat)
               a(1) = (   0.500000  -0.500000   0.272800 )  
               a(2) = (   0.500000   0.500000   0.272800 )  
               a(3) = (  -0.500000  -0.500000   0.272800 )  

     reciprocal axes: (cart. coord. in units 2 pi/alat)
               b(1) = (  1.000000 -1.000000  0.000000 )  
               b(2) = (  0.000000  1.000000  1.832845 )  
               b(3) = ( -1.000000  0.000000  1.832845 )  


     PseudoPot. # 1 for Sn read from file:
     ./Sn.pw91-n-van.UPF
     MD5 check sum: a38d2a872edd1a4efd76c0a1a38f7031
     Pseudo is Ultrasoft + core correction, Zval = 14.0
     Generated by new atomic code, or converted to UPF format
     Using radial grid of  891 points,  6 beta functions with: 
                l(1) =   0
                l(2) =   0
                l(3) =   1
                l(4) =   1
                l(5) =   2
                l(6) =   2
     Q(r) pseudized with  8 coefficients,  rinner =    1.100   1.100   1.100
                                                       1.100   1.100

     atomic species   valence    mass     pseudopotential
     Sn               14.00   118.70000     Sn( 1.00)

     16 Sym. Ops., with inversion, found (12 have fractional translation)



   Cartesian axes

     site n.     atom                  positions (alat units)
         1        Sn     tau(   1) = (   0.0000000  -0.2500000   0.0682000  )
         2        Sn     tau(   2) = (   0.0000000   0.2500000  -0.0682000  )

     number of k points=    13
                       cart. coord. in units 2pi/alat
        k(    1) = (   0.0000000   0.0000000   0.0000000), wk =   0.0312500
        k(    2) = (  -0.2500000   0.0000000   0.4582111), wk =   0.2500000
        k(    3) = (   0.5000000   0.0000000  -0.9164223), wk =   0.1250000
        k(    4) = (  -0.2500000   0.2500000   0.9164223), wk =   0.2500000
        k(    5) = (   0.5000000   0.2500000  -0.4582111), wk =   0.5000000
        k(    6) = (   0.2500000   0.2500000   0.0000000), wk =   0.1250000
        k(    7) = (   0.5000000  -0.5000000  -1.8328446), wk =   0.0625000
        k(    8) = (   0.0000000   0.0000000   0.9164223), wk =   0.0625000
        k(    9) = (   0.7500000   0.0000000  -0.4582111), wk =   0.2500000
        k(   10) = (   0.5000000   0.0000000   0.0000000), wk =   0.1250000
        k(   11) = (   0.7500000  -0.7500000  -1.8328446), wk =   0.1250000
        k(   12) = (   0.5000000  -0.5000000  -0.9164223), wk =   0.0625000
        k(   13) = (   0.0000000   0.0000000  -1.8328446), wk =   0.0312500

     Dense  grid:    92435 G-vectors     FFT dimensions: (  72,  72,  72)

     Estimated max dynamical RAM per process >       6.94 MB

     Estimated total dynamical RAM >     819.99 MB

     Initial potential from superposition of free atoms

     starting charge      27.9964, renormalised to      28.0000
     Starting wfcs are   18 randomized atomic wfcs

     total cpu time spent up to now is        1.1 secs

     per-process dynamical memory:    12.9 Mb

     Self-consistent Calculation

     iteration #  1     ecut=   152.00 Ry     beta= 0.70
     Davidson diagonalization with overlap
     ethr =  1.00E-02,  avg # of iterations =  1.8

     Threshold (ethr) on eigenvalues was too large:
     Diagonalizing with lowered threshold

     Davidson diagonalization with overlap
     ethr =  2.37E-05,  avg # of iterations =  3.8

     total cpu time spent up to now is        1.4 secs

     total energy              =    -325.58240244 Ry
     estimated scf accuracy    <       0.00682910 Ry

     iteration #  2     ecut=   152.00 Ry     beta= 0.70
     Davidson diagonalization with overlap
     ethr =  2.44E-05,  avg # of iterations =  2.0

     total cpu time spent up to now is        1.5 secs

     total energy              =    -325.58363093 Ry
     estimated scf accuracy    <       0.00052907 Ry

     iteration #  3     ecut=   152.00 Ry     beta= 0.70
     Davidson diagonalization with overlap
     ethr =  1.89E-06,  avg # of iterations =  2.4

     total cpu time spent up to now is        1.7 secs

     total energy              =    -325.58372469 Ry
     estimated scf accuracy    <       0.00003983 Ry

     iteration #  4     ecut=   152.00 Ry     beta= 0.70
     Davidson diagonalization with overlap
     ethr =  1.42E-07,  avg # of iterations =  3.0

     total cpu time spent up to now is        1.8 secs

     total energy              =    -325.58372956 Ry
     estimated scf accuracy    <       0.00000028 Ry

     iteration #  5     ecut=   152.00 Ry     beta= 0.70
     Davidson diagonalization with overlap
     ethr =  9.92E-10,  avg # of iterations =  4.2

     total cpu time spent up to now is        1.9 secs

     End of self-consistent calculation

          k = 0.0000 0.0000 0.0000 ( 11623 PWs)   bands (ev):

   -10.8093 -10.7267 -10.6829 -10.6714 -10.5214 -10.5214 -10.5103 -10.5103
   -10.4183 -10.3061  -0.3471   7.1616   8.8398   8.8398

          k =-0.2500 0.0000 0.4582 ( 11555 PWs)   bands (ev):

   -10.7734 -10.6456 -10.6409 -10.5997 -10.5772 -10.5359 -10.5275 -10.5046
   -10.4393 -10.3406   0.8911   6.5842   9.0440  11.2833

          k = 0.5000 0.0000-0.9164 ( 11544 PWs)   bands (ev):

   -10.7341 -10.6636 -10.6469 -10.6074 -10.5734 -10.5704 -10.4717 -10.4245
   -10.4208 -10.3742   3.8535   5.3958   8.4876   9.1143

          k =-0.2500 0.2500 0.9164 ( 11563 PWs)   bands (ev):

   -10.7480 -10.6603 -10.6170 -10.5999 -10.5981 -10.5476 -10.4888 -10.4693
   -10.3930 -10.3651   3.7388   6.0512   7.1233   9.1084

          k = 0.5000 0.2500-0.4582 ( 11546 PWs)   bands (ev):

   -10.7167 -10.6573 -10.6536 -10.5996 -10.5825 -10.5253 -10.4917 -10.4840
   -10.4668 -10.4024   2.0036   4.1412   9.3956  10.6281

          k = 0.2500 0.2500 0.0000 ( 11571 PWs)   bands (ev):

   -10.7593 -10.7335 -10.6982 -10.6411 -10.5481 -10.5007 -10.4990 -10.4910
   -10.4477 -10.3547   0.2175   4.5879   9.5064  10.5379

          k = 0.5000-0.5000-1.8328 ( 11562 PWs)   bands (ev):

   -10.7299 -10.7299 -10.6420 -10.6420 -10.5480 -10.5480 -10.4767 -10.4767
   -10.4375 -10.4375   1.9007   1.9007  11.4184  11.4184

          k = 0.0000 0.0000 0.9164 ( 11572 PWs)   bands (ev):

   -10.7396 -10.6319 -10.6319 -10.6124 -10.5675 -10.5675 -10.5435 -10.4501
   -10.3954 -10.3496   3.2956   7.1434   7.9731   9.4590

          k = 0.7500 0.0000-0.4582 ( 11551 PWs)   bands (ev):

   -10.7039 -10.6616 -10.5990 -10.5897 -10.5551 -10.5385 -10.5276 -10.4909
   -10.4847 -10.4285   3.0227   4.3599   7.2618   8.4574

          k = 0.5000 0.0000 0.0000 ( 11544 PWs)   bands (ev):

   -10.7453 -10.7157 -10.7037 -10.6096 -10.5255 -10.5176 -10.5138 -10.4709
   -10.4687 -10.3996   0.7801   4.3545   7.0799  10.7927

          k = 0.7500-0.7500-1.8328 ( 11550 PWs)   bands (ev):

   -10.7364 -10.7364 -10.6042 -10.6042 -10.5402 -10.5402 -10.4909 -10.4909
   -10.4622 -10.4622   2.4050   2.4050   7.9918   7.9918

          k = 0.5000-0.5000-0.9164 ( 11580 PWs)   bands (ev):

   -10.7122 -10.7122 -10.6418 -10.6418 -10.5342 -10.5342 -10.4406 -10.4406
   -10.4136 -10.4136   4.8060   4.8060   7.2811   7.2811

          k = 0.0000 0.0000-1.8328 ( 11512 PWs)   bands (ev):

   -10.7392 -10.7392 -10.5404 -10.5404 -10.5300 -10.5300 -10.5184 -10.5184
   -10.5057 -10.5057   3.2428   3.2428   6.0121   6.0121

     highest occupied level (ev):    11.4184

!    total energy              =    -325.58372974 Ry
     estimated scf accuracy    <          5.4E-09 Ry

     The total energy is the sum of the following terms:
     one-electron contribution =    -107.32190879 Ry
     hartree contribution      =      74.47573271 Ry
     xc contribution           =     -95.22225047 Ry
     ewald contribution        =    -197.51530320 Ry

     convergence has been achieved in   5 iterations

     Writing all to output data dir ./beta-sn-scf/betatin.save/ :
     XML data file, charge density, pseudopotentials, collected wavefunctions

     init_run     :      0.71s CPU      0.78s WALL (       1 calls)
     electrons    :      0.79s CPU      0.89s WALL (       1 calls)

     Called by init_run:
     wfcinit      :      0.04s CPU      0.06s WALL (       1 calls)
     potinit      :      0.03s CPU      0.04s WALL (       1 calls)
     hinit0       :      0.57s CPU      0.60s WALL (       1 calls)

     Called by electrons:
     c_bands      :      0.55s CPU      0.59s WALL (       6 calls)
     sum_band     :      0.14s CPU      0.15s WALL (       6 calls)
     v_of_rho     :      0.08s CPU      0.09s WALL (       6 calls)
     newd         :      0.03s CPU      0.03s WALL (       6 calls)
     mix_rho      :      0.01s CPU      0.01s WALL (       6 calls)

     Called by c_bands:
     init_us_2    :      0.01s CPU      0.01s WALL (      52 calls)
     cegterg      :      0.51s CPU      0.54s WALL (      24 calls)

     Called by *egterg:
     cdiaghg      :      0.03s CPU      0.03s WALL (      98 calls)
     h_psi        :      0.48s CPU      0.51s WALL (     106 calls)
     s_psi        :      0.01s CPU      0.01s WALL (     106 calls)
     g_psi        :      0.00s CPU      0.00s WALL (      78 calls)

     Called by h_psi:
     h_psi:calbec :      0.02s CPU      0.02s WALL (     106 calls)
     vloc_psi     :      0.45s CPU      0.48s WALL (     106 calls)
     add_vuspsi   :      0.01s CPU      0.01s WALL (     106 calls)

     General routines
     calbec       :      0.02s CPU      0.02s WALL (     130 calls)
     fft          :      0.58s CPU      0.59s WALL (      67 calls)
     ffts         :      0.00s CPU      0.00s WALL (       6 calls)
     fftw         :      0.49s CPU      0.51s WALL (    2188 calls)

     Parallel routines

     PWSCF        :      3.06s CPU      3.39s WALL


   This run was terminated on:  15:58:56   5Feb2026            

=------------------------------------------------------------------------------=
   JOB DONE.
=------------------------------------------------------------------------------=
