
     Program PWSCF v.7.3.1 starts on  5Feb2026 at 15:59: 3 

     This program is part of the open-source Quantum ESPRESSO suite
     for quantum simulation of materials; please cite
         "P. Giannozzi et al., J. Phys.:Condens. Matter 21 395502 (2009);
         "P. Giannozzi et al., J. Phys.:Condens. Matter 29 465901 (2017);
         "P. Giannozzi et al., J. Chem. Phys. 152 154105 (2020);
          URL http://www.quantum-espresso.org", 
     in publications or presentations arising from this work. More details at
     http://www.quantum-espresso.org/quote

     Parallel version (MPI), running on   128 processors

     MPI processes distributed on     1 nodes
     242386 MiB available memory on the printing compute node when the environment starts

     Waiting for input...
     Reading input from standard input

     Current dimensions of program PWSCF are:
     Max number of different atomic species (ntypx) = 10
     Max number of k-points (npk) =  40000
     Max angular momentum in pseudopotentials (lmaxx) =  4

     K-points division:     npool     =       4
     R & G space division:  proc/nbgrp/npool/nimage =      32
     Subspace diagonalization in iterative solution of the eigenvalue problem:
     a serial algorithm will be used


     Parallelization info
     --------------------
     sticks:   dense  smooth     PW     G-vecs:    dense   smooth      PW
     Min         105     105     31                 2940     2940     484
     Max         106     106     32                 2944     2944     486
     Sum        3379    3379   1021                94123    94123   15521

     Using Slab Decomposition



     bravais-lattice index     =            7
     lattice parameter (alat)  =      11.0200  a.u.
     unit-cell volume          =     365.0809 (a.u.)^3
     number of atoms/cell      =            2
     number of atomic types    =            1
     number of electrons       =        28.00
     number of Kohn-Sham states=           14
     kinetic-energy cutoff     =     154.0000  Ry
     charge density cutoff     =     616.0000  Ry
     scf convergence threshold =      1.0E-07
     mixing beta               =       0.7000
     number of iterations used =            8  plain     mixing
     Exchange-correlation=  SLA  PW   GGX  GGC
                           (   1   4   2   2   0   0   0)

     celldm(1)=  11.020000  celldm(2)=   0.000000  celldm(3)=   0.545600
     celldm(4)=   0.000000  celldm(5)=   0.000000  celldm(6)=   0.000000

     crystal axes: (cart. coord. in units of alat)
               a(1) = (   0.500000  -0.500000   0.272800 )  
               a(2) = (   0.500000   0.500000   0.272800 )  
               a(3) = (  -0.500000  -0.500000   0.272800 )  

     reciprocal axes: (cart. coord. in units 2 pi/alat)
               b(1) = (  1.000000 -1.000000  0.000000 )  
               b(2) = (  0.000000  1.000000  1.832845 )  
               b(3) = ( -1.000000  0.000000  1.832845 )  


     PseudoPot. # 1 for Sn read from file:
     ./Sn.pw91-n-van.UPF
     MD5 check sum: a38d2a872edd1a4efd76c0a1a38f7031
     Pseudo is Ultrasoft + core correction, Zval = 14.0
     Generated by new atomic code, or converted to UPF format
     Using radial grid of  891 points,  6 beta functions with: 
                l(1) =   0
                l(2) =   0
                l(3) =   1
                l(4) =   1
                l(5) =   2
                l(6) =   2
     Q(r) pseudized with  8 coefficients,  rinner =    1.100   1.100   1.100
                                                       1.100   1.100

     atomic species   valence    mass     pseudopotential
     Sn               14.00   118.70000     Sn( 1.00)

     16 Sym. Ops., with inversion, found (12 have fractional translation)



   Cartesian axes

     site n.     atom                  positions (alat units)
         1        Sn     tau(   1) = (   0.0000000  -0.2500000   0.0682000  )
         2        Sn     tau(   2) = (   0.0000000   0.2500000  -0.0682000  )

     number of k points=    13
                       cart. coord. in units 2pi/alat
        k(    1) = (   0.0000000   0.0000000   0.0000000), wk =   0.0312500
        k(    2) = (  -0.2500000   0.0000000   0.4582111), wk =   0.2500000
        k(    3) = (   0.5000000   0.0000000  -0.9164223), wk =   0.1250000
        k(    4) = (  -0.2500000   0.2500000   0.9164223), wk =   0.2500000
        k(    5) = (   0.5000000   0.2500000  -0.4582111), wk =   0.5000000
        k(    6) = (   0.2500000   0.2500000   0.0000000), wk =   0.1250000
        k(    7) = (   0.5000000  -0.5000000  -1.8328446), wk =   0.0625000
        k(    8) = (   0.0000000   0.0000000   0.9164223), wk =   0.0625000
        k(    9) = (   0.7500000   0.0000000  -0.4582111), wk =   0.2500000
        k(   10) = (   0.5000000   0.0000000   0.0000000), wk =   0.1250000
        k(   11) = (   0.7500000  -0.7500000  -1.8328446), wk =   0.1250000
        k(   12) = (   0.5000000  -0.5000000  -0.9164223), wk =   0.0625000
        k(   13) = (   0.0000000   0.0000000  -1.8328446), wk =   0.0312500

     Dense  grid:    94123 G-vectors     FFT dimensions: (  72,  72,  72)

     Estimated max dynamical RAM per process >       7.02 MB

     Estimated total dynamical RAM >     829.93 MB

     Initial potential from superposition of free atoms

     starting charge      27.9964, renormalised to      28.0000
     Starting wfcs are   18 randomized atomic wfcs

     total cpu time spent up to now is        1.1 secs

     per-process dynamical memory:    12.9 Mb

     Self-consistent Calculation

     iteration #  1     ecut=   154.00 Ry     beta= 0.70
     Davidson diagonalization with overlap
     ethr =  1.00E-02,  avg # of iterations =  1.8

     Threshold (ethr) on eigenvalues was too large:
     Diagonalizing with lowered threshold

     Davidson diagonalization with overlap
     ethr =  2.35E-05,  avg # of iterations =  3.8

     total cpu time spent up to now is        1.4 secs

     total energy              =    -325.58239961 Ry
     estimated scf accuracy    <       0.00681614 Ry

     iteration #  2     ecut=   154.00 Ry     beta= 0.70
     Davidson diagonalization with overlap
     ethr =  2.43E-05,  avg # of iterations =  2.0

     total cpu time spent up to now is        1.5 secs

     total energy              =    -325.58364327 Ry
     estimated scf accuracy    <       0.00052605 Ry

     iteration #  3     ecut=   154.00 Ry     beta= 0.70
     Davidson diagonalization with overlap
     ethr =  1.88E-06,  avg # of iterations =  2.6

     total cpu time spent up to now is        1.6 secs

     total energy              =    -325.58373764 Ry
     estimated scf accuracy    <       0.00004036 Ry

     iteration #  4     ecut=   154.00 Ry     beta= 0.70
     Davidson diagonalization with overlap
     ethr =  1.44E-07,  avg # of iterations =  2.5

     total cpu time spent up to now is        1.8 secs

     total energy              =    -325.58374226 Ry
     estimated scf accuracy    <       0.00000027 Ry

     iteration #  5     ecut=   154.00 Ry     beta= 0.70
     Davidson diagonalization with overlap
     ethr =  9.59E-10,  avg # of iterations =  4.0

     total cpu time spent up to now is        1.9 secs

     End of self-consistent calculation

          k = 0.0000 0.0000 0.0000 ( 11791 PWs)   bands (ev):

   -10.8095 -10.7267 -10.6830 -10.6715 -10.5215 -10.5215 -10.5104 -10.5104
   -10.4185 -10.3063  -0.3472   7.1616   8.8397   8.8397

          k =-0.2500 0.0000 0.4582 ( 11784 PWs)   bands (ev):

   -10.7736 -10.6457 -10.6410 -10.5998 -10.5773 -10.5360 -10.5276 -10.5046
   -10.4395 -10.3408   0.8911   6.5842   9.0440  11.2833

          k = 0.5000 0.0000-0.9164 ( 11778 PWs)   bands (ev):

   -10.7342 -10.6637 -10.6470 -10.6075 -10.5735 -10.5705 -10.4719 -10.4246
   -10.4208 -10.3743   3.8534   5.3958   8.4876   9.1144

          k =-0.2500 0.2500 0.9164 ( 11769 PWs)   bands (ev):

   -10.7481 -10.6604 -10.6171 -10.6001 -10.5982 -10.5477 -10.4888 -10.4695
   -10.3930 -10.3652   3.7388   6.0511   7.1233   9.1084

          k = 0.5000 0.2500-0.4582 ( 11779 PWs)   bands (ev):

   -10.7168 -10.6574 -10.6537 -10.5997 -10.5826 -10.5254 -10.4918 -10.4841
   -10.4669 -10.4025   2.0035   4.1412   9.3955  10.6281

          k = 0.2500 0.2500 0.0000 ( 11781 PWs)   bands (ev):

   -10.7595 -10.7335 -10.6982 -10.6412 -10.5482 -10.5007 -10.4990 -10.4910
   -10.4478 -10.3548   0.2175   4.5879   9.5064  10.5378

          k = 0.5000-0.5000-1.8328 ( 11746 PWs)   bands (ev):

   -10.7299 -10.7299 -10.6421 -10.6421 -10.5481 -10.5481 -10.4768 -10.4768
   -10.4376 -10.4376   1.9007   1.9007  11.4183  11.4183

          k = 0.0000 0.0000 0.9164 ( 11816 PWs)   bands (ev):

   -10.7397 -10.6320 -10.6320 -10.6125 -10.5675 -10.5675 -10.5436 -10.4502
   -10.3954 -10.3497   3.2955   7.1434   7.9731   9.4589

          k = 0.7500 0.0000-0.4582 ( 11769 PWs)   bands (ev):

   -10.7040 -10.6617 -10.5991 -10.5898 -10.5553 -10.5386 -10.5276 -10.4911
   -10.4848 -10.4286   3.0227   4.3599   7.2618   8.4574

          k = 0.5000 0.0000 0.0000 ( 11782 PWs)   bands (ev):

   -10.7454 -10.7158 -10.7038 -10.6098 -10.5256 -10.5177 -10.5139 -10.4710
   -10.4688 -10.3997   0.7800   4.3544   7.0799  10.7926

          k = 0.7500-0.7500-1.8328 ( 11754 PWs)   bands (ev):

   -10.7364 -10.7364 -10.6043 -10.6043 -10.5404 -10.5404 -10.4910 -10.4910
   -10.4623 -10.4623   2.4050   2.4050   7.9917   7.9917

          k = 0.5000-0.5000-0.9164 ( 11832 PWs)   bands (ev):

   -10.7123 -10.7123 -10.6419 -10.6419 -10.5344 -10.5344 -10.4407 -10.4407
   -10.4136 -10.4136   4.8060   4.8060   7.2812   7.2812

          k = 0.0000 0.0000-1.8328 ( 11728 PWs)   bands (ev):

   -10.7392 -10.7392 -10.5405 -10.5405 -10.5301 -10.5301 -10.5185 -10.5185
   -10.5058 -10.5058   3.2428   3.2428   6.0120   6.0120

     highest occupied level (ev):    11.4183

!    total energy              =    -325.58374251 Ry
     estimated scf accuracy    <       0.00000001 Ry

     The total energy is the sum of the following terms:
     one-electron contribution =    -107.32195466 Ry
     hartree contribution      =      74.47577461 Ry
     xc contribution           =     -95.22225927 Ry
     ewald contribution        =    -197.51530320 Ry

     convergence has been achieved in   5 iterations

     Writing all to output data dir ./beta-sn-scf/betatin.save/ :
     XML data file, charge density, pseudopotentials, collected wavefunctions

     init_run     :      0.71s CPU      0.78s WALL (       1 calls)
     electrons    :      0.77s CPU      0.88s WALL (       1 calls)

     Called by init_run:
     wfcinit      :      0.05s CPU      0.07s WALL (       1 calls)
     potinit      :      0.02s CPU      0.03s WALL (       1 calls)
     hinit0       :      0.58s CPU      0.60s WALL (       1 calls)

     Called by electrons:
     c_bands      :      0.53s CPU      0.58s WALL (       6 calls)
     sum_band     :      0.14s CPU      0.15s WALL (       6 calls)
     v_of_rho     :      0.07s CPU      0.08s WALL (       6 calls)
     newd         :      0.03s CPU      0.03s WALL (       6 calls)
     mix_rho      :      0.01s CPU      0.01s WALL (       6 calls)

     Called by c_bands:
     init_us_2    :      0.01s CPU      0.01s WALL (      52 calls)
     cegterg      :      0.49s CPU      0.53s WALL (      24 calls)

     Called by *egterg:
     cdiaghg      :      0.03s CPU      0.03s WALL (      94 calls)
     h_psi        :      0.47s CPU      0.51s WALL (     102 calls)
     s_psi        :      0.01s CPU      0.01s WALL (     102 calls)
     g_psi        :      0.00s CPU      0.00s WALL (      74 calls)

     Called by h_psi:
     h_psi:calbec :      0.01s CPU      0.01s WALL (     102 calls)
     vloc_psi     :      0.45s CPU      0.49s WALL (     102 calls)
     add_vuspsi   :      0.01s CPU      0.01s WALL (     102 calls)

     General routines
     calbec       :      0.02s CPU      0.02s WALL (     126 calls)
     fft          :      0.57s CPU      0.58s WALL (      67 calls)
     ffts         :      0.00s CPU      0.00s WALL (       6 calls)
     fftw         :      0.48s CPU      0.52s WALL (    2180 calls)

     Parallel routines

     PWSCF        :      1.71s CPU      2.10s WALL


   This run was terminated on:  15:59: 5   5Feb2026            

=------------------------------------------------------------------------------=
   JOB DONE.
=------------------------------------------------------------------------------=
