
     Program PWSCF v.7.3.1 starts on  5Feb2026 at 15:59:50 

     This program is part of the open-source Quantum ESPRESSO suite
     for quantum simulation of materials; please cite
         "P. Giannozzi et al., J. Phys.:Condens. Matter 21 395502 (2009);
         "P. Giannozzi et al., J. Phys.:Condens. Matter 29 465901 (2017);
         "P. Giannozzi et al., J. Chem. Phys. 152 154105 (2020);
          URL http://www.quantum-espresso.org", 
     in publications or presentations arising from this work. More details at
     http://www.quantum-espresso.org/quote

     Parallel version (MPI), running on   128 processors

     MPI processes distributed on     1 nodes
     242343 MiB available memory on the printing compute node when the environment starts

     Waiting for input...
     Reading input from standard input

     Current dimensions of program PWSCF are:
     Max number of different atomic species (ntypx) = 10
     Max number of k-points (npk) =  40000
     Max angular momentum in pseudopotentials (lmaxx) =  4

     K-points division:     npool     =       4
     R & G space division:  proc/nbgrp/npool/nimage =      32
     Subspace diagonalization in iterative solution of the eigenvalue problem:
     a serial algorithm will be used


     Parallelization info
     --------------------
     sticks:   dense  smooth     PW     G-vecs:    dense   smooth      PW
     Min         111     111     33                 3180     3180     523
     Max         112     112     34                 3181     3181     525
     Sum        3563    3563   1071               101773   101773   16769

     Using Slab Decomposition



     bravais-lattice index     =            7
     lattice parameter (alat)  =      11.0200  a.u.
     unit-cell volume          =     365.0809 (a.u.)^3
     number of atoms/cell      =            2
     number of atomic types    =            1
     number of electrons       =        28.00
     number of Kohn-Sham states=           14
     kinetic-energy cutoff     =     162.0000  Ry
     charge density cutoff     =     648.0000  Ry
     scf convergence threshold =      1.0E-07
     mixing beta               =       0.7000
     number of iterations used =            8  plain     mixing
     Exchange-correlation=  SLA  PW   GGX  GGC
                           (   1   4   2   2   0   0   0)

     celldm(1)=  11.020000  celldm(2)=   0.000000  celldm(3)=   0.545600
     celldm(4)=   0.000000  celldm(5)=   0.000000  celldm(6)=   0.000000

     crystal axes: (cart. coord. in units of alat)
               a(1) = (   0.500000  -0.500000   0.272800 )  
               a(2) = (   0.500000   0.500000   0.272800 )  
               a(3) = (  -0.500000  -0.500000   0.272800 )  

     reciprocal axes: (cart. coord. in units 2 pi/alat)
               b(1) = (  1.000000 -1.000000  0.000000 )  
               b(2) = (  0.000000  1.000000  1.832845 )  
               b(3) = ( -1.000000  0.000000  1.832845 )  


     PseudoPot. # 1 for Sn read from file:
     ./Sn.pw91-n-van.UPF
     MD5 check sum: a38d2a872edd1a4efd76c0a1a38f7031
     Pseudo is Ultrasoft + core correction, Zval = 14.0
     Generated by new atomic code, or converted to UPF format
     Using radial grid of  891 points,  6 beta functions with: 
                l(1) =   0
                l(2) =   0
                l(3) =   1
                l(4) =   1
                l(5) =   2
                l(6) =   2
     Q(r) pseudized with  8 coefficients,  rinner =    1.100   1.100   1.100
                                                       1.100   1.100

     atomic species   valence    mass     pseudopotential
     Sn               14.00   118.70000     Sn( 1.00)

     16 Sym. Ops., with inversion, found (12 have fractional translation)



   Cartesian axes

     site n.     atom                  positions (alat units)
         1        Sn     tau(   1) = (   0.0000000  -0.2500000   0.0682000  )
         2        Sn     tau(   2) = (   0.0000000   0.2500000  -0.0682000  )

     number of k points=    13
                       cart. coord. in units 2pi/alat
        k(    1) = (   0.0000000   0.0000000   0.0000000), wk =   0.0312500
        k(    2) = (  -0.2500000   0.0000000   0.4582111), wk =   0.2500000
        k(    3) = (   0.5000000   0.0000000  -0.9164223), wk =   0.1250000
        k(    4) = (  -0.2500000   0.2500000   0.9164223), wk =   0.2500000
        k(    5) = (   0.5000000   0.2500000  -0.4582111), wk =   0.5000000
        k(    6) = (   0.2500000   0.2500000   0.0000000), wk =   0.1250000
        k(    7) = (   0.5000000  -0.5000000  -1.8328446), wk =   0.0625000
        k(    8) = (   0.0000000   0.0000000   0.9164223), wk =   0.0625000
        k(    9) = (   0.7500000   0.0000000  -0.4582111), wk =   0.2500000
        k(   10) = (   0.5000000   0.0000000   0.0000000), wk =   0.1250000
        k(   11) = (   0.7500000  -0.7500000  -1.8328446), wk =   0.1250000
        k(   12) = (   0.5000000  -0.5000000  -0.9164223), wk =   0.0625000
        k(   13) = (   0.0000000   0.0000000  -1.8328446), wk =   0.0312500

     Dense  grid:   101773 G-vectors     FFT dimensions: (  72,  72,  72)

     Estimated max dynamical RAM per process >       7.39 MB

     Estimated total dynamical RAM >     871.57 MB

     Initial potential from superposition of free atoms

     starting charge      27.9964, renormalised to      28.0000
     Starting wfcs are   18 randomized atomic wfcs

     total cpu time spent up to now is        1.1 secs

     per-process dynamical memory:    13.0 Mb

     Self-consistent Calculation

     iteration #  1     ecut=   162.00 Ry     beta= 0.70
     Davidson diagonalization with overlap
     ethr =  1.00E-02,  avg # of iterations =  1.8

     Threshold (ethr) on eigenvalues was too large:
     Diagonalizing with lowered threshold

     Davidson diagonalization with overlap
     ethr =  2.33E-05,  avg # of iterations =  3.8

     total cpu time spent up to now is        1.4 secs

     total energy              =    -325.58263389 Ry
     estimated scf accuracy    <       0.00682255 Ry

     iteration #  2     ecut=   162.00 Ry     beta= 0.70
     Davidson diagonalization with overlap
     ethr =  2.44E-05,  avg # of iterations =  2.0

     total cpu time spent up to now is        1.5 secs

     total energy              =    -325.58402595 Ry
     estimated scf accuracy    <       0.00051338 Ry

     iteration #  3     ecut=   162.00 Ry     beta= 0.70
     Davidson diagonalization with overlap
     ethr =  1.83E-06,  avg # of iterations =  2.3

     total cpu time spent up to now is        1.7 secs

     total energy              =    -325.58413170 Ry
     estimated scf accuracy    <       0.00003738 Ry

     iteration #  4     ecut=   162.00 Ry     beta= 0.70
     Davidson diagonalization with overlap
     ethr =  1.33E-07,  avg # of iterations =  3.2

     total cpu time spent up to now is        1.8 secs

     total energy              =    -325.58413780 Ry
     estimated scf accuracy    <       0.00000058 Ry

     iteration #  5     ecut=   162.00 Ry     beta= 0.70
     Davidson diagonalization with overlap
     ethr =  2.06E-09,  avg # of iterations =  3.6

     total cpu time spent up to now is        1.9 secs

     End of self-consistent calculation

          k = 0.0000 0.0000 0.0000 ( 12717 PWs)   bands (ev):

   -10.8098 -10.7268 -10.6833 -10.6716 -10.5216 -10.5216 -10.5105 -10.5105
   -10.4188 -10.3066  -0.3471   7.1617   8.8397   8.8397

          k =-0.2500 0.0000 0.4582 ( 12706 PWs)   bands (ev):

   -10.7739 -10.6460 -10.6411 -10.5999 -10.5775 -10.5362 -10.5277 -10.5048
   -10.4398 -10.3411   0.8911   6.5842   9.0439  11.2833

          k = 0.5000 0.0000-0.9164 ( 12730 PWs)   bands (ev):

   -10.7345 -10.6639 -10.6472 -10.6077 -10.5738 -10.5707 -10.4722 -10.4247
   -10.4210 -10.3746   3.8534   5.3958   8.4877   9.1146

          k =-0.2500 0.2500 0.9164 ( 12724 PWs)   bands (ev):

   -10.7484 -10.6605 -10.6173 -10.6004 -10.5984 -10.5479 -10.4890 -10.4698
   -10.3931 -10.3655   3.7388   6.0511   7.1234   9.1086

          k = 0.5000 0.2500-0.4582 ( 12708 PWs)   bands (ev):

   -10.7171 -10.6575 -10.6538 -10.5999 -10.5829 -10.5256 -10.4921 -10.4843
   -10.4671 -10.4028   2.0035   4.1412   9.3955  10.6281

          k = 0.2500 0.2500 0.0000 ( 12698 PWs)   bands (ev):

   -10.7598 -10.7336 -10.6984 -10.6415 -10.5484 -10.5009 -10.4992 -10.4912
   -10.4481 -10.3551   0.2175   4.5879   9.5063  10.5378

          k = 0.5000-0.5000-1.8328 ( 12688 PWs)   bands (ev):

   -10.7301 -10.7301 -10.6423 -10.6423 -10.5484 -10.5484 -10.4769 -10.4769
   -10.4379 -10.4379   1.9007   1.9007  11.4183  11.4183

          k = 0.0000 0.0000 0.9164 ( 12704 PWs)   bands (ev):

   -10.7400 -10.6322 -10.6322 -10.6129 -10.5677 -10.5677 -10.5438 -10.4505
   -10.3956 -10.3500   3.2955   7.1434   7.9733   9.4588

          k = 0.7500 0.0000-0.4582 ( 12717 PWs)   bands (ev):

   -10.7043 -10.6619 -10.5992 -10.5900 -10.5556 -10.5387 -10.5278 -10.4914
   -10.4849 -10.4288   3.0227   4.3600   7.2617   8.4573

          k = 0.5000 0.0000 0.0000 ( 12698 PWs)   bands (ev):

   -10.7456 -10.7159 -10.7040 -10.6101 -10.5258 -10.5179 -10.5140 -10.4712
   -10.4691 -10.4000   0.7801   4.3545   7.0798  10.7926

          k = 0.7500-0.7500-1.8328 ( 12718 PWs)   bands (ev):

   -10.7366 -10.7366 -10.6045 -10.6045 -10.5407 -10.5407 -10.4912 -10.4912
   -10.4625 -10.4625   2.4050   2.4050   7.9917   7.9917

          k = 0.5000-0.5000-0.9164 ( 12736 PWs)   bands (ev):

   -10.7126 -10.7126 -10.6420 -10.6420 -10.5348 -10.5348 -10.4410 -10.4410
   -10.4138 -10.4138   4.8059   4.8059   7.2813   7.2813

          k = 0.0000 0.0000-1.8328 ( 12760 PWs)   bands (ev):

   -10.7394 -10.7394 -10.5408 -10.5408 -10.5305 -10.5305 -10.5187 -10.5187
   -10.5059 -10.5059   3.2428   3.2428   6.0119   6.0119

     highest occupied level (ev):    11.4183

!    total energy              =    -325.58413799 Ry
     estimated scf accuracy    <       0.00000005 Ry

     The total energy is the sum of the following terms:
     one-electron contribution =    -107.32245951 Ry
     hartree contribution      =      74.47588926 Ry
     xc contribution           =     -95.22226454 Ry
     ewald contribution        =    -197.51530320 Ry

     convergence has been achieved in   5 iterations

     Writing all to output data dir ./beta-sn-scf/betatin.save/ :
     XML data file, charge density, pseudopotentials, collected wavefunctions

     init_run     :      0.74s CPU      0.79s WALL (       1 calls)
     electrons    :      0.80s CPU      0.89s WALL (       1 calls)

     Called by init_run:
     wfcinit      :      0.06s CPU      0.07s WALL (       1 calls)
     potinit      :      0.02s CPU      0.04s WALL (       1 calls)
     hinit0       :      0.59s CPU      0.60s WALL (       1 calls)

     Called by electrons:
     c_bands      :      0.55s CPU      0.58s WALL (       6 calls)
     sum_band     :      0.14s CPU      0.16s WALL (       6 calls)
     v_of_rho     :      0.08s CPU      0.09s WALL (       6 calls)
     newd         :      0.03s CPU      0.04s WALL (       6 calls)
     mix_rho      :      0.01s CPU      0.01s WALL (       6 calls)

     Called by c_bands:
     init_us_2    :      0.01s CPU      0.01s WALL (      52 calls)
     cegterg      :      0.51s CPU      0.54s WALL (      24 calls)

     Called by *egterg:
     cdiaghg      :      0.03s CPU      0.03s WALL (      96 calls)
     h_psi        :      0.49s CPU      0.51s WALL (     104 calls)
     s_psi        :      0.01s CPU      0.01s WALL (     104 calls)
     g_psi        :      0.00s CPU      0.00s WALL (      76 calls)

     Called by h_psi:
     h_psi:calbec :      0.02s CPU      0.02s WALL (     104 calls)
     vloc_psi     :      0.46s CPU      0.48s WALL (     104 calls)
     add_vuspsi   :      0.01s CPU      0.01s WALL (     104 calls)

     General routines
     calbec       :      0.02s CPU      0.02s WALL (     128 calls)
     fft          :      0.58s CPU      0.59s WALL (      67 calls)
     ffts         :      0.00s CPU      0.00s WALL (       6 calls)
     fftw         :      0.50s CPU      0.52s WALL (    2154 calls)

     Parallel routines

     PWSCF        :      1.77s CPU      2.43s WALL


   This run was terminated on:  15:59:52   5Feb2026            

=------------------------------------------------------------------------------=
   JOB DONE.
=------------------------------------------------------------------------------=
