
     Program PWSCF v.7.3.1 starts on  5Feb2026 at 16: 0:42 

     This program is part of the open-source Quantum ESPRESSO suite
     for quantum simulation of materials; please cite
         "P. Giannozzi et al., J. Phys.:Condens. Matter 21 395502 (2009);
         "P. Giannozzi et al., J. Phys.:Condens. Matter 29 465901 (2017);
         "P. Giannozzi et al., J. Chem. Phys. 152 154105 (2020);
          URL http://www.quantum-espresso.org", 
     in publications or presentations arising from this work. More details at
     http://www.quantum-espresso.org/quote

     Parallel version (MPI), running on   128 processors

     MPI processes distributed on     1 nodes
     242314 MiB available memory on the printing compute node when the environment starts

     Waiting for input...
     Reading input from standard input

     Current dimensions of program PWSCF are:
     Max number of different atomic species (ntypx) = 10
     Max number of k-points (npk) =  40000
     Max angular momentum in pseudopotentials (lmaxx) =  4

     K-points division:     npool     =       4
     R & G space division:  proc/nbgrp/npool/nimage =      32
     Subspace diagonalization in iterative solution of the eigenvalue problem:
     a serial algorithm will be used


     Parallelization info
     --------------------
     sticks:   dense  smooth     PW     G-vecs:    dense   smooth      PW
     Min         115     115     34                 3354     3354     548
     Max         116     116     35                 3358     3358     550
     Sum        3699    3699   1097               107377   107377   17553

     Using Slab Decomposition



     bravais-lattice index     =            7
     lattice parameter (alat)  =      11.0200  a.u.
     unit-cell volume          =     365.0809 (a.u.)^3
     number of atoms/cell      =            2
     number of atomic types    =            1
     number of electrons       =        28.00
     number of Kohn-Sham states=           14
     kinetic-energy cutoff     =     168.0000  Ry
     charge density cutoff     =     672.0000  Ry
     scf convergence threshold =      1.0E-07
     mixing beta               =       0.7000
     number of iterations used =            8  plain     mixing
     Exchange-correlation=  SLA  PW   GGX  GGC
                           (   1   4   2   2   0   0   0)

     celldm(1)=  11.020000  celldm(2)=   0.000000  celldm(3)=   0.545600
     celldm(4)=   0.000000  celldm(5)=   0.000000  celldm(6)=   0.000000

     crystal axes: (cart. coord. in units of alat)
               a(1) = (   0.500000  -0.500000   0.272800 )  
               a(2) = (   0.500000   0.500000   0.272800 )  
               a(3) = (  -0.500000  -0.500000   0.272800 )  

     reciprocal axes: (cart. coord. in units 2 pi/alat)
               b(1) = (  1.000000 -1.000000  0.000000 )  
               b(2) = (  0.000000  1.000000  1.832845 )  
               b(3) = ( -1.000000  0.000000  1.832845 )  


     PseudoPot. # 1 for Sn read from file:
     ./Sn.pw91-n-van.UPF
     MD5 check sum: a38d2a872edd1a4efd76c0a1a38f7031
     Pseudo is Ultrasoft + core correction, Zval = 14.0
     Generated by new atomic code, or converted to UPF format
     Using radial grid of  891 points,  6 beta functions with: 
                l(1) =   0
                l(2) =   0
                l(3) =   1
                l(4) =   1
                l(5) =   2
                l(6) =   2
     Q(r) pseudized with  8 coefficients,  rinner =    1.100   1.100   1.100
                                                       1.100   1.100

     atomic species   valence    mass     pseudopotential
     Sn               14.00   118.70000     Sn( 1.00)

     16 Sym. Ops., with inversion, found (12 have fractional translation)



   Cartesian axes

     site n.     atom                  positions (alat units)
         1        Sn     tau(   1) = (   0.0000000  -0.2500000   0.0682000  )
         2        Sn     tau(   2) = (   0.0000000   0.2500000  -0.0682000  )

     number of k points=    13
                       cart. coord. in units 2pi/alat
        k(    1) = (   0.0000000   0.0000000   0.0000000), wk =   0.0312500
        k(    2) = (  -0.2500000   0.0000000   0.4582111), wk =   0.2500000
        k(    3) = (   0.5000000   0.0000000  -0.9164223), wk =   0.1250000
        k(    4) = (  -0.2500000   0.2500000   0.9164223), wk =   0.2500000
        k(    5) = (   0.5000000   0.2500000  -0.4582111), wk =   0.5000000
        k(    6) = (   0.2500000   0.2500000   0.0000000), wk =   0.1250000
        k(    7) = (   0.5000000  -0.5000000  -1.8328446), wk =   0.0625000
        k(    8) = (   0.0000000   0.0000000   0.9164223), wk =   0.0625000
        k(    9) = (   0.7500000   0.0000000  -0.4582111), wk =   0.2500000
        k(   10) = (   0.5000000   0.0000000   0.0000000), wk =   0.1250000
        k(   11) = (   0.7500000  -0.7500000  -1.8328446), wk =   0.1250000
        k(   12) = (   0.5000000  -0.5000000  -0.9164223), wk =   0.0625000
        k(   13) = (   0.0000000   0.0000000  -1.8328446), wk =   0.0312500

     Dense  grid:   107377 G-vectors     FFT dimensions: (  72,  72,  72)

     Estimated max dynamical RAM per process >       7.67 MB

     Estimated total dynamical RAM >     902.63 MB

     Initial potential from superposition of free atoms

     starting charge      27.9964, renormalised to      28.0000
     Starting wfcs are   18 randomized atomic wfcs

     total cpu time spent up to now is        1.1 secs

     per-process dynamical memory:    13.1 Mb

     Self-consistent Calculation

     iteration #  1     ecut=   168.00 Ry     beta= 0.70
     Davidson diagonalization with overlap
     ethr =  1.00E-02,  avg # of iterations =  1.9

     Threshold (ethr) on eigenvalues was too large:
     Diagonalizing with lowered threshold

     Davidson diagonalization with overlap
     ethr =  2.33E-05,  avg # of iterations =  3.7

     total cpu time spent up to now is        1.4 secs

     total energy              =    -325.58325666 Ry
     estimated scf accuracy    <       0.00679834 Ry

     iteration #  2     ecut=   168.00 Ry     beta= 0.70
     Davidson diagonalization with overlap
     ethr =  2.43E-05,  avg # of iterations =  2.0

     total cpu time spent up to now is        1.6 secs

     total energy              =    -325.58482243 Ry
     estimated scf accuracy    <       0.00049593 Ry

     iteration #  3     ecut=   168.00 Ry     beta= 0.70
     Davidson diagonalization with overlap
     ethr =  1.77E-06,  avg # of iterations =  2.3

     total cpu time spent up to now is        1.7 secs

     total energy              =    -325.58493669 Ry
     estimated scf accuracy    <       0.00003642 Ry

     iteration #  4     ecut=   168.00 Ry     beta= 0.70
     Davidson diagonalization with overlap
     ethr =  1.30E-07,  avg # of iterations =  2.8

     total cpu time spent up to now is        1.8 secs

     total energy              =    -325.58494204 Ry
     estimated scf accuracy    <       0.00000062 Ry

     iteration #  5     ecut=   168.00 Ry     beta= 0.70
     Davidson diagonalization with overlap
     ethr =  2.20E-09,  avg # of iterations =  4.0

     total cpu time spent up to now is        2.0 secs

     End of self-consistent calculation

          k = 0.0000 0.0000 0.0000 ( 13465 PWs)   bands (ev):

   -10.8102 -10.7272 -10.6838 -10.6720 -10.5220 -10.5220 -10.5109 -10.5109
   -10.4192 -10.3072  -0.3471   7.1618   8.8397   8.8397

          k =-0.2500 0.0000 0.4582 ( 13418 PWs)   bands (ev):

   -10.7742 -10.6464 -10.6414 -10.6002 -10.5778 -10.5365 -10.5281 -10.5051
   -10.4402 -10.3416   0.8911   6.5843   9.0438  11.2833

          k = 0.5000 0.0000-0.9164 ( 13414 PWs)   bands (ev):

   -10.7348 -10.6642 -10.6475 -10.6080 -10.5742 -10.5710 -10.4725 -10.4251
   -10.4213 -10.3750   3.8534   5.3958   8.4878   9.1146

          k =-0.2500 0.2500 0.9164 ( 13415 PWs)   bands (ev):

   -10.7487 -10.6608 -10.6176 -10.6008 -10.5987 -10.5483 -10.4893 -10.4701
   -10.3934 -10.3660   3.7388   6.0511   7.1235   9.1086

          k = 0.5000 0.2500-0.4582 ( 13422 PWs)   bands (ev):

   -10.7175 -10.6579 -10.6541 -10.6002 -10.5833 -10.5259 -10.4924 -10.4846
   -10.4675 -10.4032   2.0035   4.1412   9.3954  10.6281

          k = 0.2500 0.2500 0.0000 ( 13418 PWs)   bands (ev):

   -10.7602 -10.7339 -10.6987 -10.6419 -10.5486 -10.5012 -10.4995 -10.4915
   -10.4485 -10.3557   0.2175   4.5879   9.5063  10.5378

          k = 0.5000-0.5000-1.8328 ( 13444 PWs)   bands (ev):

   -10.7304 -10.7304 -10.6427 -10.6427 -10.5489 -10.5489 -10.4773 -10.4773
   -10.4383 -10.4383   1.9007   1.9007  11.4182  11.4182

          k = 0.0000 0.0000 0.9164 ( 13428 PWs)   bands (ev):

   -10.7405 -10.6325 -10.6325 -10.6132 -10.5680 -10.5680 -10.5440 -10.4509
   -10.3958 -10.3505   3.2955   7.1435   7.9734   9.4587

          k = 0.7500 0.0000-0.4582 ( 13441 PWs)   bands (ev):

   -10.7047 -10.6622 -10.5996 -10.5903 -10.5559 -10.5391 -10.5281 -10.4918
   -10.4853 -10.4293   3.0227   4.3600   7.2616   8.4573

          k = 0.5000 0.0000 0.0000 ( 13421 PWs)   bands (ev):

   -10.7459 -10.7163 -10.7044 -10.6104 -10.5261 -10.5182 -10.5144 -10.4715
   -10.4695 -10.4005   0.7801   4.3545   7.0797  10.7926

          k = 0.7500-0.7500-1.8328 ( 13464 PWs)   bands (ev):

   -10.7369 -10.7369 -10.6049 -10.6049 -10.5411 -10.5411 -10.4915 -10.4915
   -10.4629 -10.4629   2.4050   2.4050   7.9916   7.9916

          k = 0.5000-0.5000-0.9164 ( 13408 PWs)   bands (ev):

   -10.7129 -10.7129 -10.6423 -10.6423 -10.5351 -10.5351 -10.4414 -10.4414
   -10.4140 -10.4140   4.8059   4.8059   7.2813   7.2813

          k = 0.0000 0.0000-1.8328 ( 13368 PWs)   bands (ev):

   -10.7397 -10.7397 -10.5412 -10.5412 -10.5308 -10.5308 -10.5189 -10.5189
   -10.5062 -10.5062   3.2429   3.2429   6.0119   6.0119

     highest occupied level (ev):    11.4182

!    total energy              =    -325.58494227 Ry
     estimated scf accuracy    <       0.00000008 Ry

     The total energy is the sum of the following terms:
     one-electron contribution =    -107.32348927 Ry
     hartree contribution      =      74.47615867 Ry
     xc contribution           =     -95.22230847 Ry
     ewald contribution        =    -197.51530320 Ry

     convergence has been achieved in   5 iterations

     Writing all to output data dir ./beta-sn-scf/betatin.save/ :
     XML data file, charge density, pseudopotentials, collected wavefunctions

     init_run     :      0.73s CPU      0.80s WALL (       1 calls)
     electrons    :      0.82s CPU      0.90s WALL (       1 calls)

     Called by init_run:
     wfcinit      :      0.06s CPU      0.07s WALL (       1 calls)
     potinit      :      0.02s CPU      0.03s WALL (       1 calls)
     hinit0       :      0.59s CPU      0.60s WALL (       1 calls)

     Called by electrons:
     c_bands      :      0.56s CPU      0.59s WALL (       6 calls)
     sum_band     :      0.15s CPU      0.16s WALL (       6 calls)
     v_of_rho     :      0.07s CPU      0.09s WALL (       6 calls)
     newd         :      0.03s CPU      0.04s WALL (       6 calls)
     mix_rho      :      0.01s CPU      0.01s WALL (       6 calls)

     Called by c_bands:
     init_us_2    :      0.01s CPU      0.01s WALL (      52 calls)
     cegterg      :      0.52s CPU      0.54s WALL (      24 calls)

     Called by *egterg:
     cdiaghg      :      0.03s CPU      0.03s WALL (      93 calls)
     h_psi        :      0.49s CPU      0.51s WALL (     101 calls)
     s_psi        :      0.01s CPU      0.01s WALL (     101 calls)
     g_psi        :      0.00s CPU      0.00s WALL (      73 calls)

     Called by h_psi:
     h_psi:calbec :      0.02s CPU      0.02s WALL (     101 calls)
     vloc_psi     :      0.46s CPU      0.48s WALL (     101 calls)
     add_vuspsi   :      0.01s CPU      0.01s WALL (     101 calls)

     General routines
     calbec       :      0.02s CPU      0.02s WALL (     125 calls)
     fft          :      0.59s CPU      0.59s WALL (      67 calls)
     ffts         :      0.00s CPU      0.00s WALL (       6 calls)
     fftw         :      0.50s CPU      0.52s WALL (    2140 calls)

     Parallel routines

     PWSCF        :      1.84s CPU      2.14s WALL


   This run was terminated on:  16: 0:44   5Feb2026            

=------------------------------------------------------------------------------=
   JOB DONE.
=------------------------------------------------------------------------------=
