
     Program PWSCF v.7.3.1 starts on  4Feb2026 at 11:35:43 

     This program is part of the open-source Quantum ESPRESSO suite
     for quantum simulation of materials; please cite
         "P. Giannozzi et al., J. Phys.:Condens. Matter 21 395502 (2009);
         "P. Giannozzi et al., J. Phys.:Condens. Matter 29 465901 (2017);
         "P. Giannozzi et al., J. Chem. Phys. 152 154105 (2020);
          URL http://www.quantum-espresso.org", 
     in publications or presentations arising from this work. More details at
     http://www.quantum-espresso.org/quote

     Parallel version (MPI), running on   128 processors

     MPI processes distributed on     1 nodes
     241473 MiB available memory on the printing compute node when the environment starts

     Waiting for input...
     Reading input from standard input

     Current dimensions of program PWSCF are:
     Max number of different atomic species (ntypx) = 10
     Max number of k-points (npk) =  40000
     Max angular momentum in pseudopotentials (lmaxx) =  4

     K-points division:     npool     =       4
     R & G space division:  proc/nbgrp/npool/nimage =      32
     Subspace diagonalization in iterative solution of the eigenvalue problem:
     a serial algorithm will be used


     Parallelization info
     --------------------
     sticks:   dense  smooth     PW     G-vecs:    dense   smooth      PW
     Min         117     117     34                 3417     3417     553
     Max         118     118     35                 3419     3419     556
     Sum        3753    3753   1109               109385   109385   17737

     Using Slab Decomposition



     bravais-lattice index     =            7
     lattice parameter (alat)  =      11.0200  a.u.
     unit-cell volume          =     365.0809 (a.u.)^3
     number of atoms/cell      =            2
     number of atomic types    =            1
     number of electrons       =        28.00
     number of Kohn-Sham states=           14
     kinetic-energy cutoff     =     170.0000  Ry
     charge density cutoff     =     680.0000  Ry
     scf convergence threshold =      1.0E-07
     mixing beta               =       0.7000
     number of iterations used =            8  plain     mixing
     Exchange-correlation=  SLA  PW   GGX  GGC
                           (   1   4   2   2   0   0   0)

     celldm(1)=  11.020000  celldm(2)=   0.000000  celldm(3)=   0.545600
     celldm(4)=   0.000000  celldm(5)=   0.000000  celldm(6)=   0.000000

     crystal axes: (cart. coord. in units of alat)
               a(1) = (   0.500000  -0.500000   0.272800 )  
               a(2) = (   0.500000   0.500000   0.272800 )  
               a(3) = (  -0.500000  -0.500000   0.272800 )  

     reciprocal axes: (cart. coord. in units 2 pi/alat)
               b(1) = (  1.000000 -1.000000  0.000000 )  
               b(2) = (  0.000000  1.000000  1.832845 )  
               b(3) = ( -1.000000  0.000000  1.832845 )  


     PseudoPot. # 1 for Sn read from file:
     ./Sn.pw91-n-van.UPF
     MD5 check sum: a38d2a872edd1a4efd76c0a1a38f7031
     Pseudo is Ultrasoft + core correction, Zval = 14.0
     Generated by new atomic code, or converted to UPF format
     Using radial grid of  891 points,  6 beta functions with: 
                l(1) =   0
                l(2) =   0
                l(3) =   1
                l(4) =   1
                l(5) =   2
                l(6) =   2
     Q(r) pseudized with  8 coefficients,  rinner =    1.100   1.100   1.100
                                                       1.100   1.100

     atomic species   valence    mass     pseudopotential
     Sn               14.00   118.70000     Sn( 1.00)

     16 Sym. Ops., with inversion, found (12 have fractional translation)



   Cartesian axes

     site n.     atom                  positions (alat units)
         1        Sn     tau(   1) = (   0.0000000  -0.2500000   0.0682000  )
         2        Sn     tau(   2) = (   0.0000000   0.2500000  -0.0682000  )

     number of k points=    13
                       cart. coord. in units 2pi/alat
        k(    1) = (   0.0000000   0.0000000   0.0000000), wk =   0.0312500
        k(    2) = (  -0.2500000   0.0000000   0.4582111), wk =   0.2500000
        k(    3) = (   0.5000000   0.0000000  -0.9164223), wk =   0.1250000
        k(    4) = (  -0.2500000   0.2500000   0.9164223), wk =   0.2500000
        k(    5) = (   0.5000000   0.2500000  -0.4582111), wk =   0.5000000
        k(    6) = (   0.2500000   0.2500000   0.0000000), wk =   0.1250000
        k(    7) = (   0.5000000  -0.5000000  -1.8328446), wk =   0.0625000
        k(    8) = (   0.0000000   0.0000000   0.9164223), wk =   0.0625000
        k(    9) = (   0.7500000   0.0000000  -0.4582111), wk =   0.2500000
        k(   10) = (   0.5000000   0.0000000   0.0000000), wk =   0.1250000
        k(   11) = (   0.7500000  -0.7500000  -1.8328446), wk =   0.1250000
        k(   12) = (   0.5000000  -0.5000000  -0.9164223), wk =   0.0625000
        k(   13) = (   0.0000000   0.0000000  -1.8328446), wk =   0.0312500

     Dense  grid:   109385 G-vectors     FFT dimensions: (  72,  72,  72)

     Estimated max dynamical RAM per process >       7.76 MB

     Estimated total dynamical RAM >     913.24 MB

     Initial potential from superposition of free atoms

     starting charge      27.9964, renormalised to      28.0000
     Starting wfcs are   18 randomized atomic wfcs

     total cpu time spent up to now is        1.1 secs

     per-process dynamical memory:    13.1 Mb

     Self-consistent Calculation

     iteration #  1     ecut=   170.00 Ry     beta= 0.70
     Davidson diagonalization with overlap
     ethr =  1.00E-02,  avg # of iterations =  1.9

     Threshold (ethr) on eigenvalues was too large:
     Diagonalizing with lowered threshold

     Davidson diagonalization with overlap
     ethr =  2.31E-05,  avg # of iterations =  3.6

     total cpu time spent up to now is        1.4 secs

     total energy              =    -325.58356186 Ry
     estimated scf accuracy    <       0.00678084 Ry

     iteration #  2     ecut=   170.00 Ry     beta= 0.70
     Davidson diagonalization with overlap
     ethr =  2.42E-05,  avg # of iterations =  2.0

     total cpu time spent up to now is        1.5 secs

     total energy              =    -325.58518057 Ry
     estimated scf accuracy    <       0.00048952 Ry

     iteration #  3     ecut=   170.00 Ry     beta= 0.70
     Davidson diagonalization with overlap
     ethr =  1.75E-06,  avg # of iterations =  2.3

     total cpu time spent up to now is        1.7 secs

     total energy              =    -325.58529218 Ry
     estimated scf accuracy    <       0.00003437 Ry

     iteration #  4     ecut=   170.00 Ry     beta= 0.70
     Davidson diagonalization with overlap
     ethr =  1.23E-07,  avg # of iterations =  3.2

     total cpu time spent up to now is        1.8 secs

     total energy              =    -325.58529725 Ry
     estimated scf accuracy    <       0.00000051 Ry

     iteration #  5     ecut=   170.00 Ry     beta= 0.70
     Davidson diagonalization with overlap
     ethr =  1.82E-09,  avg # of iterations =  3.7

     total cpu time spent up to now is        2.0 secs

     End of self-consistent calculation

          k = 0.0000 0.0000 0.0000 ( 13665 PWs)   bands (ev):

   -10.8103 -10.7274 -10.6840 -10.6722 -10.5222 -10.5222 -10.5111 -10.5111
   -10.4194 -10.3074  -0.3471   7.1618   8.8397   8.8397

          k =-0.2500 0.0000 0.4582 ( 13674 PWs)   bands (ev):

   -10.7744 -10.6466 -10.6417 -10.6005 -10.5781 -10.5368 -10.5283 -10.5054
   -10.4405 -10.3419   0.8911   6.5843   9.0439  11.2833

          k = 0.5000 0.0000-0.9164 ( 13654 PWs)   bands (ev):

   -10.7350 -10.6645 -10.6478 -10.6083 -10.5744 -10.5712 -10.4728 -10.4254
   -10.4216 -10.3752   3.8534   5.3958   8.4877   9.1146

          k =-0.2500 0.2500 0.9164 ( 13655 PWs)   bands (ev):

   -10.7489 -10.6611 -10.6178 -10.6010 -10.5989 -10.5485 -10.4896 -10.4704
   -10.3937 -10.3662   3.7388   6.0512   7.1234   9.1086

          k = 0.5000 0.2500-0.4582 ( 13670 PWs)   bands (ev):

   -10.7177 -10.6581 -10.6544 -10.6005 -10.5835 -10.5262 -10.4927 -10.4849
   -10.4678 -10.4035   2.0036   4.1412   9.3954  10.6281

          k = 0.2500 0.2500 0.0000 ( 13686 PWs)   bands (ev):

   -10.7604 -10.7343 -10.6990 -10.6421 -10.5490 -10.5016 -10.4998 -10.4918
   -10.4487 -10.3559   0.2175   4.5879   9.5063  10.5378

          k = 0.5000-0.5000-1.8328 ( 13712 PWs)   bands (ev):

   -10.7307 -10.7307 -10.6430 -10.6430 -10.5490 -10.5490 -10.4776 -10.4776
   -10.4386 -10.4386   1.9007   1.9007  11.4182  11.4182

          k = 0.0000 0.0000 0.9164 ( 13636 PWs)   bands (ev):

   -10.7406 -10.6327 -10.6327 -10.6134 -10.5682 -10.5682 -10.5442 -10.4512
   -10.3961 -10.3507   3.2955   7.1435   7.9734   9.4587

          k = 0.7500 0.0000-0.4582 ( 13657 PWs)   bands (ev):

   -10.7049 -10.6625 -10.5998 -10.5906 -10.5561 -10.5393 -10.5284 -10.4919
   -10.4856 -10.4295   3.0227   4.3600   7.2616   8.4573

          k = 0.5000 0.0000 0.0000 ( 13657 PWs)   bands (ev):

   -10.7462 -10.7165 -10.7046 -10.6106 -10.5264 -10.5184 -10.5146 -10.4718
   -10.4696 -10.4007   0.7801   4.3545   7.0798  10.7926

          k = 0.7500-0.7500-1.8328 ( 13670 PWs)   bands (ev):

   -10.7371 -10.7371 -10.6051 -10.6051 -10.5413 -10.5413 -10.4918 -10.4918
   -10.4632 -10.4632   2.4050   2.4050   7.9916   7.9916

          k = 0.5000-0.5000-0.9164 ( 13648 PWs)   bands (ev):

   -10.7131 -10.7131 -10.6426 -10.6426 -10.5353 -10.5353 -10.4417 -10.4417
   -10.4143 -10.4143   4.8059   4.8059   7.2813   7.2813

          k = 0.0000 0.0000-1.8328 ( 13680 PWs)   bands (ev):

   -10.7400 -10.7400 -10.5415 -10.5415 -10.5310 -10.5310 -10.5193 -10.5193
   -10.5065 -10.5065   3.2428   3.2428   6.0119   6.0119

     highest occupied level (ev):    11.4182

!    total energy              =    -325.58529741 Ry
     estimated scf accuracy    <       0.00000006 Ry

     The total energy is the sum of the following terms:
     one-electron contribution =    -107.32405151 Ry
     hartree contribution      =      74.47643104 Ry
     xc contribution           =     -95.22237374 Ry
     ewald contribution        =    -197.51530320 Ry

     convergence has been achieved in   5 iterations

     Writing all to output data dir ./beta-sn-scf/betatin.save/ :
     XML data file, charge density, pseudopotentials, collected wavefunctions

     init_run     :      0.69s CPU      0.80s WALL (       1 calls)
     electrons    :      0.82s CPU      0.90s WALL (       1 calls)

     Called by init_run:
     wfcinit      :      0.06s CPU      0.07s WALL (       1 calls)
     potinit      :      0.01s CPU      0.04s WALL (       1 calls)
     hinit0       :      0.58s CPU      0.60s WALL (       1 calls)

     Called by electrons:
     c_bands      :      0.56s CPU      0.59s WALL (       6 calls)
     sum_band     :      0.14s CPU      0.16s WALL (       6 calls)
     v_of_rho     :      0.07s CPU      0.09s WALL (       6 calls)
     newd         :      0.03s CPU      0.04s WALL (       6 calls)
     mix_rho      :      0.01s CPU      0.01s WALL (       6 calls)

     Called by c_bands:
     init_us_2    :      0.01s CPU      0.01s WALL (      52 calls)
     cegterg      :      0.51s CPU      0.53s WALL (      24 calls)

     Called by *egterg:
     cdiaghg      :      0.03s CPU      0.03s WALL (      96 calls)
     h_psi        :      0.49s CPU      0.51s WALL (     104 calls)
     s_psi        :      0.01s CPU      0.01s WALL (     104 calls)
     g_psi        :      0.00s CPU      0.00s WALL (      76 calls)

     Called by h_psi:
     h_psi:calbec :      0.01s CPU      0.02s WALL (     104 calls)
     vloc_psi     :      0.47s CPU      0.48s WALL (     104 calls)
     add_vuspsi   :      0.01s CPU      0.01s WALL (     104 calls)

     General routines
     calbec       :      0.02s CPU      0.02s WALL (     128 calls)
     fft          :      0.58s CPU      0.59s WALL (      67 calls)
     ffts         :      0.00s CPU      0.00s WALL (       6 calls)
     fftw         :      0.50s CPU      0.52s WALL (    2142 calls)

     Parallel routines

     PWSCF        :      1.80s CPU      2.43s WALL


   This run was terminated on:  11:35:45   4Feb2026            

=------------------------------------------------------------------------------=
   JOB DONE.
=------------------------------------------------------------------------------=
