
     Program PWSCF v.7.3.1 starts on  5Feb2026 at 16: 1:35 

     This program is part of the open-source Quantum ESPRESSO suite
     for quantum simulation of materials; please cite
         "P. Giannozzi et al., J. Phys.:Condens. Matter 21 395502 (2009);
         "P. Giannozzi et al., J. Phys.:Condens. Matter 29 465901 (2017);
         "P. Giannozzi et al., J. Chem. Phys. 152 154105 (2020);
          URL http://www.quantum-espresso.org", 
     in publications or presentations arising from this work. More details at
     http://www.quantum-espresso.org/quote

     Parallel version (MPI), running on   128 processors

     MPI processes distributed on     1 nodes
     242364 MiB available memory on the printing compute node when the environment starts

     Waiting for input...
     Reading input from standard input

     Current dimensions of program PWSCF are:
     Max number of different atomic species (ntypx) = 10
     Max number of k-points (npk) =  40000
     Max angular momentum in pseudopotentials (lmaxx) =  4

     K-points division:     npool     =       4
     R & G space division:  proc/nbgrp/npool/nimage =      32
     Subspace diagonalization in iterative solution of the eigenvalue problem:
     a serial algorithm will be used


     Parallelization info
     --------------------
     sticks:   dense  smooth     PW     G-vecs:    dense   smooth      PW
     Min         121     121     36                 3597     3597     584
     Max         122     122     37                 3599     3599     585
     Sum        3875    3875   1161               115149   115149   18689

     Using Slab Decomposition



     bravais-lattice index     =            7
     lattice parameter (alat)  =      11.0200  a.u.
     unit-cell volume          =     365.0809 (a.u.)^3
     number of atoms/cell      =            2
     number of atomic types    =            1
     number of electrons       =        28.00
     number of Kohn-Sham states=           14
     kinetic-energy cutoff     =     176.0000  Ry
     charge density cutoff     =     704.0000  Ry
     scf convergence threshold =      1.0E-07
     mixing beta               =       0.7000
     number of iterations used =            8  plain     mixing
     Exchange-correlation=  SLA  PW   GGX  GGC
                           (   1   4   2   2   0   0   0)

     celldm(1)=  11.020000  celldm(2)=   0.000000  celldm(3)=   0.545600
     celldm(4)=   0.000000  celldm(5)=   0.000000  celldm(6)=   0.000000

     crystal axes: (cart. coord. in units of alat)
               a(1) = (   0.500000  -0.500000   0.272800 )  
               a(2) = (   0.500000   0.500000   0.272800 )  
               a(3) = (  -0.500000  -0.500000   0.272800 )  

     reciprocal axes: (cart. coord. in units 2 pi/alat)
               b(1) = (  1.000000 -1.000000  0.000000 )  
               b(2) = (  0.000000  1.000000  1.832845 )  
               b(3) = ( -1.000000  0.000000  1.832845 )  


     PseudoPot. # 1 for Sn read from file:
     ./Sn.pw91-n-van.UPF
     MD5 check sum: a38d2a872edd1a4efd76c0a1a38f7031
     Pseudo is Ultrasoft + core correction, Zval = 14.0
     Generated by new atomic code, or converted to UPF format
     Using radial grid of  891 points,  6 beta functions with: 
                l(1) =   0
                l(2) =   0
                l(3) =   1
                l(4) =   1
                l(5) =   2
                l(6) =   2
     Q(r) pseudized with  8 coefficients,  rinner =    1.100   1.100   1.100
                                                       1.100   1.100

     atomic species   valence    mass     pseudopotential
     Sn               14.00   118.70000     Sn( 1.00)

     16 Sym. Ops., with inversion, found (12 have fractional translation)



   Cartesian axes

     site n.     atom                  positions (alat units)
         1        Sn     tau(   1) = (   0.0000000  -0.2500000   0.0682000  )
         2        Sn     tau(   2) = (   0.0000000   0.2500000  -0.0682000  )

     number of k points=    13
                       cart. coord. in units 2pi/alat
        k(    1) = (   0.0000000   0.0000000   0.0000000), wk =   0.0312500
        k(    2) = (  -0.2500000   0.0000000   0.4582111), wk =   0.2500000
        k(    3) = (   0.5000000   0.0000000  -0.9164223), wk =   0.1250000
        k(    4) = (  -0.2500000   0.2500000   0.9164223), wk =   0.2500000
        k(    5) = (   0.5000000   0.2500000  -0.4582111), wk =   0.5000000
        k(    6) = (   0.2500000   0.2500000   0.0000000), wk =   0.1250000
        k(    7) = (   0.5000000  -0.5000000  -1.8328446), wk =   0.0625000
        k(    8) = (   0.0000000   0.0000000   0.9164223), wk =   0.0625000
        k(    9) = (   0.7500000   0.0000000  -0.4582111), wk =   0.2500000
        k(   10) = (   0.5000000   0.0000000   0.0000000), wk =   0.1250000
        k(   11) = (   0.7500000  -0.7500000  -1.8328446), wk =   0.1250000
        k(   12) = (   0.5000000  -0.5000000  -0.9164223), wk =   0.0625000
        k(   13) = (   0.0000000   0.0000000  -1.8328446), wk =   0.0312500

     Dense  grid:   115149 G-vectors     FFT dimensions: (  72,  72,  72)

     Estimated max dynamical RAM per process >       8.04 MB

     Estimated total dynamical RAM >     944.63 MB

     Initial potential from superposition of free atoms

     starting charge      27.9964, renormalised to      28.0000
     Starting wfcs are   18 randomized atomic wfcs

     total cpu time spent up to now is        1.1 secs

     per-process dynamical memory:    13.2 Mb

     Self-consistent Calculation

     iteration #  1     ecut=   176.00 Ry     beta= 0.70
     Davidson diagonalization with overlap
     ethr =  1.00E-02,  avg # of iterations =  2.0

     Threshold (ethr) on eigenvalues was too large:
     Diagonalizing with lowered threshold

     Davidson diagonalization with overlap
     ethr =  2.32E-05,  avg # of iterations =  3.6

     total cpu time spent up to now is        1.4 secs

     total energy              =    -325.58452068 Ry
     estimated scf accuracy    <       0.00678843 Ry

     iteration #  2     ecut=   176.00 Ry     beta= 0.70
     Davidson diagonalization with overlap
     ethr =  2.42E-05,  avg # of iterations =  2.0

     total cpu time spent up to now is        1.6 secs

     total energy              =    -325.58637006 Ry
     estimated scf accuracy    <       0.00046938 Ry

     iteration #  3     ecut=   176.00 Ry     beta= 0.70
     Davidson diagonalization with overlap
     ethr =  1.68E-06,  avg # of iterations =  2.5

     total cpu time spent up to now is        1.7 secs

     total energy              =    -325.58649295 Ry
     estimated scf accuracy    <       0.00003310 Ry

     iteration #  4     ecut=   176.00 Ry     beta= 0.70
     Davidson diagonalization with overlap
     ethr =  1.18E-07,  avg # of iterations =  2.8

     total cpu time spent up to now is        1.8 secs

     total energy              =    -325.58649710 Ry
     estimated scf accuracy    <       0.00000030 Ry

     iteration #  5     ecut=   176.00 Ry     beta= 0.70
     Davidson diagonalization with overlap
     ethr =  1.06E-09,  avg # of iterations =  4.2

     total cpu time spent up to now is        2.0 secs

     End of self-consistent calculation

          k = 0.0000 0.0000 0.0000 ( 14425 PWs)   bands (ev):

   -10.8104 -10.7277 -10.6841 -10.6726 -10.5225 -10.5225 -10.5115 -10.5115
   -10.4195 -10.3078  -0.3471   7.1618   8.8398   8.8398

          k =-0.2500 0.0000 0.4582 ( 14418 PWs)   bands (ev):

   -10.7746 -10.6468 -10.6420 -10.6009 -10.5783 -10.5371 -10.5287 -10.5058
   -10.4406 -10.3422   0.8912   6.5843   9.0440  11.2833

          k = 0.5000 0.0000-0.9164 ( 14396 PWs)   bands (ev):

   -10.7352 -10.6647 -10.6480 -10.6086 -10.5745 -10.5715 -10.4730 -10.4257
   -10.4220 -10.3756   3.8535   5.3958   8.4877   9.1145

          k =-0.2500 0.2500 0.9164 ( 14394 PWs)   bands (ev):

   -10.7491 -10.6614 -10.6181 -10.6012 -10.5993 -10.5488 -10.4899 -10.4706
   -10.3942 -10.3665   3.7389   6.0513   7.1234   9.1085

          k = 0.5000 0.2500-0.4582 ( 14401 PWs)   bands (ev):

   -10.7179 -10.6584 -10.6547 -10.6008 -10.5837 -10.5265 -10.4929 -10.4852
   -10.4681 -10.4037   2.0036   4.1413   9.3955  10.6281

          k = 0.2500 0.2500 0.0000 ( 14409 PWs)   bands (ev):

   -10.7605 -10.7346 -10.6994 -10.6423 -10.5492 -10.5019 -10.5002 -10.4922
   -10.4489 -10.3561   0.2176   4.5880   9.5064  10.5379

          k = 0.5000-0.5000-1.8328 ( 14372 PWs)   bands (ev):

   -10.7310 -10.7310 -10.6432 -10.6432 -10.5492 -10.5492 -10.4778 -10.4778
   -10.4387 -10.4387   1.9008   1.9008  11.4183  11.4183

          k = 0.0000 0.0000 0.9164 ( 14381 PWs)   bands (ev):

   -10.7407 -10.6330 -10.6330 -10.6136 -10.5686 -10.5686 -10.5447 -10.4512
   -10.3966 -10.3510   3.2956   7.1435   7.9732   9.4589

          k = 0.7500 0.0000-0.4582 ( 14369 PWs)   bands (ev):

   -10.7050 -10.6627 -10.6001 -10.5908 -10.5562 -10.5396 -10.5287 -10.4921
   -10.4859 -10.4298   3.0228   4.3600   7.2617   8.4574

          k = 0.5000 0.0000 0.0000 ( 14393 PWs)   bands (ev):

   -10.7464 -10.7169 -10.7048 -10.6108 -10.5267 -10.5187 -10.5150 -10.4721
   -10.4698 -10.4010   0.7801   4.3546   7.0799  10.7926

          k = 0.7500-0.7500-1.8328 ( 14406 PWs)   bands (ev):

   -10.7375 -10.7375 -10.6054 -10.6054 -10.5414 -10.5414 -10.4921 -10.4921
   -10.4634 -10.4634   2.4051   2.4051   7.9917   7.9917

          k = 0.5000-0.5000-0.9164 ( 14404 PWs)   bands (ev):

   -10.7133 -10.7133 -10.6429 -10.6429 -10.5355 -10.5355 -10.4419 -10.4419
   -10.4148 -10.4148   4.8061   4.8061   7.2812   7.2812

          k = 0.0000 0.0000-1.8328 ( 14396 PWs)   bands (ev):

   -10.7403 -10.7403 -10.5418 -10.5418 -10.5311 -10.5311 -10.5195 -10.5195
   -10.5069 -10.5069   3.2429   3.2429   6.0120   6.0120

     highest occupied level (ev):    11.4183

!    total energy              =    -325.58649734 Ry
     estimated scf accuracy    <       0.00000002 Ry

     The total energy is the sum of the following terms:
     one-electron contribution =    -107.32550507 Ry
     hartree contribution      =      74.47676875 Ry
     xc contribution           =     -95.22245783 Ry
     ewald contribution        =    -197.51530320 Ry

     convergence has been achieved in   5 iterations

     Writing all to output data dir ./beta-sn-scf/betatin.save/ :
     XML data file, charge density, pseudopotentials, collected wavefunctions

     init_run     :      0.73s CPU      0.81s WALL (       1 calls)
     electrons    :      0.85s CPU      0.93s WALL (       1 calls)

     Called by init_run:
     wfcinit      :      0.06s CPU      0.07s WALL (       1 calls)
     potinit      :      0.02s CPU      0.04s WALL (       1 calls)
     hinit0       :      0.58s CPU      0.60s WALL (       1 calls)

     Called by electrons:
     c_bands      :      0.58s CPU      0.60s WALL (       6 calls)
     sum_band     :      0.15s CPU      0.16s WALL (       6 calls)
     v_of_rho     :      0.08s CPU      0.09s WALL (       6 calls)
     newd         :      0.02s CPU      0.04s WALL (       6 calls)
     mix_rho      :      0.01s CPU      0.01s WALL (       6 calls)

     Called by c_bands:
     init_us_2    :      0.01s CPU      0.01s WALL (      52 calls)
     cegterg      :      0.54s CPU      0.55s WALL (      24 calls)

     Called by *egterg:
     cdiaghg      :      0.03s CPU      0.03s WALL (      93 calls)
     h_psi        :      0.51s CPU      0.53s WALL (     101 calls)
     s_psi        :      0.01s CPU      0.01s WALL (     101 calls)
     g_psi        :      0.00s CPU      0.00s WALL (      73 calls)

     Called by h_psi:
     h_psi:calbec :      0.01s CPU      0.02s WALL (     101 calls)
     vloc_psi     :      0.48s CPU      0.50s WALL (     101 calls)
     add_vuspsi   :      0.01s CPU      0.01s WALL (     101 calls)

     General routines
     calbec       :      0.02s CPU      0.02s WALL (     125 calls)
     fft          :      0.58s CPU      0.59s WALL (      67 calls)
     ffts         :      0.00s CPU      0.00s WALL (       6 calls)
     fftw         :      0.51s CPU      0.53s WALL (    2156 calls)

     Parallel routines

     PWSCF        :      1.85s CPU      2.41s WALL


   This run was terminated on:  16: 1:37   5Feb2026            

=------------------------------------------------------------------------------=
   JOB DONE.
=------------------------------------------------------------------------------=
