
     Program PWSCF v.7.3.1 starts on  4Feb2026 at 11:35:53 

     This program is part of the open-source Quantum ESPRESSO suite
     for quantum simulation of materials; please cite
         "P. Giannozzi et al., J. Phys.:Condens. Matter 21 395502 (2009);
         "P. Giannozzi et al., J. Phys.:Condens. Matter 29 465901 (2017);
         "P. Giannozzi et al., J. Chem. Phys. 152 154105 (2020);
          URL http://www.quantum-espresso.org", 
     in publications or presentations arising from this work. More details at
     http://www.quantum-espresso.org/quote

     Parallel version (MPI), running on   128 processors

     MPI processes distributed on     1 nodes
     241490 MiB available memory on the printing compute node when the environment starts

     Waiting for input...
     Reading input from standard input

     Current dimensions of program PWSCF are:
     Max number of different atomic species (ntypx) = 10
     Max number of k-points (npk) =  40000
     Max angular momentum in pseudopotentials (lmaxx) =  4

     K-points division:     npool     =       4
     R & G space division:  proc/nbgrp/npool/nimage =      32
     Subspace diagonalization in iterative solution of the eigenvalue problem:
     a serial algorithm will be used


     Parallelization info
     --------------------
     sticks:   dense  smooth     PW     G-vecs:    dense   smooth      PW
     Min         123     123     36                 3724     3724     601
     Max         124     124     37                 3726     3726     605
     Sum        3967    3967   1181               119201   119201   19309

     Using Slab Decomposition



     bravais-lattice index     =            7
     lattice parameter (alat)  =      11.0200  a.u.
     unit-cell volume          =     365.0809 (a.u.)^3
     number of atoms/cell      =            2
     number of atomic types    =            1
     number of electrons       =        28.00
     number of Kohn-Sham states=           14
     kinetic-energy cutoff     =     180.0000  Ry
     charge density cutoff     =     720.0000  Ry
     scf convergence threshold =      1.0E-07
     mixing beta               =       0.7000
     number of iterations used =            8  plain     mixing
     Exchange-correlation=  SLA  PW   GGX  GGC
                           (   1   4   2   2   0   0   0)

     celldm(1)=  11.020000  celldm(2)=   0.000000  celldm(3)=   0.545600
     celldm(4)=   0.000000  celldm(5)=   0.000000  celldm(6)=   0.000000

     crystal axes: (cart. coord. in units of alat)
               a(1) = (   0.500000  -0.500000   0.272800 )  
               a(2) = (   0.500000   0.500000   0.272800 )  
               a(3) = (  -0.500000  -0.500000   0.272800 )  

     reciprocal axes: (cart. coord. in units 2 pi/alat)
               b(1) = (  1.000000 -1.000000  0.000000 )  
               b(2) = (  0.000000  1.000000  1.832845 )  
               b(3) = ( -1.000000  0.000000  1.832845 )  


     PseudoPot. # 1 for Sn read from file:
     ./Sn.pw91-n-van.UPF
     MD5 check sum: a38d2a872edd1a4efd76c0a1a38f7031
     Pseudo is Ultrasoft + core correction, Zval = 14.0
     Generated by new atomic code, or converted to UPF format
     Using radial grid of  891 points,  6 beta functions with: 
                l(1) =   0
                l(2) =   0
                l(3) =   1
                l(4) =   1
                l(5) =   2
                l(6) =   2
     Q(r) pseudized with  8 coefficients,  rinner =    1.100   1.100   1.100
                                                       1.100   1.100

     atomic species   valence    mass     pseudopotential
     Sn               14.00   118.70000     Sn( 1.00)

     16 Sym. Ops., with inversion, found (12 have fractional translation)



   Cartesian axes

     site n.     atom                  positions (alat units)
         1        Sn     tau(   1) = (   0.0000000  -0.2500000   0.0682000  )
         2        Sn     tau(   2) = (   0.0000000   0.2500000  -0.0682000  )

     number of k points=    13
                       cart. coord. in units 2pi/alat
        k(    1) = (   0.0000000   0.0000000   0.0000000), wk =   0.0312500
        k(    2) = (  -0.2500000   0.0000000   0.4582111), wk =   0.2500000
        k(    3) = (   0.5000000   0.0000000  -0.9164223), wk =   0.1250000
        k(    4) = (  -0.2500000   0.2500000   0.9164223), wk =   0.2500000
        k(    5) = (   0.5000000   0.2500000  -0.4582111), wk =   0.5000000
        k(    6) = (   0.2500000   0.2500000   0.0000000), wk =   0.1250000
        k(    7) = (   0.5000000  -0.5000000  -1.8328446), wk =   0.0625000
        k(    8) = (   0.0000000   0.0000000   0.9164223), wk =   0.0625000
        k(    9) = (   0.7500000   0.0000000  -0.4582111), wk =   0.2500000
        k(   10) = (   0.5000000   0.0000000   0.0000000), wk =   0.1250000
        k(   11) = (   0.7500000  -0.7500000  -1.8328446), wk =   0.1250000
        k(   12) = (   0.5000000  -0.5000000  -0.9164223), wk =   0.0625000
        k(   13) = (   0.0000000   0.0000000  -1.8328446), wk =   0.0312500

     Dense  grid:   119201 G-vectors     FFT dimensions: (  72,  72,  72)

     Estimated max dynamical RAM per process >       8.23 MB

     Estimated total dynamical RAM >     966.74 MB

     Initial potential from superposition of free atoms

     starting charge      27.9964, renormalised to      28.0000
     Starting wfcs are   18 randomized atomic wfcs

     total cpu time spent up to now is        1.1 secs

     per-process dynamical memory:    14.8 Mb

     Self-consistent Calculation

     iteration #  1     ecut=   180.00 Ry     beta= 0.70
     Davidson diagonalization with overlap
     ethr =  1.00E-02,  avg # of iterations =  2.0

     Threshold (ethr) on eigenvalues was too large:
     Diagonalizing with lowered threshold

     Davidson diagonalization with overlap
     ethr =  2.28E-05,  avg # of iterations =  3.5

     total cpu time spent up to now is        1.4 secs

     total energy              =    -325.58518585 Ry
     estimated scf accuracy    <       0.00678029 Ry

     iteration #  2     ecut=   180.00 Ry     beta= 0.70
     Davidson diagonalization with overlap
     ethr =  2.42E-05,  avg # of iterations =  2.0

     total cpu time spent up to now is        1.6 secs

     total energy              =    -325.58716521 Ry
     estimated scf accuracy    <       0.00045970 Ry

     iteration #  3     ecut=   180.00 Ry     beta= 0.70
     Davidson diagonalization with overlap
     ethr =  1.64E-06,  avg # of iterations =  2.5

     total cpu time spent up to now is        1.7 secs

     total energy              =    -325.58729158 Ry
     estimated scf accuracy    <       0.00003179 Ry

     iteration #  4     ecut=   180.00 Ry     beta= 0.70
     Davidson diagonalization with overlap
     ethr =  1.14E-07,  avg # of iterations =  2.8

     total cpu time spent up to now is        1.8 secs

     total energy              =    -325.58729620 Ry
     estimated scf accuracy    <       0.00000030 Ry

     iteration #  5     ecut=   180.00 Ry     beta= 0.70
     Davidson diagonalization with overlap
     ethr =  1.07E-09,  avg # of iterations =  3.8

     total cpu time spent up to now is        2.0 secs

     End of self-consistent calculation

          k = 0.0000 0.0000 0.0000 ( 14873 PWs)   bands (ev):

   -10.8108 -10.7280 -10.6843 -10.6727 -10.5226 -10.5226 -10.5117 -10.5117
   -10.4198 -10.3078  -0.3470   7.1618   8.8398   8.8398

          k =-0.2500 0.0000 0.4582 ( 14893 PWs)   bands (ev):

   -10.7749 -10.6469 -10.6422 -10.6010 -10.5786 -10.5373 -10.5289 -10.5059
   -10.4408 -10.3423   0.8912   6.5844   9.0440  11.2833

          k = 0.5000 0.0000-0.9164 ( 14912 PWs)   bands (ev):

   -10.7355 -10.6649 -10.6482 -10.6089 -10.5748 -10.5718 -10.4731 -10.4259
   -10.4222 -10.3757   3.8536   5.3959   8.4877   9.1145

          k =-0.2500 0.2500 0.9164 ( 14899 PWs)   bands (ev):

   -10.7493 -10.6616 -10.6184 -10.6014 -10.5995 -10.5489 -10.4902 -10.4708
   -10.3944 -10.3667   3.7389   6.0513   7.1234   9.1085

          k = 0.5000 0.2500-0.4582 ( 14875 PWs)   bands (ev):

   -10.7181 -10.6586 -10.6549 -10.6010 -10.5839 -10.5267 -10.4931 -10.4854
   -10.4682 -10.4039   2.0037   4.1413   9.3956  10.6281

          k = 0.2500 0.2500 0.0000 ( 14895 PWs)   bands (ev):

   -10.7608 -10.7347 -10.6995 -10.6425 -10.5495 -10.5020 -10.5003 -10.4924
   -10.4491 -10.3564   0.2176   4.5880   9.5064  10.5379

          k = 0.5000-0.5000-1.8328 ( 14886 PWs)   bands (ev):

   -10.7312 -10.7312 -10.6434 -10.6434 -10.5494 -10.5494 -10.4781 -10.4781
   -10.4390 -10.4390   1.9008   1.9008  11.4183  11.4183

          k = 0.0000 0.0000 0.9164 ( 14933 PWs)   bands (ev):

   -10.7411 -10.6332 -10.6332 -10.6138 -10.5688 -10.5688 -10.5449 -10.4516
   -10.3968 -10.3512   3.2956   7.1436   7.9733   9.4589

          k = 0.7500 0.0000-0.4582 ( 14909 PWs)   bands (ev):

   -10.7053 -10.6630 -10.6004 -10.5910 -10.5566 -10.5398 -10.5289 -10.4924
   -10.4861 -10.4300   3.0228   4.3601   7.2617   8.4574

          k = 0.5000 0.0000 0.0000 ( 14880 PWs)   bands (ev):

   -10.7466 -10.7170 -10.7050 -10.6110 -10.5269 -10.5189 -10.5152 -10.4723
   -10.4700 -10.4012   0.7802   4.3546   7.0799  10.7927

          k = 0.7500-0.7500-1.8328 ( 14872 PWs)   bands (ev):

   -10.7377 -10.7377 -10.6056 -10.6056 -10.5417 -10.5417 -10.4923 -10.4923
   -10.4636 -10.4636   2.4051   2.4051   7.9917   7.9917

          k = 0.5000-0.5000-0.9164 ( 14876 PWs)   bands (ev):

   -10.7135 -10.7135 -10.6431 -10.6431 -10.5357 -10.5357 -10.4421 -10.4421
   -10.4149 -10.4149   4.8061   4.8061   7.2812   7.2812

          k = 0.0000 0.0000-1.8328 ( 14908 PWs)   bands (ev):

   -10.7405 -10.7405 -10.5420 -10.5420 -10.5314 -10.5314 -10.5197 -10.5197
   -10.5070 -10.5070   3.2429   3.2429   6.0120   6.0120

     highest occupied level (ev):    11.4183

!    total energy              =    -325.58729639 Ry
     estimated scf accuracy    <       0.00000002 Ry

     The total energy is the sum of the following terms:
     one-electron contribution =    -107.32657318 Ry
     hartree contribution      =      74.47713361 Ry
     xc contribution           =     -95.22255363 Ry
     ewald contribution        =    -197.51530320 Ry

     convergence has been achieved in   5 iterations

     Writing all to output data dir ./beta-sn-scf/betatin.save/ :
     XML data file, charge density, pseudopotentials, collected wavefunctions

     init_run     :      0.74s CPU      0.81s WALL (       1 calls)
     electrons    :      0.86s CPU      0.92s WALL (       1 calls)

     Called by init_run:
     wfcinit      :      0.05s CPU      0.07s WALL (       1 calls)
     potinit      :      0.03s CPU      0.04s WALL (       1 calls)
     hinit0       :      0.60s CPU      0.61s WALL (       1 calls)

     Called by electrons:
     c_bands      :      0.58s CPU      0.60s WALL (       6 calls)
     sum_band     :      0.16s CPU      0.16s WALL (       6 calls)
     v_of_rho     :      0.08s CPU      0.09s WALL (       6 calls)
     newd         :      0.03s CPU      0.04s WALL (       6 calls)
     mix_rho      :      0.01s CPU      0.01s WALL (       6 calls)

     Called by c_bands:
     init_us_2    :      0.01s CPU      0.01s WALL (      52 calls)
     cegterg      :      0.54s CPU      0.55s WALL (      24 calls)

     Called by *egterg:
     cdiaghg      :      0.03s CPU      0.03s WALL (      92 calls)
     h_psi        :      0.50s CPU      0.52s WALL (     100 calls)
     s_psi        :      0.01s CPU      0.01s WALL (     100 calls)
     g_psi        :      0.00s CPU      0.00s WALL (      72 calls)

     Called by h_psi:
     h_psi:calbec :      0.01s CPU      0.02s WALL (     100 calls)
     vloc_psi     :      0.48s CPU      0.49s WALL (     100 calls)
     add_vuspsi   :      0.01s CPU      0.01s WALL (     100 calls)

     General routines
     calbec       :      0.02s CPU      0.02s WALL (     124 calls)
     fft          :      0.59s CPU      0.59s WALL (      67 calls)
     ffts         :      0.00s CPU      0.00s WALL (       6 calls)
     fftw         :      0.52s CPU      0.53s WALL (    2162 calls)

     Parallel routines

     PWSCF        :      1.88s CPU      2.17s WALL


   This run was terminated on:  11:35:55   4Feb2026            

=------------------------------------------------------------------------------=
   JOB DONE.
=------------------------------------------------------------------------------=
