
     Program PWSCF v.7.3.1 starts on  5Feb2026 at 16: 2:30 

     This program is part of the open-source Quantum ESPRESSO suite
     for quantum simulation of materials; please cite
         "P. Giannozzi et al., J. Phys.:Condens. Matter 21 395502 (2009);
         "P. Giannozzi et al., J. Phys.:Condens. Matter 29 465901 (2017);
         "P. Giannozzi et al., J. Chem. Phys. 152 154105 (2020);
          URL http://www.quantum-espresso.org", 
     in publications or presentations arising from this work. More details at
     http://www.quantum-espresso.org/quote

     Parallel version (MPI), running on   128 processors

     MPI processes distributed on     1 nodes
     242432 MiB available memory on the printing compute node when the environment starts

     Waiting for input...
     Reading input from standard input

     Current dimensions of program PWSCF are:
     Max number of different atomic species (ntypx) = 10
     Max number of k-points (npk) =  40000
     Max angular momentum in pseudopotentials (lmaxx) =  4

     K-points division:     npool     =       4
     R & G space division:  proc/nbgrp/npool/nimage =      32
     Subspace diagonalization in iterative solution of the eigenvalue problem:
     a serial algorithm will be used


     Parallelization info
     --------------------
     sticks:   dense  smooth     PW     G-vecs:    dense   smooth      PW
     Min         128     128     37                 3908     3908     629
     Max         129     129     38                 3911     3911     632
     Sum        4097    4097   1207               125083   125083   20179

     Using Slab Decomposition



     bravais-lattice index     =            7
     lattice parameter (alat)  =      11.0200  a.u.
     unit-cell volume          =     365.0809 (a.u.)^3
     number of atoms/cell      =            2
     number of atomic types    =            1
     number of electrons       =        28.00
     number of Kohn-Sham states=           14
     kinetic-energy cutoff     =     186.0000  Ry
     charge density cutoff     =     744.0000  Ry
     scf convergence threshold =      1.0E-07
     mixing beta               =       0.7000
     number of iterations used =            8  plain     mixing
     Exchange-correlation=  SLA  PW   GGX  GGC
                           (   1   4   2   2   0   0   0)

     celldm(1)=  11.020000  celldm(2)=   0.000000  celldm(3)=   0.545600
     celldm(4)=   0.000000  celldm(5)=   0.000000  celldm(6)=   0.000000

     crystal axes: (cart. coord. in units of alat)
               a(1) = (   0.500000  -0.500000   0.272800 )  
               a(2) = (   0.500000   0.500000   0.272800 )  
               a(3) = (  -0.500000  -0.500000   0.272800 )  

     reciprocal axes: (cart. coord. in units 2 pi/alat)
               b(1) = (  1.000000 -1.000000  0.000000 )  
               b(2) = (  0.000000  1.000000  1.832845 )  
               b(3) = ( -1.000000  0.000000  1.832845 )  


     PseudoPot. # 1 for Sn read from file:
     ./Sn.pw91-n-van.UPF
     MD5 check sum: a38d2a872edd1a4efd76c0a1a38f7031
     Pseudo is Ultrasoft + core correction, Zval = 14.0
     Generated by new atomic code, or converted to UPF format
     Using radial grid of  891 points,  6 beta functions with: 
                l(1) =   0
                l(2) =   0
                l(3) =   1
                l(4) =   1
                l(5) =   2
                l(6) =   2
     Q(r) pseudized with  8 coefficients,  rinner =    1.100   1.100   1.100
                                                       1.100   1.100

     atomic species   valence    mass     pseudopotential
     Sn               14.00   118.70000     Sn( 1.00)

     16 Sym. Ops., with inversion, found (12 have fractional translation)



   Cartesian axes

     site n.     atom                  positions (alat units)
         1        Sn     tau(   1) = (   0.0000000  -0.2500000   0.0682000  )
         2        Sn     tau(   2) = (   0.0000000   0.2500000  -0.0682000  )

     number of k points=    13
                       cart. coord. in units 2pi/alat
        k(    1) = (   0.0000000   0.0000000   0.0000000), wk =   0.0312500
        k(    2) = (  -0.2500000   0.0000000   0.4582111), wk =   0.2500000
        k(    3) = (   0.5000000   0.0000000  -0.9164223), wk =   0.1250000
        k(    4) = (  -0.2500000   0.2500000   0.9164223), wk =   0.2500000
        k(    5) = (   0.5000000   0.2500000  -0.4582111), wk =   0.5000000
        k(    6) = (   0.2500000   0.2500000   0.0000000), wk =   0.1250000
        k(    7) = (   0.5000000  -0.5000000  -1.8328446), wk =   0.0625000
        k(    8) = (   0.0000000   0.0000000   0.9164223), wk =   0.0625000
        k(    9) = (   0.7500000   0.0000000  -0.4582111), wk =   0.2500000
        k(   10) = (   0.5000000   0.0000000   0.0000000), wk =   0.1250000
        k(   11) = (   0.7500000  -0.7500000  -1.8328446), wk =   0.1250000
        k(   12) = (   0.5000000  -0.5000000  -0.9164223), wk =   0.0625000
        k(   13) = (   0.0000000   0.0000000  -1.8328446), wk =   0.0312500

     Dense  grid:   125083 G-vectors     FFT dimensions: (  80,  80,  80)

     Estimated max dynamical RAM per process >       8.77 MB

     Estimated total dynamical RAM >       1.01 GB

     Initial potential from superposition of free atoms

     starting charge      27.9964, renormalised to      28.0000
     Starting wfcs are   18 randomized atomic wfcs

     total cpu time spent up to now is        1.1 secs

     per-process dynamical memory:    13.8 Mb

     Self-consistent Calculation

     iteration #  1     ecut=   186.00 Ry     beta= 0.70
     Davidson diagonalization with overlap
     ethr =  1.00E-02,  avg # of iterations =  2.0

     Threshold (ethr) on eigenvalues was too large:
     Diagonalizing with lowered threshold

     Davidson diagonalization with overlap
     ethr =  2.27E-05,  avg # of iterations =  3.5

     total cpu time spent up to now is        1.4 secs

     total energy              =    -325.58569306 Ry
     estimated scf accuracy    <       0.00679277 Ry

     iteration #  2     ecut=   186.00 Ry     beta= 0.70
     Davidson diagonalization with overlap
     ethr =  2.43E-05,  avg # of iterations =  2.0

     total cpu time spent up to now is        1.6 secs

     total energy              =    -325.58815361 Ry
     estimated scf accuracy    <       0.00043631 Ry

     iteration #  3     ecut=   186.00 Ry     beta= 0.70
     Davidson diagonalization with overlap
     ethr =  1.56E-06,  avg # of iterations =  2.4

     total cpu time spent up to now is        1.8 secs

     total energy              =    -325.58829788 Ry
     estimated scf accuracy    <       0.00002933 Ry

     iteration #  4     ecut=   186.00 Ry     beta= 0.70
     Davidson diagonalization with overlap
     ethr =  1.05E-07,  avg # of iterations =  3.2

     total cpu time spent up to now is        1.9 secs

     total energy              =    -325.58830291 Ry
     estimated scf accuracy    <       0.00000038 Ry

     iteration #  5     ecut=   186.00 Ry     beta= 0.70
     Davidson diagonalization with overlap
     ethr =  1.37E-09,  avg # of iterations =  3.5

     total cpu time spent up to now is        2.1 secs

     End of self-consistent calculation

          k = 0.0000 0.0000 0.0000 ( 15577 PWs)   bands (ev):

   -10.8111 -10.7281 -10.6845 -10.6728 -10.5230 -10.5230 -10.5118 -10.5118
   -10.4200 -10.3079  -0.3470   7.1619   8.8398   8.8398

          k =-0.2500 0.0000 0.4582 ( 15639 PWs)   bands (ev):

   -10.7752 -10.6473 -10.6425 -10.6013 -10.5789 -10.5375 -10.5291 -10.5062
   -10.4411 -10.3425   0.8913   6.5844   9.0440  11.2834

          k = 0.5000 0.0000-0.9164 ( 15662 PWs)   bands (ev):

   -10.7358 -10.6653 -10.6485 -10.6090 -10.5751 -10.5720 -10.4735 -10.4262
   -10.4225 -10.3759   3.8536   5.3959   8.4878   9.1145

          k =-0.2500 0.2500 0.9164 ( 15655 PWs)   bands (ev):

   -10.7497 -10.6619 -10.6186 -10.6017 -10.5997 -10.5492 -10.4904 -10.4711
   -10.3946 -10.3669   3.7390   6.0513   7.1234   9.1086

          k = 0.5000 0.2500-0.4582 ( 15641 PWs)   bands (ev):

   -10.7184 -10.6589 -10.6552 -10.6013 -10.5842 -10.5270 -10.4934 -10.4857
   -10.4685 -10.4041   2.0037   4.1414   9.3956  10.6281

          k = 0.2500 0.2500 0.0000 ( 15614 PWs)   bands (ev):

   -10.7611 -10.7350 -10.6997 -10.6428 -10.5497 -10.5023 -10.5006 -10.4926
   -10.4494 -10.3565   0.2177   4.5881   9.5064  10.5379

          k = 0.5000-0.5000-1.8328 ( 15598 PWs)   bands (ev):

   -10.7314 -10.7314 -10.6437 -10.6437 -10.5497 -10.5497 -10.4783 -10.4783
   -10.4392 -10.4392   1.9008   1.9008  11.4183  11.4183

          k = 0.0000 0.0000 0.9164 ( 15645 PWs)   bands (ev):

   -10.7413 -10.6335 -10.6335 -10.6141 -10.5690 -10.5690 -10.5452 -10.4518
   -10.3970 -10.3513   3.2957   7.1436   7.9733   9.4589

          k = 0.7500 0.0000-0.4582 ( 15644 PWs)   bands (ev):

   -10.7056 -10.6633 -10.6006 -10.5913 -10.5568 -10.5401 -10.5292 -10.4927
   -10.4864 -10.4302   3.0228   4.3601   7.2617   8.4574

          k = 0.5000 0.0000 0.0000 ( 15636 PWs)   bands (ev):

   -10.7469 -10.7172 -10.7053 -10.6113 -10.5271 -10.5193 -10.5154 -10.4726
   -10.4704 -10.4014   0.7802   4.3547   7.0799  10.7926

          k = 0.7500-0.7500-1.8328 ( 15660 PWs)   bands (ev):

   -10.7379 -10.7379 -10.6059 -10.6059 -10.5420 -10.5420 -10.4925 -10.4925
   -10.4639 -10.4639   2.4052   2.4052   7.9917   7.9917

          k = 0.5000-0.5000-0.9164 ( 15628 PWs)   bands (ev):

   -10.7139 -10.7139 -10.6434 -10.6434 -10.5360 -10.5360 -10.4423 -10.4423
   -10.4152 -10.4152   4.8062   4.8062   7.2813   7.2813

          k = 0.0000 0.0000-1.8328 ( 15662 PWs)   bands (ev):

   -10.7407 -10.7407 -10.5421 -10.5421 -10.5318 -10.5318 -10.5201 -10.5201
   -10.5073 -10.5073   3.2430   3.2430   6.0120   6.0120

     highest occupied level (ev):    11.4183

!    total energy              =    -325.58830305 Ry
     estimated scf accuracy    <       0.00000002 Ry

     The total energy is the sum of the following terms:
     one-electron contribution =    -107.32794771 Ry
     hartree contribution      =      74.47763126 Ry
     xc contribution           =     -95.22268339 Ry
     ewald contribution        =    -197.51530320 Ry

     convergence has been achieved in   5 iterations

     Writing all to output data dir ./beta-sn-scf/betatin.save/ :
     XML data file, charge density, pseudopotentials, collected wavefunctions

     init_run     :      0.72s CPU      0.81s WALL (       1 calls)
     electrons    :      0.92s CPU      1.04s WALL (       1 calls)

     Called by init_run:
     wfcinit      :      0.06s CPU      0.08s WALL (       1 calls)
     potinit      :      0.02s CPU      0.04s WALL (       1 calls)
     hinit0       :      0.57s CPU      0.60s WALL (       1 calls)

     Called by electrons:
     c_bands      :      0.62s CPU      0.67s WALL (       6 calls)
     sum_band     :      0.17s CPU      0.19s WALL (       6 calls)
     v_of_rho     :      0.09s CPU      0.11s WALL (       6 calls)
     newd         :      0.03s CPU      0.04s WALL (       6 calls)
     mix_rho      :      0.01s CPU      0.01s WALL (       6 calls)

     Called by c_bands:
     init_us_2    :      0.01s CPU      0.01s WALL (      52 calls)
     cegterg      :      0.58s CPU      0.61s WALL (      24 calls)

     Called by *egterg:
     cdiaghg      :      0.03s CPU      0.03s WALL (      91 calls)
     h_psi        :      0.55s CPU      0.59s WALL (      99 calls)
     s_psi        :      0.01s CPU      0.01s WALL (      99 calls)
     g_psi        :      0.00s CPU      0.00s WALL (      71 calls)

     Called by h_psi:
     h_psi:calbec :      0.02s CPU      0.02s WALL (      99 calls)
     vloc_psi     :      0.52s CPU      0.56s WALL (      99 calls)
     add_vuspsi   :      0.01s CPU      0.01s WALL (      99 calls)

     General routines
     calbec       :      0.02s CPU      0.02s WALL (     123 calls)
     fft          :      0.58s CPU      0.59s WALL (      67 calls)
     ffts         :      0.00s CPU      0.00s WALL (       6 calls)
     fftw         :      0.56s CPU      0.60s WALL (    2156 calls)

     Parallel routines

     PWSCF        :      1.89s CPU      2.30s WALL


   This run was terminated on:  16: 2:32   5Feb2026            

=------------------------------------------------------------------------------=
   JOB DONE.
=------------------------------------------------------------------------------=
