
     Program PWSCF v.7.3.1 starts on  5Feb2026 at 16: 2:40 

     This program is part of the open-source Quantum ESPRESSO suite
     for quantum simulation of materials; please cite
         "P. Giannozzi et al., J. Phys.:Condens. Matter 21 395502 (2009);
         "P. Giannozzi et al., J. Phys.:Condens. Matter 29 465901 (2017);
         "P. Giannozzi et al., J. Chem. Phys. 152 154105 (2020);
          URL http://www.quantum-espresso.org", 
     in publications or presentations arising from this work. More details at
     http://www.quantum-espresso.org/quote

     Parallel version (MPI), running on   128 processors

     MPI processes distributed on     1 nodes
     242262 MiB available memory on the printing compute node when the environment starts

     Waiting for input...
     Reading input from standard input

     Current dimensions of program PWSCF are:
     Max number of different atomic species (ntypx) = 10
     Max number of k-points (npk) =  40000
     Max angular momentum in pseudopotentials (lmaxx) =  4

     K-points division:     npool     =       4
     R & G space division:  proc/nbgrp/npool/nimage =      32
     Subspace diagonalization in iterative solution of the eigenvalue problem:
     a serial algorithm will be used


     Parallelization info
     --------------------
     sticks:   dense  smooth     PW     G-vecs:    dense   smooth      PW
     Min         129     129     38                 3974     3974     638
     Max         130     130     39                 3976     3976     641
     Sum        4147    4147   1219               127187   127187   20467

     Using Slab Decomposition



     bravais-lattice index     =            7
     lattice parameter (alat)  =      11.0200  a.u.
     unit-cell volume          =     365.0809 (a.u.)^3
     number of atoms/cell      =            2
     number of atomic types    =            1
     number of electrons       =        28.00
     number of Kohn-Sham states=           14
     kinetic-energy cutoff     =     188.0000  Ry
     charge density cutoff     =     752.0000  Ry
     scf convergence threshold =      1.0E-07
     mixing beta               =       0.7000
     number of iterations used =            8  plain     mixing
     Exchange-correlation=  SLA  PW   GGX  GGC
                           (   1   4   2   2   0   0   0)

     celldm(1)=  11.020000  celldm(2)=   0.000000  celldm(3)=   0.545600
     celldm(4)=   0.000000  celldm(5)=   0.000000  celldm(6)=   0.000000

     crystal axes: (cart. coord. in units of alat)
               a(1) = (   0.500000  -0.500000   0.272800 )  
               a(2) = (   0.500000   0.500000   0.272800 )  
               a(3) = (  -0.500000  -0.500000   0.272800 )  

     reciprocal axes: (cart. coord. in units 2 pi/alat)
               b(1) = (  1.000000 -1.000000  0.000000 )  
               b(2) = (  0.000000  1.000000  1.832845 )  
               b(3) = ( -1.000000  0.000000  1.832845 )  


     PseudoPot. # 1 for Sn read from file:
     ./Sn.pw91-n-van.UPF
     MD5 check sum: a38d2a872edd1a4efd76c0a1a38f7031
     Pseudo is Ultrasoft + core correction, Zval = 14.0
     Generated by new atomic code, or converted to UPF format
     Using radial grid of  891 points,  6 beta functions with: 
                l(1) =   0
                l(2) =   0
                l(3) =   1
                l(4) =   1
                l(5) =   2
                l(6) =   2
     Q(r) pseudized with  8 coefficients,  rinner =    1.100   1.100   1.100
                                                       1.100   1.100

     atomic species   valence    mass     pseudopotential
     Sn               14.00   118.70000     Sn( 1.00)

     16 Sym. Ops., with inversion, found (12 have fractional translation)



   Cartesian axes

     site n.     atom                  positions (alat units)
         1        Sn     tau(   1) = (   0.0000000  -0.2500000   0.0682000  )
         2        Sn     tau(   2) = (   0.0000000   0.2500000  -0.0682000  )

     number of k points=    13
                       cart. coord. in units 2pi/alat
        k(    1) = (   0.0000000   0.0000000   0.0000000), wk =   0.0312500
        k(    2) = (  -0.2500000   0.0000000   0.4582111), wk =   0.2500000
        k(    3) = (   0.5000000   0.0000000  -0.9164223), wk =   0.1250000
        k(    4) = (  -0.2500000   0.2500000   0.9164223), wk =   0.2500000
        k(    5) = (   0.5000000   0.2500000  -0.4582111), wk =   0.5000000
        k(    6) = (   0.2500000   0.2500000   0.0000000), wk =   0.1250000
        k(    7) = (   0.5000000  -0.5000000  -1.8328446), wk =   0.0625000
        k(    8) = (   0.0000000   0.0000000   0.9164223), wk =   0.0625000
        k(    9) = (   0.7500000   0.0000000  -0.4582111), wk =   0.2500000
        k(   10) = (   0.5000000   0.0000000   0.0000000), wk =   0.1250000
        k(   11) = (   0.7500000  -0.7500000  -1.8328446), wk =   0.1250000
        k(   12) = (   0.5000000  -0.5000000  -0.9164223), wk =   0.0625000
        k(   13) = (   0.0000000   0.0000000  -1.8328446), wk =   0.0312500

     Dense  grid:   127187 G-vectors     FFT dimensions: (  80,  80,  80)

     Estimated max dynamical RAM per process >       8.87 MB

     Estimated total dynamical RAM >       1.02 GB

     Initial potential from superposition of free atoms

     starting charge      27.9964, renormalised to      28.0000
     Starting wfcs are   18 randomized atomic wfcs

     total cpu time spent up to now is        1.1 secs

     per-process dynamical memory:    13.8 Mb

     Self-consistent Calculation

     iteration #  1     ecut=   188.00 Ry     beta= 0.70
     Davidson diagonalization with overlap
     ethr =  1.00E-02,  avg # of iterations =  2.0

     Threshold (ethr) on eigenvalues was too large:
     Diagonalizing with lowered threshold

     Davidson diagonalization with overlap
     ethr =  2.28E-05,  avg # of iterations =  3.7

     total cpu time spent up to now is        1.5 secs

     total energy              =    -325.58582171 Ry
     estimated scf accuracy    <       0.00683159 Ry

     iteration #  2     ecut=   188.00 Ry     beta= 0.70
     Davidson diagonalization with overlap
     ethr =  2.44E-05,  avg # of iterations =  2.0

     total cpu time spent up to now is        1.6 secs

     total energy              =    -325.58839510 Ry
     estimated scf accuracy    <       0.00043130 Ry

     iteration #  3     ecut=   188.00 Ry     beta= 0.70
     Davidson diagonalization with overlap
     ethr =  1.54E-06,  avg # of iterations =  2.5

     total cpu time spent up to now is        1.8 secs

     total energy              =    -325.58855676 Ry
     estimated scf accuracy    <       0.00003051 Ry

     iteration #  4     ecut=   188.00 Ry     beta= 0.70
     Davidson diagonalization with overlap
     ethr =  1.09E-07,  avg # of iterations =  2.8

     total cpu time spent up to now is        1.9 secs

     total energy              =    -325.58856252 Ry
     estimated scf accuracy    <       0.00000051 Ry

     iteration #  5     ecut=   188.00 Ry     beta= 0.70
     Davidson diagonalization with overlap
     ethr =  1.81E-09,  avg # of iterations =  3.6

     total cpu time spent up to now is        2.1 secs

     End of self-consistent calculation

          k = 0.0000 0.0000 0.0000 ( 15905 PWs)   bands (ev):

   -10.8113 -10.7282 -10.6847 -10.6730 -10.5232 -10.5232 -10.5120 -10.5120
   -10.4202 -10.3081  -0.3470   7.1619   8.8398   8.8398

          k =-0.2500 0.0000 0.4582 ( 15893 PWs)   bands (ev):

   -10.7753 -10.6474 -10.6426 -10.6014 -10.5790 -10.5377 -10.5292 -10.5062
   -10.4412 -10.3426   0.8912   6.5844   9.0439  11.2834

          k = 0.5000 0.0000-0.9164 ( 15910 PWs)   bands (ev):

   -10.7359 -10.6654 -10.6486 -10.6092 -10.5752 -10.5721 -10.4736 -10.4263
   -10.4226 -10.3761   3.8536   5.3959   8.4878   9.1146

          k =-0.2500 0.2500 0.9164 ( 15894 PWs)   bands (ev):

   -10.7498 -10.6620 -10.6187 -10.6018 -10.5998 -10.5493 -10.4905 -10.4712
   -10.3947 -10.3670   3.7389   6.0513   7.1234   9.1086

          k = 0.5000 0.2500-0.4582 ( 15902 PWs)   bands (ev):

   -10.7186 -10.6590 -10.6553 -10.6014 -10.5843 -10.5271 -10.4935 -10.4858
   -10.4686 -10.4043   2.0037   4.1413   9.3955  10.6281

          k = 0.2500 0.2500 0.0000 ( 15874 PWs)   bands (ev):

   -10.7613 -10.7350 -10.6998 -10.6429 -10.5498 -10.5023 -10.5007 -10.4927
   -10.4495 -10.3566   0.2177   4.5881   9.5064  10.5379

          k = 0.5000-0.5000-1.8328 ( 15874 PWs)   bands (ev):

   -10.7315 -10.7315 -10.6438 -10.6438 -10.5498 -10.5498 -10.4784 -10.4784
   -10.4394 -10.4394   1.9008   1.9008  11.4183  11.4183

          k = 0.0000 0.0000 0.9164 ( 15885 PWs)   bands (ev):

   -10.7415 -10.6336 -10.6336 -10.6142 -10.5691 -10.5691 -10.5453 -10.4519
   -10.3972 -10.3515   3.2957   7.1436   7.9733   9.4589

          k = 0.7500 0.0000-0.4582 ( 15885 PWs)   bands (ev):

   -10.7057 -10.6634 -10.6007 -10.5914 -10.5570 -10.5402 -10.5293 -10.4928
   -10.4865 -10.4303   3.0228   4.3601   7.2617   8.4574

          k = 0.5000 0.0000 0.0000 ( 15890 PWs)   bands (ev):

   -10.7470 -10.7174 -10.7054 -10.6115 -10.5272 -10.5194 -10.5155 -10.4727
   -10.4705 -10.4015   0.7802   4.3547   7.0798  10.7926

          k = 0.7500-0.7500-1.8328 ( 15882 PWs)   bands (ev):

   -10.7380 -10.7380 -10.6060 -10.6060 -10.5421 -10.5421 -10.4926 -10.4926
   -10.4640 -10.4640   2.4052   2.4052   7.9917   7.9917

          k = 0.5000-0.5000-0.9164 ( 15900 PWs)   bands (ev):

   -10.7140 -10.7140 -10.6435 -10.6435 -10.5361 -10.5361 -10.4425 -10.4425
   -10.4153 -10.4153   4.8061   4.8061   7.2813   7.2813

          k = 0.0000 0.0000-1.8328 ( 15894 PWs)   bands (ev):

   -10.7408 -10.7408 -10.5422 -10.5422 -10.5319 -10.5319 -10.5202 -10.5202
   -10.5074 -10.5074   3.2430   3.2430   6.0120   6.0120

     highest occupied level (ev):    11.4183

!    total energy              =    -325.58856273 Ry
     estimated scf accuracy    <       0.00000003 Ry

     The total energy is the sum of the following terms:
     one-electron contribution =    -107.32834813 Ry
     hartree contribution      =      74.47781672 Ry
     xc contribution           =     -95.22272813 Ry
     ewald contribution        =    -197.51530320 Ry

     convergence has been achieved in   5 iterations

     Writing all to output data dir ./beta-sn-scf/betatin.save/ :
     XML data file, charge density, pseudopotentials, collected wavefunctions

     init_run     :      0.73s CPU      0.81s WALL (       1 calls)
     electrons    :      0.97s CPU      1.05s WALL (       1 calls)

     Called by init_run:
     wfcinit      :      0.05s CPU      0.08s WALL (       1 calls)
     potinit      :      0.03s CPU      0.05s WALL (       1 calls)
     hinit0       :      0.57s CPU      0.58s WALL (       1 calls)

     Called by electrons:
     c_bands      :      0.65s CPU      0.67s WALL (       6 calls)
     sum_band     :      0.17s CPU      0.19s WALL (       6 calls)
     v_of_rho     :      0.09s CPU      0.11s WALL (       6 calls)
     newd         :      0.03s CPU      0.04s WALL (       6 calls)
     mix_rho      :      0.01s CPU      0.01s WALL (       6 calls)

     Called by c_bands:
     init_us_2    :      0.01s CPU      0.01s WALL (      52 calls)
     cegterg      :      0.60s CPU      0.62s WALL (      24 calls)

     Called by *egterg:
     cdiaghg      :      0.03s CPU      0.03s WALL (      90 calls)
     h_psi        :      0.57s CPU      0.59s WALL (      98 calls)
     s_psi        :      0.01s CPU      0.01s WALL (      98 calls)
     g_psi        :      0.00s CPU      0.00s WALL (      70 calls)

     Called by h_psi:
     h_psi:calbec :      0.01s CPU      0.02s WALL (      98 calls)
     vloc_psi     :      0.54s CPU      0.56s WALL (      98 calls)
     add_vuspsi   :      0.01s CPU      0.01s WALL (      98 calls)

     General routines
     calbec       :      0.02s CPU      0.02s WALL (     122 calls)
     fft          :      0.58s CPU      0.59s WALL (      67 calls)
     ffts         :      0.00s CPU      0.00s WALL (       6 calls)
     fftw         :      0.58s CPU      0.60s WALL (    2154 calls)

     Parallel routines

     PWSCF        :      1.94s CPU      2.29s WALL


   This run was terminated on:  16: 2:42   5Feb2026            

=------------------------------------------------------------------------------=
   JOB DONE.
=------------------------------------------------------------------------------=
