
     Program PWSCF v.7.3.1 starts on  5Feb2026 at 16: 3:43 

     This program is part of the open-source Quantum ESPRESSO suite
     for quantum simulation of materials; please cite
         "P. Giannozzi et al., J. Phys.:Condens. Matter 21 395502 (2009);
         "P. Giannozzi et al., J. Phys.:Condens. Matter 29 465901 (2017);
         "P. Giannozzi et al., J. Chem. Phys. 152 154105 (2020);
          URL http://www.quantum-espresso.org", 
     in publications or presentations arising from this work. More details at
     http://www.quantum-espresso.org/quote

     Parallel version (MPI), running on   128 processors

     MPI processes distributed on     1 nodes
     242375 MiB available memory on the printing compute node when the environment starts

     Waiting for input...
     Reading input from standard input

     Current dimensions of program PWSCF are:
     Max number of different atomic species (ntypx) = 10
     Max number of k-points (npk) =  40000
     Max angular momentum in pseudopotentials (lmaxx) =  4

     K-points division:     npool     =       4
     R & G space division:  proc/nbgrp/npool/nimage =      32
     Subspace diagonalization in iterative solution of the eigenvalue problem:
     a serial algorithm will be used


     Parallelization info
     --------------------
     sticks:   dense  smooth     PW     G-vecs:    dense   smooth      PW
     Min         134     134     40                 4226     4226     677
     Max         135     135     41                 4229     4229     678
     Sum        4319    4319   1281               135291   135291   21675

     Using Slab Decomposition



     bravais-lattice index     =            7
     lattice parameter (alat)  =      11.0200  a.u.
     unit-cell volume          =     365.0809 (a.u.)^3
     number of atoms/cell      =            2
     number of atomic types    =            1
     number of electrons       =        28.00
     number of Kohn-Sham states=           14
     kinetic-energy cutoff     =     196.0000  Ry
     charge density cutoff     =     784.0000  Ry
     scf convergence threshold =      1.0E-07
     mixing beta               =       0.7000
     number of iterations used =            8  plain     mixing
     Exchange-correlation=  SLA  PW   GGX  GGC
                           (   1   4   2   2   0   0   0)

     celldm(1)=  11.020000  celldm(2)=   0.000000  celldm(3)=   0.545600
     celldm(4)=   0.000000  celldm(5)=   0.000000  celldm(6)=   0.000000

     crystal axes: (cart. coord. in units of alat)
               a(1) = (   0.500000  -0.500000   0.272800 )  
               a(2) = (   0.500000   0.500000   0.272800 )  
               a(3) = (  -0.500000  -0.500000   0.272800 )  

     reciprocal axes: (cart. coord. in units 2 pi/alat)
               b(1) = (  1.000000 -1.000000  0.000000 )  
               b(2) = (  0.000000  1.000000  1.832845 )  
               b(3) = ( -1.000000  0.000000  1.832845 )  


     PseudoPot. # 1 for Sn read from file:
     ./Sn.pw91-n-van.UPF
     MD5 check sum: a38d2a872edd1a4efd76c0a1a38f7031
     Pseudo is Ultrasoft + core correction, Zval = 14.0
     Generated by new atomic code, or converted to UPF format
     Using radial grid of  891 points,  6 beta functions with: 
                l(1) =   0
                l(2) =   0
                l(3) =   1
                l(4) =   1
                l(5) =   2
                l(6) =   2
     Q(r) pseudized with  8 coefficients,  rinner =    1.100   1.100   1.100
                                                       1.100   1.100

     atomic species   valence    mass     pseudopotential
     Sn               14.00   118.70000     Sn( 1.00)

     16 Sym. Ops., with inversion, found (12 have fractional translation)



   Cartesian axes

     site n.     atom                  positions (alat units)
         1        Sn     tau(   1) = (   0.0000000  -0.2500000   0.0682000  )
         2        Sn     tau(   2) = (   0.0000000   0.2500000  -0.0682000  )

     number of k points=    13
                       cart. coord. in units 2pi/alat
        k(    1) = (   0.0000000   0.0000000   0.0000000), wk =   0.0312500
        k(    2) = (  -0.2500000   0.0000000   0.4582111), wk =   0.2500000
        k(    3) = (   0.5000000   0.0000000  -0.9164223), wk =   0.1250000
        k(    4) = (  -0.2500000   0.2500000   0.9164223), wk =   0.2500000
        k(    5) = (   0.5000000   0.2500000  -0.4582111), wk =   0.5000000
        k(    6) = (   0.2500000   0.2500000   0.0000000), wk =   0.1250000
        k(    7) = (   0.5000000  -0.5000000  -1.8328446), wk =   0.0625000
        k(    8) = (   0.0000000   0.0000000   0.9164223), wk =   0.0625000
        k(    9) = (   0.7500000   0.0000000  -0.4582111), wk =   0.2500000
        k(   10) = (   0.5000000   0.0000000   0.0000000), wk =   0.1250000
        k(   11) = (   0.7500000  -0.7500000  -1.8328446), wk =   0.1250000
        k(   12) = (   0.5000000  -0.5000000  -0.9164223), wk =   0.0625000
        k(   13) = (   0.0000000   0.0000000  -1.8328446), wk =   0.0312500

     Dense  grid:   135291 G-vectors     FFT dimensions: (  80,  80,  80)

     Estimated max dynamical RAM per process >       9.26 MB

     Estimated total dynamical RAM >       1.06 GB

     Initial potential from superposition of free atoms

     starting charge      27.9964, renormalised to      28.0000
     Starting wfcs are   18 randomized atomic wfcs

     total cpu time spent up to now is        1.1 secs

     per-process dynamical memory:    13.9 Mb

     Self-consistent Calculation

     iteration #  1     ecut=   196.00 Ry     beta= 0.70
     Davidson diagonalization with overlap
     ethr =  1.00E-02,  avg # of iterations =  2.0

     Threshold (ethr) on eigenvalues was too large:
     Diagonalizing with lowered threshold

     Davidson diagonalization with overlap
     ethr =  2.26E-05,  avg # of iterations =  3.7

     total cpu time spent up to now is        1.5 secs

     total energy              =    -325.58571716 Ry
     estimated scf accuracy    <       0.00684780 Ry

     iteration #  2     ecut=   196.00 Ry     beta= 0.70
     Davidson diagonalization with overlap
     ethr =  2.45E-05,  avg # of iterations =  2.0

     total cpu time spent up to now is        1.6 secs

     total energy              =    -325.58899595 Ry
     estimated scf accuracy    <       0.00040962 Ry

     iteration #  3     ecut=   196.00 Ry     beta= 0.70
     Davidson diagonalization with overlap
     ethr =  1.46E-06,  avg # of iterations =  2.6

     total cpu time spent up to now is        1.8 secs

     total energy              =    -325.58918694 Ry
     estimated scf accuracy    <       0.00003050 Ry

     iteration #  4     ecut=   196.00 Ry     beta= 0.70
     Davidson diagonalization with overlap
     ethr =  1.09E-07,  avg # of iterations =  3.0

     total cpu time spent up to now is        2.0 secs

     total energy              =    -325.58919386 Ry
     estimated scf accuracy    <       0.00000070 Ry

     iteration #  5     ecut=   196.00 Ry     beta= 0.70
     Davidson diagonalization with overlap
     ethr =  2.50E-09,  avg # of iterations =  3.6

     total cpu time spent up to now is        2.1 secs

     End of self-consistent calculation

          k = 0.0000 0.0000 0.0000 ( 16913 PWs)   bands (ev):

   -10.8115 -10.7285 -10.6850 -10.6732 -10.5233 -10.5233 -10.5122 -10.5122
   -10.4206 -10.3084  -0.3470   7.1620   8.8397   8.8397

          k =-0.2500 0.0000 0.4582 ( 16907 PWs)   bands (ev):

   -10.7756 -10.6477 -10.6428 -10.6016 -10.5791 -10.5379 -10.5294 -10.5065
   -10.4416 -10.3429   0.8912   6.5845   9.0439  11.2834

          k = 0.5000 0.0000-0.9164 ( 16900 PWs)   bands (ev):

   -10.7362 -10.6656 -10.6488 -10.6094 -10.5755 -10.5723 -10.4739 -10.4265
   -10.4227 -10.3763   3.8535   5.3959   8.4879   9.1146

          k =-0.2500 0.2500 0.9164 ( 16907 PWs)   bands (ev):

   -10.7501 -10.6622 -10.6189 -10.6021 -10.6001 -10.5496 -10.4908 -10.4715
   -10.3949 -10.3673   3.7389   6.0513   7.1235   9.1086

          k = 0.5000 0.2500-0.4582 ( 16924 PWs)   bands (ev):

   -10.7188 -10.6592 -10.6555 -10.6016 -10.5846 -10.5273 -10.4938 -10.4860
   -10.4688 -10.4046   2.0037   4.1413   9.3955  10.6281

          k = 0.2500 0.2500 0.0000 ( 16949 PWs)   bands (ev):

   -10.7616 -10.7353 -10.7000 -10.6432 -10.5501 -10.5026 -10.5009 -10.4929
   -10.4499 -10.3570   0.2176   4.5881   9.5063  10.5379

          k = 0.5000-0.5000-1.8328 ( 16942 PWs)   bands (ev):

   -10.7317 -10.7317 -10.6441 -10.6441 -10.5502 -10.5502 -10.4786 -10.4786
   -10.4396 -10.4396   1.9008   1.9008  11.4182  11.4182

          k = 0.0000 0.0000 0.9164 ( 16921 PWs)   bands (ev):

   -10.7418 -10.6338 -10.6338 -10.6145 -10.5694 -10.5694 -10.5455 -10.4523
   -10.3973 -10.3518   3.2956   7.1436   7.9734   9.4587

          k = 0.7500 0.0000-0.4582 ( 16920 PWs)   bands (ev):

   -10.7060 -10.6636 -10.6009 -10.5917 -10.5572 -10.5404 -10.5295 -10.4931
   -10.4867 -10.4306   3.0228   4.3601   7.2616   8.4573

          k = 0.5000 0.0000 0.0000 ( 16913 PWs)   bands (ev):

   -10.7473 -10.7175 -10.7057 -10.6118 -10.5275 -10.5196 -10.5157 -10.4729
   -10.4708 -10.4018   0.7802   4.3547   7.0798  10.7926

          k = 0.7500-0.7500-1.8328 ( 16936 PWs)   bands (ev):

   -10.7382 -10.7382 -10.6063 -10.6063 -10.5424 -10.5424 -10.4929 -10.4929
   -10.4642 -10.4642   2.4052   2.4052   7.9916   7.9916

          k = 0.5000-0.5000-0.9164 ( 16856 PWs)   bands (ev):

   -10.7142 -10.7142 -10.6437 -10.6437 -10.5364 -10.5364 -10.4427 -10.4427
   -10.4155 -10.4155   4.8061   4.8061   7.2813   7.2813

          k = 0.0000 0.0000-1.8328 ( 16894 PWs)   bands (ev):

   -10.7410 -10.7410 -10.5426 -10.5426 -10.5322 -10.5322 -10.5203 -10.5203
   -10.5076 -10.5076   3.2430   3.2430   6.0119   6.0119

     highest occupied level (ev):    11.4182

!    total energy              =    -325.58919410 Ry
     estimated scf accuracy    <       0.00000006 Ry

     The total energy is the sum of the following terms:
     one-electron contribution =    -107.32931938 Ry
     hartree contribution      =      74.47826403 Ry
     xc contribution           =     -95.22283556 Ry
     ewald contribution        =    -197.51530320 Ry

     convergence has been achieved in   5 iterations

     Writing all to output data dir ./beta-sn-scf/betatin.save/ :
     XML data file, charge density, pseudopotentials, collected wavefunctions

     init_run     :      0.75s CPU      0.82s WALL (       1 calls)
     electrons    :      0.96s CPU      1.09s WALL (       1 calls)

     Called by init_run:
     wfcinit      :      0.07s CPU      0.08s WALL (       1 calls)
     potinit      :      0.03s CPU      0.05s WALL (       1 calls)
     hinit0       :      0.57s CPU      0.58s WALL (       1 calls)

     Called by electrons:
     c_bands      :      0.66s CPU      0.70s WALL (       6 calls)
     sum_band     :      0.17s CPU      0.19s WALL (       6 calls)
     v_of_rho     :      0.10s CPU      0.11s WALL (       6 calls)
     newd         :      0.04s CPU      0.04s WALL (       6 calls)
     mix_rho      :      0.01s CPU      0.01s WALL (       6 calls)

     Called by c_bands:
     init_us_2    :      0.01s CPU      0.01s WALL (      52 calls)
     cegterg      :      0.61s CPU      0.64s WALL (      24 calls)

     Called by *egterg:
     cdiaghg      :      0.03s CPU      0.03s WALL (      93 calls)
     h_psi        :      0.58s CPU      0.62s WALL (     101 calls)
     s_psi        :      0.01s CPU      0.01s WALL (     101 calls)
     g_psi        :      0.00s CPU      0.00s WALL (      73 calls)

     Called by h_psi:
     h_psi:calbec :      0.01s CPU      0.02s WALL (     101 calls)
     vloc_psi     :      0.56s CPU      0.58s WALL (     101 calls)
     add_vuspsi   :      0.01s CPU      0.01s WALL (     101 calls)

     General routines
     calbec       :      0.02s CPU      0.02s WALL (     125 calls)
     fft          :      0.58s CPU      0.59s WALL (      67 calls)
     ffts         :      0.00s CPU      0.00s WALL (       6 calls)
     fftw         :      0.59s CPU      0.62s WALL (    2172 calls)

     Parallel routines

     PWSCF        :      1.94s CPU      2.34s WALL


   This run was terminated on:  16: 3:45   5Feb2026            

=------------------------------------------------------------------------------=
   JOB DONE.
=------------------------------------------------------------------------------=
