
     Program PWSCF v.7.3.1 starts on  5Feb2026 at 16: 3:53 

     This program is part of the open-source Quantum ESPRESSO suite
     for quantum simulation of materials; please cite
         "P. Giannozzi et al., J. Phys.:Condens. Matter 21 395502 (2009);
         "P. Giannozzi et al., J. Phys.:Condens. Matter 29 465901 (2017);
         "P. Giannozzi et al., J. Chem. Phys. 152 154105 (2020);
          URL http://www.quantum-espresso.org", 
     in publications or presentations arising from this work. More details at
     http://www.quantum-espresso.org/quote

     Parallel version (MPI), running on   128 processors

     MPI processes distributed on     1 nodes
     242324 MiB available memory on the printing compute node when the environment starts

     Waiting for input...
     Reading input from standard input

     Current dimensions of program PWSCF are:
     Max number of different atomic species (ntypx) = 10
     Max number of k-points (npk) =  40000
     Max angular momentum in pseudopotentials (lmaxx) =  4

     K-points division:     npool     =       4
     R & G space division:  proc/nbgrp/npool/nimage =      32
     Subspace diagonalization in iterative solution of the eigenvalue problem:
     a serial algorithm will be used


     Parallelization info
     --------------------
     sticks:   dense  smooth     PW     G-vecs:    dense   smooth      PW
     Min         136     136     40                 4296     4296     688
     Max         137     137     41                 4298     4298     691
     Sum        4369    4369   1285               137491   137491   22027

     Using Slab Decomposition



     bravais-lattice index     =            7
     lattice parameter (alat)  =      11.0200  a.u.
     unit-cell volume          =     365.0809 (a.u.)^3
     number of atoms/cell      =            2
     number of atomic types    =            1
     number of electrons       =        28.00
     number of Kohn-Sham states=           14
     kinetic-energy cutoff     =     198.0000  Ry
     charge density cutoff     =     792.0000  Ry
     scf convergence threshold =      1.0E-07
     mixing beta               =       0.7000
     number of iterations used =            8  plain     mixing
     Exchange-correlation=  SLA  PW   GGX  GGC
                           (   1   4   2   2   0   0   0)

     celldm(1)=  11.020000  celldm(2)=   0.000000  celldm(3)=   0.545600
     celldm(4)=   0.000000  celldm(5)=   0.000000  celldm(6)=   0.000000

     crystal axes: (cart. coord. in units of alat)
               a(1) = (   0.500000  -0.500000   0.272800 )  
               a(2) = (   0.500000   0.500000   0.272800 )  
               a(3) = (  -0.500000  -0.500000   0.272800 )  

     reciprocal axes: (cart. coord. in units 2 pi/alat)
               b(1) = (  1.000000 -1.000000  0.000000 )  
               b(2) = (  0.000000  1.000000  1.832845 )  
               b(3) = ( -1.000000  0.000000  1.832845 )  


     PseudoPot. # 1 for Sn read from file:
     ./Sn.pw91-n-van.UPF
     MD5 check sum: a38d2a872edd1a4efd76c0a1a38f7031
     Pseudo is Ultrasoft + core correction, Zval = 14.0
     Generated by new atomic code, or converted to UPF format
     Using radial grid of  891 points,  6 beta functions with: 
                l(1) =   0
                l(2) =   0
                l(3) =   1
                l(4) =   1
                l(5) =   2
                l(6) =   2
     Q(r) pseudized with  8 coefficients,  rinner =    1.100   1.100   1.100
                                                       1.100   1.100

     atomic species   valence    mass     pseudopotential
     Sn               14.00   118.70000     Sn( 1.00)

     16 Sym. Ops., with inversion, found (12 have fractional translation)



   Cartesian axes

     site n.     atom                  positions (alat units)
         1        Sn     tau(   1) = (   0.0000000  -0.2500000   0.0682000  )
         2        Sn     tau(   2) = (   0.0000000   0.2500000  -0.0682000  )

     number of k points=    13
                       cart. coord. in units 2pi/alat
        k(    1) = (   0.0000000   0.0000000   0.0000000), wk =   0.0312500
        k(    2) = (  -0.2500000   0.0000000   0.4582111), wk =   0.2500000
        k(    3) = (   0.5000000   0.0000000  -0.9164223), wk =   0.1250000
        k(    4) = (  -0.2500000   0.2500000   0.9164223), wk =   0.2500000
        k(    5) = (   0.5000000   0.2500000  -0.4582111), wk =   0.5000000
        k(    6) = (   0.2500000   0.2500000   0.0000000), wk =   0.1250000
        k(    7) = (   0.5000000  -0.5000000  -1.8328446), wk =   0.0625000
        k(    8) = (   0.0000000   0.0000000   0.9164223), wk =   0.0625000
        k(    9) = (   0.7500000   0.0000000  -0.4582111), wk =   0.2500000
        k(   10) = (   0.5000000   0.0000000   0.0000000), wk =   0.1250000
        k(   11) = (   0.7500000  -0.7500000  -1.8328446), wk =   0.1250000
        k(   12) = (   0.5000000  -0.5000000  -0.9164223), wk =   0.0625000
        k(   13) = (   0.0000000   0.0000000  -1.8328446), wk =   0.0312500

     Dense  grid:   137491 G-vectors     FFT dimensions: (  80,  80,  80)

     Estimated max dynamical RAM per process >       9.36 MB

     Estimated total dynamical RAM >       1.07 GB

     Initial potential from superposition of free atoms

     starting charge      27.9964, renormalised to      28.0000
     Starting wfcs are   18 randomized atomic wfcs

     total cpu time spent up to now is        1.1 secs

     per-process dynamical memory:    15.9 Mb

     Self-consistent Calculation

     iteration #  1     ecut=   198.00 Ry     beta= 0.70
     Davidson diagonalization with overlap
     ethr =  1.00E-02,  avg # of iterations =  2.0

     Threshold (ethr) on eigenvalues was too large:
     Diagonalizing with lowered threshold

     Davidson diagonalization with overlap
     ethr =  2.25E-05,  avg # of iterations =  3.7

     total cpu time spent up to now is        1.5 secs

     total energy              =    -325.58570466 Ry
     estimated scf accuracy    <       0.00681737 Ry

     iteration #  2     ecut=   198.00 Ry     beta= 0.70
     Davidson diagonalization with overlap
     ethr =  2.43E-05,  avg # of iterations =  2.0

     total cpu time spent up to now is        1.6 secs

     total energy              =    -325.58906807 Ry
     estimated scf accuracy    <       0.00040834 Ry

     iteration #  3     ecut=   198.00 Ry     beta= 0.70
     Davidson diagonalization with overlap
     ethr =  1.46E-06,  avg # of iterations =  2.9

     total cpu time spent up to now is        1.8 secs

     total energy              =    -325.58925642 Ry
     estimated scf accuracy    <       0.00002966 Ry

     iteration #  4     ecut=   198.00 Ry     beta= 0.70
     Davidson diagonalization with overlap
     ethr =  1.06E-07,  avg # of iterations =  2.8

     total cpu time spent up to now is        2.0 secs

     total energy              =    -325.58926273 Ry
     estimated scf accuracy    <       0.00000063 Ry

     iteration #  5     ecut=   198.00 Ry     beta= 0.70
     Davidson diagonalization with overlap
     ethr =  2.27E-09,  avg # of iterations =  3.2

     total cpu time spent up to now is        2.2 secs

     End of self-consistent calculation

          k = 0.0000 0.0000 0.0000 ( 17193 PWs)   bands (ev):

   -10.8114 -10.7285 -10.6849 -10.6732 -10.5233 -10.5233 -10.5122 -10.5122
   -10.4204 -10.3083  -0.3470   7.1620   8.8398   8.8398

          k =-0.2500 0.0000 0.4582 ( 17192 PWs)   bands (ev):

   -10.7755 -10.6476 -10.6428 -10.6016 -10.5791 -10.5378 -10.5294 -10.5065
   -10.4414 -10.3428   0.8913   6.5845   9.0439  11.2834

          k = 0.5000 0.0000-0.9164 ( 17174 PWs)   bands (ev):

   -10.7361 -10.6655 -10.6488 -10.6094 -10.5754 -10.5723 -10.4738 -10.4265
   -10.4227 -10.3763   3.8536   5.3959   8.4878   9.1146

          k =-0.2500 0.2500 0.9164 ( 17156 PWs)   bands (ev):

   -10.7500 -10.6621 -10.6189 -10.6020 -10.6000 -10.5495 -10.4907 -10.4714
   -10.3949 -10.3672   3.7390   6.0514   7.1234   9.1086

          k = 0.5000 0.2500-0.4582 ( 17179 PWs)   bands (ev):

   -10.7187 -10.6592 -10.6555 -10.6016 -10.5845 -10.5272 -10.4937 -10.4859
   -10.4688 -10.4045   2.0037   4.1414   9.3955  10.6281

          k = 0.2500 0.2500 0.0000 ( 17187 PWs)   bands (ev):

   -10.7614 -10.7353 -10.7000 -10.6431 -10.5500 -10.5026 -10.5009 -10.4929
   -10.4497 -10.3569   0.2177   4.5881   9.5063  10.5379

          k = 0.5000-0.5000-1.8328 ( 17202 PWs)   bands (ev):

   -10.7317 -10.7317 -10.6440 -10.6440 -10.5500 -10.5500 -10.4786 -10.4786
   -10.4395 -10.4395   1.9008   1.9008  11.4183  11.4183

          k = 0.0000 0.0000 0.9164 ( 17165 PWs)   bands (ev):

   -10.7417 -10.6338 -10.6338 -10.6144 -10.5693 -10.5693 -10.5454 -10.4521
   -10.3973 -10.3517   3.2957   7.1437   7.9734   9.4588

          k = 0.7500 0.0000-0.4582 ( 17171 PWs)   bands (ev):

   -10.7059 -10.6635 -10.6009 -10.5916 -10.5571 -10.5404 -10.5295 -10.4930
   -10.4867 -10.4305   3.0228   4.3601   7.2617   8.4574

          k = 0.5000 0.0000 0.0000 ( 17189 PWs)   bands (ev):

   -10.7472 -10.7176 -10.7056 -10.6117 -10.5274 -10.5195 -10.5157 -10.4729
   -10.4707 -10.4017   0.7802   4.3547   7.0798  10.7926

          k = 0.7500-0.7500-1.8328 ( 17182 PWs)   bands (ev):

   -10.7382 -10.7382 -10.6062 -10.6062 -10.5423 -10.5423 -10.4928 -10.4928
   -10.4642 -10.4642   2.4052   2.4052   7.9917   7.9917

          k = 0.5000-0.5000-0.9164 ( 17100 PWs)   bands (ev):

   -10.7142 -10.7142 -10.6437 -10.6437 -10.5363 -10.5363 -10.4427 -10.4427
   -10.4155 -10.4155   4.8061   4.8061   7.2813   7.2813

          k = 0.0000 0.0000-1.8328 ( 17198 PWs)   bands (ev):

   -10.7410 -10.7410 -10.5425 -10.5425 -10.5320 -10.5320 -10.5203 -10.5203
   -10.5076 -10.5076   3.2430   3.2430   6.0120   6.0120

     highest occupied level (ev):    11.4183

!    total energy              =    -325.58926289 Ry
     estimated scf accuracy    <       0.00000003 Ry

     The total energy is the sum of the following terms:
     one-electron contribution =    -107.32932662 Ry
     hartree contribution      =      74.47818839 Ry
     xc contribution           =     -95.22282146 Ry
     ewald contribution        =    -197.51530320 Ry

     convergence has been achieved in   5 iterations

     Writing all to output data dir ./beta-sn-scf/betatin.save/ :
     XML data file, charge density, pseudopotentials, collected wavefunctions

     init_run     :      0.76s CPU      0.82s WALL (       1 calls)
     electrons    :      0.98s CPU      1.09s WALL (       1 calls)

     Called by init_run:
     wfcinit      :      0.06s CPU      0.08s WALL (       1 calls)
     potinit      :      0.03s CPU      0.04s WALL (       1 calls)
     hinit0       :      0.58s CPU      0.59s WALL (       1 calls)

     Called by electrons:
     c_bands      :      0.66s CPU      0.70s WALL (       6 calls)
     sum_band     :      0.18s CPU      0.19s WALL (       6 calls)
     v_of_rho     :      0.09s CPU      0.11s WALL (       6 calls)
     newd         :      0.04s CPU      0.05s WALL (       6 calls)
     mix_rho      :      0.01s CPU      0.01s WALL (       6 calls)

     Called by c_bands:
     init_us_2    :      0.01s CPU      0.01s WALL (      52 calls)
     cegterg      :      0.62s CPU      0.64s WALL (      24 calls)

     Called by *egterg:
     cdiaghg      :      0.03s CPU      0.03s WALL (      93 calls)
     h_psi        :      0.59s CPU      0.62s WALL (     101 calls)
     s_psi        :      0.01s CPU      0.01s WALL (     101 calls)
     g_psi        :      0.00s CPU      0.00s WALL (      73 calls)

     Called by h_psi:
     h_psi:calbec :      0.02s CPU      0.02s WALL (     101 calls)
     vloc_psi     :      0.56s CPU      0.59s WALL (     101 calls)
     add_vuspsi   :      0.01s CPU      0.01s WALL (     101 calls)

     General routines
     calbec       :      0.02s CPU      0.02s WALL (     125 calls)
     fft          :      0.58s CPU      0.59s WALL (      67 calls)
     ffts         :      0.00s CPU      0.00s WALL (       6 calls)
     fftw         :      0.59s CPU      0.62s WALL (    2172 calls)

     Parallel routines

     PWSCF        :      2.01s CPU      2.51s WALL


   This run was terminated on:  16: 3:56   5Feb2026            

=------------------------------------------------------------------------------=
   JOB DONE.
=------------------------------------------------------------------------------=
