
     Program PWSCF v.7.3.1 starts on  4Feb2026 at 11:32:53 

     This program is part of the open-source Quantum ESPRESSO suite
     for quantum simulation of materials; please cite
         "P. Giannozzi et al., J. Phys.:Condens. Matter 21 395502 (2009);
         "P. Giannozzi et al., J. Phys.:Condens. Matter 29 465901 (2017);
         "P. Giannozzi et al., J. Chem. Phys. 152 154105 (2020);
          URL http://www.quantum-espresso.org", 
     in publications or presentations arising from this work. More details at
     http://www.quantum-espresso.org/quote

     Parallel version (MPI), running on   128 processors

     MPI processes distributed on     1 nodes
     241583 MiB available memory on the printing compute node when the environment starts

     Waiting for input...
     Reading input from standard input

     Current dimensions of program PWSCF are:
     Max number of different atomic species (ntypx) = 10
     Max number of k-points (npk) =  40000
     Max angular momentum in pseudopotentials (lmaxx) =  4

     K-points division:     npool     =       8
     R & G space division:  proc/nbgrp/npool/nimage =      16
     Subspace diagonalization in iterative solution of the eigenvalue problem:
     a serial algorithm will be used


     Parallelization info
     --------------------
     sticks:   dense  smooth     PW     G-vecs:    dense   smooth      PW
     Min          27      27     10                  272      272      69
     Max          28      28     11                  274      274      71
     Sum         435     435    175                 4369     4369    1129

     Using Slab Decomposition



     bravais-lattice index     =            7
     lattice parameter (alat)  =      11.0200  a.u.
     unit-cell volume          =     365.0809 (a.u.)^3
     number of atoms/cell      =            2
     number of atomic types    =            1
     number of electrons       =        28.00
     number of Kohn-Sham states=           14
     kinetic-energy cutoff     =      20.0000  Ry
     charge density cutoff     =      80.0000  Ry
     scf convergence threshold =      1.0E-07
     mixing beta               =       0.7000
     number of iterations used =            8  plain     mixing
     Exchange-correlation=  SLA  PW   GGX  GGC
                           (   1   4   2   2   0   0   0)

     celldm(1)=  11.020000  celldm(2)=   0.000000  celldm(3)=   0.545600
     celldm(4)=   0.000000  celldm(5)=   0.000000  celldm(6)=   0.000000

     crystal axes: (cart. coord. in units of alat)
               a(1) = (   0.500000  -0.500000   0.272800 )  
               a(2) = (   0.500000   0.500000   0.272800 )  
               a(3) = (  -0.500000  -0.500000   0.272800 )  

     reciprocal axes: (cart. coord. in units 2 pi/alat)
               b(1) = (  1.000000 -1.000000  0.000000 )  
               b(2) = (  0.000000  1.000000  1.832845 )  
               b(3) = ( -1.000000  0.000000  1.832845 )  


     PseudoPot. # 1 for Sn read from file:
     ./Sn.pw91-n-van.UPF
     MD5 check sum: a38d2a872edd1a4efd76c0a1a38f7031
     Pseudo is Ultrasoft + core correction, Zval = 14.0
     Generated by new atomic code, or converted to UPF format
     Using radial grid of  891 points,  6 beta functions with: 
                l(1) =   0
                l(2) =   0
                l(3) =   1
                l(4) =   1
                l(5) =   2
                l(6) =   2
     Q(r) pseudized with  8 coefficients,  rinner =    1.100   1.100   1.100
                                                       1.100   1.100

     atomic species   valence    mass     pseudopotential
     Sn               14.00   118.70000     Sn( 1.00)

     16 Sym. Ops., with inversion, found (12 have fractional translation)



   Cartesian axes

     site n.     atom                  positions (alat units)
         1        Sn     tau(   1) = (   0.0000000  -0.2500000   0.0682000  )
         2        Sn     tau(   2) = (   0.0000000   0.2500000  -0.0682000  )

     number of k points=    13
                       cart. coord. in units 2pi/alat
        k(    1) = (   0.0000000   0.0000000   0.0000000), wk =   0.0312500
        k(    2) = (  -0.2500000   0.0000000   0.4582111), wk =   0.2500000
        k(    3) = (   0.5000000   0.0000000  -0.9164223), wk =   0.1250000
        k(    4) = (  -0.2500000   0.2500000   0.9164223), wk =   0.2500000
        k(    5) = (   0.5000000   0.2500000  -0.4582111), wk =   0.5000000
        k(    6) = (   0.2500000   0.2500000   0.0000000), wk =   0.1250000
        k(    7) = (   0.5000000  -0.5000000  -1.8328446), wk =   0.0625000
        k(    8) = (   0.0000000   0.0000000   0.9164223), wk =   0.0625000
        k(    9) = (   0.7500000   0.0000000  -0.4582111), wk =   0.2500000
        k(   10) = (   0.5000000   0.0000000   0.0000000), wk =   0.1250000
        k(   11) = (   0.7500000  -0.7500000  -1.8328446), wk =   0.1250000
        k(   12) = (   0.5000000  -0.5000000  -0.9164223), wk =   0.0625000
        k(   13) = (   0.0000000   0.0000000  -1.8328446), wk =   0.0312500

     Dense  grid:     4369 G-vectors     FFT dimensions: (  24,  24,  24)

     Estimated max dynamical RAM per process >       1.05 MB

     Estimated total dynamical RAM >     127.40 MB

     Check: negative core charge=   -0.000010

     Initial potential from superposition of free atoms

     starting charge      27.9964, renormalised to      28.0000
     Starting wfcs are   18 randomized atomic wfcs

     total cpu time spent up to now is        0.6 secs

     per-process dynamical memory:     8.5 Mb

     Self-consistent Calculation

     iteration #  1     ecut=    20.00 Ry     beta= 0.70
     Davidson diagonalization with overlap
     ethr =  1.00E-02,  avg # of iterations =  1.8

     Threshold (ethr) on eigenvalues was too large:
     Diagonalizing with lowered threshold

     Davidson diagonalization with overlap
     ethr =  8.21E-05,  avg # of iterations =  3.3

     total cpu time spent up to now is        0.6 secs

     total energy              =    -325.15479307 Ry
     estimated scf accuracy    <       0.02405290 Ry

     iteration #  2     ecut=    20.00 Ry     beta= 0.70
     Davidson diagonalization with overlap
     ethr =  8.59E-05,  avg # of iterations =  2.0

     total cpu time spent up to now is        0.7 secs

     total energy              =    -325.16110347 Ry
     estimated scf accuracy    <       0.00134509 Ry

     iteration #  3     ecut=    20.00 Ry     beta= 0.70
     Davidson diagonalization with overlap
     ethr =  4.80E-06,  avg # of iterations =  2.1

     total cpu time spent up to now is        0.7 secs

     total energy              =    -325.16138272 Ry
     estimated scf accuracy    <       0.00006719 Ry

     iteration #  4     ecut=    20.00 Ry     beta= 0.70
     Davidson diagonalization with overlap
     ethr =  2.40E-07,  avg # of iterations =  2.9

     total cpu time spent up to now is        0.7 secs

     total energy              =    -325.16139450 Ry
     estimated scf accuracy    <       0.00000132 Ry

     iteration #  5     ecut=    20.00 Ry     beta= 0.70
     Davidson diagonalization with overlap
     ethr =  4.71E-09,  avg # of iterations =  3.5

     total cpu time spent up to now is        0.7 secs

     total energy              =    -325.16139510 Ry
     estimated scf accuracy    <       0.00000030 Ry

     iteration #  6     ecut=    20.00 Ry     beta= 0.70
     Davidson diagonalization with overlap
     ethr =  1.07E-09,  avg # of iterations =  2.5

     total cpu time spent up to now is        0.7 secs

     End of self-consistent calculation

          k = 0.0000 0.0000 0.0000 (   533 PWs)   bands (ev):

   -10.8446 -10.8226 -10.8011 -10.7544 -10.6562 -10.6562 -10.6308 -10.5860
   -10.5860 -10.4643  -0.3003   7.1356   8.8877   8.8877

          k =-0.2500 0.0000 0.4582 (   540 PWs)   bands (ev):

   -10.8801 -10.7758 -10.7526 -10.7372 -10.7073 -10.6714 -10.6440 -10.6230
   -10.5900 -10.5290   0.9334   6.5789   9.1032  11.3127

          k = 0.5000 0.0000-0.9164 (   548 PWs)   bands (ev):

   -10.8658 -10.7964 -10.7760 -10.7698 -10.7671 -10.6858 -10.6638 -10.6298
   -10.5872 -10.5787   3.8633   5.4360   8.5064   9.1591

          k =-0.2500 0.2500 0.9164 (   552 PWs)   bands (ev):

   -10.8685 -10.8030 -10.7801 -10.7602 -10.7252 -10.7107 -10.6970 -10.6477
   -10.6349 -10.5583   3.7547   6.0601   7.1888   9.1563

          k = 0.5000 0.2500-0.4582 (   551 PWs)   bands (ev):

   -10.8573 -10.8270 -10.7740 -10.7529 -10.7198 -10.6949 -10.6755 -10.6419
   -10.6245 -10.6033   2.0401   4.1632   9.4461  10.6812

          k = 0.2500 0.2500 0.0000 (   549 PWs)   bands (ev):

   -10.9294 -10.8935 -10.8061 -10.7515 -10.7502 -10.6418 -10.6406 -10.6274
   -10.5795 -10.5519   0.2622   4.6069   9.5511  10.5823

          k = 0.5000-0.5000-1.8328 (   544 PWs)   bands (ev):

   -10.8740 -10.8740 -10.7846 -10.7846 -10.6075 -10.6075 -10.5998 -10.5998
   -10.5790 -10.5790   1.9377   1.9377  11.4587  11.4587

          k = 0.0000 0.0000 0.9164 (   560 PWs)   bands (ev):

   -10.9114 -10.8187 -10.8187 -10.7722 -10.7693 -10.7693 -10.7405 -10.6644
   -10.6616 -10.5286   3.3167   7.1391   8.0192   9.5217

          k = 0.7500 0.0000-0.4582 (   555 PWs)   bands (ev):

   -10.8624 -10.7927 -10.7768 -10.7510 -10.7224 -10.7166 -10.6769 -10.6709
   -10.6439 -10.6427   3.0476   4.3640   7.3460   8.5195

          k = 0.5000 0.0000 0.0000 (   562 PWs)   bands (ev):

   -10.9572 -10.9063 -10.8658 -10.7717 -10.7539 -10.6855 -10.6674 -10.6434
   -10.6351 -10.6320   0.8216   4.3589   7.1615  10.8470

          k = 0.7500-0.7500-1.8328 (   558 PWs)   bands (ev):

   -10.9338 -10.9338 -10.7775 -10.7775 -10.7056 -10.7056 -10.6648 -10.6648
   -10.6073 -10.6073   2.4343   2.4343   8.0574   8.0574

          k = 0.5000-0.5000-0.9164 (   540 PWs)   bands (ev):

   -10.7898 -10.7898 -10.7536 -10.7536 -10.6583 -10.6583 -10.6400 -10.6400
   -10.5627 -10.5627   4.8126   4.8126   7.3536   7.3536

          k = 0.0000 0.0000-1.8328 (   556 PWs)   bands (ev):

   -10.9108 -10.9108 -10.7619 -10.7619 -10.7544 -10.7544 -10.6423 -10.6423
   -10.5880 -10.5880   3.2485   3.2485   6.1040   6.1040

     highest occupied level (ev):    11.4587

!    total energy              =    -325.16139517 Ry
     estimated scf accuracy    <       0.00000001 Ry

     The total energy is the sum of the following terms:
     one-electron contribution =    -106.46051906 Ry
     hartree contribution      =      73.83535191 Ry
     xc contribution           =     -95.02092481 Ry
     ewald contribution        =    -197.51530321 Ry

     convergence has been achieved in   6 iterations

     Writing all to output data dir ./beta-sn-scf/betatin.save/ :
     XML data file, charge density, pseudopotentials, collected wavefunctions

     init_run     :      0.26s CPU      0.30s WALL (       1 calls)
     electrons    :      0.12s CPU      0.23s WALL (       1 calls)

     Called by init_run:
     wfcinit      :      0.01s CPU      0.01s WALL (       1 calls)
     potinit      :      0.01s CPU      0.01s WALL (       1 calls)
     hinit0       :      0.22s CPU      0.23s WALL (       1 calls)

     Called by electrons:
     c_bands      :      0.07s CPU      0.09s WALL (       7 calls)
     sum_band     :      0.02s CPU      0.03s WALL (       7 calls)
     v_of_rho     :      0.01s CPU      0.01s WALL (       7 calls)
     newd         :      0.01s CPU      0.01s WALL (       7 calls)
     mix_rho      :      0.00s CPU      0.00s WALL (       7 calls)

     Called by c_bands:
     init_us_2    :      0.00s CPU      0.00s WALL (      30 calls)
     cegterg      :      0.06s CPU      0.08s WALL (      14 calls)

     Called by *egterg:
     cdiaghg      :      0.01s CPU      0.02s WALL (      57 calls)
     h_psi        :      0.05s CPU      0.06s WALL (      61 calls)
     s_psi        :      0.00s CPU      0.00s WALL (      61 calls)
     g_psi        :      0.00s CPU      0.00s WALL (      45 calls)

     Called by h_psi:
     h_psi:calbec :      0.00s CPU      0.00s WALL (      61 calls)
     vloc_psi     :      0.04s CPU      0.05s WALL (      61 calls)
     add_vuspsi   :      0.00s CPU      0.00s WALL (      61 calls)

     General routines
     calbec       :      0.00s CPU      0.00s WALL (      75 calls)
     fft          :      0.20s CPU      0.21s WALL (      78 calls)
     ffts         :      0.00s CPU      0.00s WALL (       7 calls)
     fftw         :      0.05s CPU      0.06s WALL (    1344 calls)

     Parallel routines

     PWSCF        :      0.61s CPU      0.96s WALL


   This run was terminated on:  11:32:54   4Feb2026            

=------------------------------------------------------------------------------=
   JOB DONE.
=------------------------------------------------------------------------------=
