
     Program PWSCF v.7.3.1 starts on  4Feb2026 at 11:36:19 

     This program is part of the open-source Quantum ESPRESSO suite
     for quantum simulation of materials; please cite
         "P. Giannozzi et al., J. Phys.:Condens. Matter 21 395502 (2009);
         "P. Giannozzi et al., J. Phys.:Condens. Matter 29 465901 (2017);
         "P. Giannozzi et al., J. Chem. Phys. 152 154105 (2020);
          URL http://www.quantum-espresso.org", 
     in publications or presentations arising from this work. More details at
     http://www.quantum-espresso.org/quote

     Parallel version (MPI), running on   128 processors

     MPI processes distributed on     1 nodes
     241524 MiB available memory on the printing compute node when the environment starts

     Waiting for input...
     Reading input from standard input

     Current dimensions of program PWSCF are:
     Max number of different atomic species (ntypx) = 10
     Max number of k-points (npk) =  40000
     Max angular momentum in pseudopotentials (lmaxx) =  4

     K-points division:     npool     =       4
     R & G space division:  proc/nbgrp/npool/nimage =      32
     Subspace diagonalization in iterative solution of the eigenvalue problem:
     a serial algorithm will be used


     Parallelization info
     --------------------
     sticks:   dense  smooth     PW     G-vecs:    dense   smooth      PW
     Min         137     137     40                 4358     4358     695
     Max         138     138     41                 4361     4361     697
     Sum        4413    4413   1293               139503   139503   22263

     Using Slab Decomposition



     bravais-lattice index     =            7
     lattice parameter (alat)  =      11.0200  a.u.
     unit-cell volume          =     365.0809 (a.u.)^3
     number of atoms/cell      =            2
     number of atomic types    =            1
     number of electrons       =        28.00
     number of Kohn-Sham states=           14
     kinetic-energy cutoff     =     200.0000  Ry
     charge density cutoff     =     800.0000  Ry
     scf convergence threshold =      1.0E-07
     mixing beta               =       0.7000
     number of iterations used =            8  plain     mixing
     Exchange-correlation=  SLA  PW   GGX  GGC
                           (   1   4   2   2   0   0   0)

     celldm(1)=  11.020000  celldm(2)=   0.000000  celldm(3)=   0.545600
     celldm(4)=   0.000000  celldm(5)=   0.000000  celldm(6)=   0.000000

     crystal axes: (cart. coord. in units of alat)
               a(1) = (   0.500000  -0.500000   0.272800 )  
               a(2) = (   0.500000   0.500000   0.272800 )  
               a(3) = (  -0.500000  -0.500000   0.272800 )  

     reciprocal axes: (cart. coord. in units 2 pi/alat)
               b(1) = (  1.000000 -1.000000  0.000000 )  
               b(2) = (  0.000000  1.000000  1.832845 )  
               b(3) = ( -1.000000  0.000000  1.832845 )  


     PseudoPot. # 1 for Sn read from file:
     ./Sn.pw91-n-van.UPF
     MD5 check sum: a38d2a872edd1a4efd76c0a1a38f7031
     Pseudo is Ultrasoft + core correction, Zval = 14.0
     Generated by new atomic code, or converted to UPF format
     Using radial grid of  891 points,  6 beta functions with: 
                l(1) =   0
                l(2) =   0
                l(3) =   1
                l(4) =   1
                l(5) =   2
                l(6) =   2
     Q(r) pseudized with  8 coefficients,  rinner =    1.100   1.100   1.100
                                                       1.100   1.100

     atomic species   valence    mass     pseudopotential
     Sn               14.00   118.70000     Sn( 1.00)

     16 Sym. Ops., with inversion, found (12 have fractional translation)



   Cartesian axes

     site n.     atom                  positions (alat units)
         1        Sn     tau(   1) = (   0.0000000  -0.2500000   0.0682000  )
         2        Sn     tau(   2) = (   0.0000000   0.2500000  -0.0682000  )

     number of k points=    13
                       cart. coord. in units 2pi/alat
        k(    1) = (   0.0000000   0.0000000   0.0000000), wk =   0.0312500
        k(    2) = (  -0.2500000   0.0000000   0.4582111), wk =   0.2500000
        k(    3) = (   0.5000000   0.0000000  -0.9164223), wk =   0.1250000
        k(    4) = (  -0.2500000   0.2500000   0.9164223), wk =   0.2500000
        k(    5) = (   0.5000000   0.2500000  -0.4582111), wk =   0.5000000
        k(    6) = (   0.2500000   0.2500000   0.0000000), wk =   0.1250000
        k(    7) = (   0.5000000  -0.5000000  -1.8328446), wk =   0.0625000
        k(    8) = (   0.0000000   0.0000000   0.9164223), wk =   0.0625000
        k(    9) = (   0.7500000   0.0000000  -0.4582111), wk =   0.2500000
        k(   10) = (   0.5000000   0.0000000   0.0000000), wk =   0.1250000
        k(   11) = (   0.7500000  -0.7500000  -1.8328446), wk =   0.1250000
        k(   12) = (   0.5000000  -0.5000000  -0.9164223), wk =   0.0625000
        k(   13) = (   0.0000000   0.0000000  -1.8328446), wk =   0.0312500

     Dense  grid:   139503 G-vectors     FFT dimensions: (  80,  80,  80)

     Estimated max dynamical RAM per process >       9.45 MB

     Estimated total dynamical RAM >       1.08 GB

     Initial potential from superposition of free atoms

     starting charge      27.9964, renormalised to      28.0000
     Starting wfcs are   18 randomized atomic wfcs

     total cpu time spent up to now is        1.1 secs

     per-process dynamical memory:    14.0 Mb

     Self-consistent Calculation

     iteration #  1     ecut=   200.00 Ry     beta= 0.70
     Davidson diagonalization with overlap
     ethr =  1.00E-02,  avg # of iterations =  2.0

     Threshold (ethr) on eigenvalues was too large:
     Diagonalizing with lowered threshold

     Davidson diagonalization with overlap
     ethr =  2.19E-05,  avg # of iterations =  3.6

     total cpu time spent up to now is        1.5 secs

     total energy              =    -325.58573721 Ry
     estimated scf accuracy    <       0.00680866 Ry

     iteration #  2     ecut=   200.00 Ry     beta= 0.70
     Davidson diagonalization with overlap
     ethr =  2.43E-05,  avg # of iterations =  2.0

     total cpu time spent up to now is        1.6 secs

     total energy              =    -325.58911710 Ry
     estimated scf accuracy    <       0.00040861 Ry

     iteration #  3     ecut=   200.00 Ry     beta= 0.70
     Davidson diagonalization with overlap
     ethr =  1.46E-06,  avg # of iterations =  2.7

     total cpu time spent up to now is        1.8 secs

     total energy              =    -325.58929863 Ry
     estimated scf accuracy    <       0.00002833 Ry

     iteration #  4     ecut=   200.00 Ry     beta= 0.70
     Davidson diagonalization with overlap
     ethr =  1.01E-07,  avg # of iterations =  3.2

     total cpu time spent up to now is        2.0 secs

     total energy              =    -325.58930508 Ry
     estimated scf accuracy    <       0.00000060 Ry

     iteration #  5     ecut=   200.00 Ry     beta= 0.70
     Davidson diagonalization with overlap
     ethr =  2.14E-09,  avg # of iterations =  3.3

     total cpu time spent up to now is        2.2 secs

     End of self-consistent calculation

          k = 0.0000 0.0000 0.0000 ( 17449 PWs)   bands (ev):

   -10.8113 -10.7284 -10.6848 -10.6732 -10.5232 -10.5232 -10.5121 -10.5121
   -10.4203 -10.3082  -0.3470   7.1620   8.8398   8.8398

          k =-0.2500 0.0000 0.4582 ( 17439 PWs)   bands (ev):

   -10.7754 -10.6475 -10.6427 -10.6015 -10.5791 -10.5378 -10.5294 -10.5064
   -10.4413 -10.3427   0.8913   6.5845   9.0440  11.2834

          k = 0.5000 0.0000-0.9164 ( 17414 PWs)   bands (ev):

   -10.7360 -10.6655 -10.6487 -10.6093 -10.5753 -10.5722 -10.4737 -10.4264
   -10.4227 -10.3762   3.8536   5.3959   8.4878   9.1145

          k =-0.2500 0.2500 0.9164 ( 17410 PWs)   bands (ev):

   -10.7499 -10.6621 -10.6188 -10.6019 -10.6000 -10.5494 -10.4906 -10.4713
   -10.3948 -10.3671   3.7390   6.0514   7.1234   9.1085

          k = 0.5000 0.2500-0.4582 ( 17450 PWs)   bands (ev):

   -10.7186 -10.6591 -10.6554 -10.6015 -10.5844 -10.5272 -10.4936 -10.4859
   -10.4687 -10.4044   2.0037   4.1414   9.3956  10.6281

          k = 0.2500 0.2500 0.0000 ( 17421 PWs)   bands (ev):

   -10.7613 -10.7353 -10.7000 -10.6430 -10.5499 -10.5025 -10.5008 -10.4928
   -10.4496 -10.3567   0.2177   4.5881   9.5064  10.5379

          k = 0.5000-0.5000-1.8328 ( 17444 PWs)   bands (ev):

   -10.7317 -10.7317 -10.6439 -10.6439 -10.5499 -10.5499 -10.4785 -10.4785
   -10.4395 -10.4395   1.9009   1.9009  11.4183  11.4183

          k = 0.0000 0.0000 0.9164 ( 17434 PWs)   bands (ev):

   -10.7415 -10.6337 -10.6337 -10.6143 -10.5693 -10.5693 -10.5454 -10.4520
   -10.3973 -10.3516   3.2957   7.1437   7.9733   9.4589

          k = 0.7500 0.0000-0.4582 ( 17433 PWs)   bands (ev):

   -10.7058 -10.6635 -10.6009 -10.5915 -10.5570 -10.5403 -10.5294 -10.4929
   -10.4866 -10.4304   3.0229   4.3602   7.2617   8.4574

          k = 0.5000 0.0000 0.0000 ( 17435 PWs)   bands (ev):

   -10.7472 -10.7175 -10.7056 -10.6115 -10.5274 -10.5195 -10.5156 -10.4728
   -10.4706 -10.4016   0.7802   4.3547   7.0798  10.7926

          k = 0.7500-0.7500-1.8328 ( 17444 PWs)   bands (ev):

   -10.7382 -10.7382 -10.6061 -10.6061 -10.5422 -10.5422 -10.4928 -10.4928
   -10.4641 -10.4641   2.4052   2.4052   7.9917   7.9917

          k = 0.5000-0.5000-0.9164 ( 17392 PWs)   bands (ev):

   -10.7141 -10.7141 -10.6436 -10.6436 -10.5362 -10.5362 -10.4426 -10.4426
   -10.4155 -10.4155   4.8062   4.8062   7.2812   7.2812

          k = 0.0000 0.0000-1.8328 ( 17510 PWs)   bands (ev):

   -10.7410 -10.7410 -10.5424 -10.5424 -10.5319 -10.5319 -10.5202 -10.5202
   -10.5075 -10.5075   3.2430   3.2430   6.0120   6.0120

     highest occupied level (ev):    11.4183

!    total energy              =    -325.58930521 Ry
     estimated scf accuracy    <       0.00000001 Ry

     The total energy is the sum of the following terms:
     one-electron contribution =    -107.32930958 Ry
     hartree contribution      =      74.47811400 Ry
     xc contribution           =     -95.22280643 Ry
     ewald contribution        =    -197.51530320 Ry

     convergence has been achieved in   5 iterations

     Writing all to output data dir ./beta-sn-scf/betatin.save/ :
     XML data file, charge density, pseudopotentials, collected wavefunctions

     init_run     :      0.77s CPU      0.82s WALL (       1 calls)
     electrons    :      0.99s CPU      1.09s WALL (       1 calls)

     Called by init_run:
     wfcinit      :      0.07s CPU      0.08s WALL (       1 calls)
     potinit      :      0.03s CPU      0.04s WALL (       1 calls)
     hinit0       :      0.58s CPU      0.60s WALL (       1 calls)

     Called by electrons:
     c_bands      :      0.66s CPU      0.71s WALL (       6 calls)
     sum_band     :      0.18s CPU      0.20s WALL (       6 calls)
     v_of_rho     :      0.10s CPU      0.11s WALL (       6 calls)
     newd         :      0.04s CPU      0.04s WALL (       6 calls)
     mix_rho      :      0.01s CPU      0.01s WALL (       6 calls)

     Called by c_bands:
     init_us_2    :      0.01s CPU      0.01s WALL (      52 calls)
     cegterg      :      0.62s CPU      0.65s WALL (      24 calls)

     Called by *egterg:
     cdiaghg      :      0.03s CPU      0.03s WALL (      93 calls)
     h_psi        :      0.59s CPU      0.63s WALL (     101 calls)
     s_psi        :      0.01s CPU      0.01s WALL (     101 calls)
     g_psi        :      0.00s CPU      0.00s WALL (      73 calls)

     Called by h_psi:
     h_psi:calbec :      0.01s CPU      0.02s WALL (     101 calls)
     vloc_psi     :      0.57s CPU      0.59s WALL (     101 calls)
     add_vuspsi   :      0.01s CPU      0.01s WALL (     101 calls)

     General routines
     calbec       :      0.02s CPU      0.02s WALL (     125 calls)
     fft          :      0.59s CPU      0.59s WALL (      67 calls)
     ffts         :      0.00s CPU      0.00s WALL (       6 calls)
     fftw         :      0.60s CPU      0.63s WALL (    2204 calls)

     Parallel routines

     PWSCF        :      2.17s CPU      2.51s WALL


   This run was terminated on:  11:36:22   4Feb2026            

=------------------------------------------------------------------------------=
   JOB DONE.
=------------------------------------------------------------------------------=
