
     Program PWSCF v.7.3.1 starts on  5Feb2026 at 15:47:21 

     This program is part of the open-source Quantum ESPRESSO suite
     for quantum simulation of materials; please cite
         "P. Giannozzi et al., J. Phys.:Condens. Matter 21 395502 (2009);
         "P. Giannozzi et al., J. Phys.:Condens. Matter 29 465901 (2017);
         "P. Giannozzi et al., J. Chem. Phys. 152 154105 (2020);
          URL http://www.quantum-espresso.org", 
     in publications or presentations arising from this work. More details at
     http://www.quantum-espresso.org/quote

     Parallel version (MPI), running on   128 processors

     MPI processes distributed on     1 nodes
     242422 MiB available memory on the printing compute node when the environment starts

     Waiting for input...
     Reading input from standard input

     Current dimensions of program PWSCF are:
     Max number of different atomic species (ntypx) = 10
     Max number of k-points (npk) =  40000
     Max angular momentum in pseudopotentials (lmaxx) =  4

     K-points division:     npool     =       8
     R & G space division:  proc/nbgrp/npool/nimage =      16
     Subspace diagonalization in iterative solution of the eigenvalue problem:
     a serial algorithm will be used


     Parallelization info
     --------------------
     sticks:   dense  smooth     PW     G-vecs:    dense   smooth      PW
     Min          32      32     12                  362      362      86
     Max          33      33     14                  364      364      87
     Sum         527     527    207                 5809     5809    1389

     Using Slab Decomposition



     bravais-lattice index     =            7
     lattice parameter (alat)  =      11.0200  a.u.
     unit-cell volume          =     365.0809 (a.u.)^3
     number of atoms/cell      =            2
     number of atomic types    =            1
     number of electrons       =        28.00
     number of Kohn-Sham states=           14
     kinetic-energy cutoff     =      24.0000  Ry
     charge density cutoff     =      96.0000  Ry
     scf convergence threshold =      1.0E-07
     mixing beta               =       0.7000
     number of iterations used =            8  plain     mixing
     Exchange-correlation=  SLA  PW   GGX  GGC
                           (   1   4   2   2   0   0   0)

     celldm(1)=  11.020000  celldm(2)=   0.000000  celldm(3)=   0.545600
     celldm(4)=   0.000000  celldm(5)=   0.000000  celldm(6)=   0.000000

     crystal axes: (cart. coord. in units of alat)
               a(1) = (   0.500000  -0.500000   0.272800 )  
               a(2) = (   0.500000   0.500000   0.272800 )  
               a(3) = (  -0.500000  -0.500000   0.272800 )  

     reciprocal axes: (cart. coord. in units 2 pi/alat)
               b(1) = (  1.000000 -1.000000  0.000000 )  
               b(2) = (  0.000000  1.000000  1.832845 )  
               b(3) = ( -1.000000  0.000000  1.832845 )  


     PseudoPot. # 1 for Sn read from file:
     ./Sn.pw91-n-van.UPF
     MD5 check sum: a38d2a872edd1a4efd76c0a1a38f7031
     Pseudo is Ultrasoft + core correction, Zval = 14.0
     Generated by new atomic code, or converted to UPF format
     Using radial grid of  891 points,  6 beta functions with: 
                l(1) =   0
                l(2) =   0
                l(3) =   1
                l(4) =   1
                l(5) =   2
                l(6) =   2
     Q(r) pseudized with  8 coefficients,  rinner =    1.100   1.100   1.100
                                                       1.100   1.100

     atomic species   valence    mass     pseudopotential
     Sn               14.00   118.70000     Sn( 1.00)

     16 Sym. Ops., with inversion, found (12 have fractional translation)



   Cartesian axes

     site n.     atom                  positions (alat units)
         1        Sn     tau(   1) = (   0.0000000  -0.2500000   0.0682000  )
         2        Sn     tau(   2) = (   0.0000000   0.2500000  -0.0682000  )

     number of k points=    13
                       cart. coord. in units 2pi/alat
        k(    1) = (   0.0000000   0.0000000   0.0000000), wk =   0.0312500
        k(    2) = (  -0.2500000   0.0000000   0.4582111), wk =   0.2500000
        k(    3) = (   0.5000000   0.0000000  -0.9164223), wk =   0.1250000
        k(    4) = (  -0.2500000   0.2500000   0.9164223), wk =   0.2500000
        k(    5) = (   0.5000000   0.2500000  -0.4582111), wk =   0.5000000
        k(    6) = (   0.2500000   0.2500000   0.0000000), wk =   0.1250000
        k(    7) = (   0.5000000  -0.5000000  -1.8328446), wk =   0.0625000
        k(    8) = (   0.0000000   0.0000000   0.9164223), wk =   0.0625000
        k(    9) = (   0.7500000   0.0000000  -0.4582111), wk =   0.2500000
        k(   10) = (   0.5000000   0.0000000   0.0000000), wk =   0.1250000
        k(   11) = (   0.7500000  -0.7500000  -1.8328446), wk =   0.1250000
        k(   12) = (   0.5000000  -0.5000000  -0.9164223), wk =   0.0625000
        k(   13) = (   0.0000000   0.0000000  -1.8328446), wk =   0.0312500

     Dense  grid:     5809 G-vectors     FFT dimensions: (  30,  30,  30)

     Estimated max dynamical RAM per process >       1.25 MB

     Estimated total dynamical RAM >     150.01 MB

     Check: negative core charge=   -0.000003

     Initial potential from superposition of free atoms

     starting charge      27.9964, renormalised to      28.0000
     Starting wfcs are   18 randomized atomic wfcs

     total cpu time spent up to now is        0.5 secs

     per-process dynamical memory:     8.6 Mb

     Self-consistent Calculation

     iteration #  1     ecut=    24.00 Ry     beta= 0.70
     Davidson diagonalization with overlap
     ethr =  1.00E-02,  avg # of iterations =  1.8

     Threshold (ethr) on eigenvalues was too large:
     Diagonalizing with lowered threshold

     Davidson diagonalization with overlap
     ethr =  2.81E-05,  avg # of iterations =  3.5

     total cpu time spent up to now is        0.6 secs

     total energy              =    -325.50545528 Ry
     estimated scf accuracy    <       0.00802201 Ry

     iteration #  2     ecut=    24.00 Ry     beta= 0.70
     Davidson diagonalization with overlap
     ethr =  2.87E-05,  avg # of iterations =  2.0

     total cpu time spent up to now is        0.6 secs

     total energy              =    -325.50685070 Ry
     estimated scf accuracy    <       0.00060422 Ry

     iteration #  3     ecut=    24.00 Ry     beta= 0.70
     Davidson diagonalization with overlap
     ethr =  2.16E-06,  avg # of iterations =  2.0

     total cpu time spent up to now is        0.7 secs

     total energy              =    -325.50693218 Ry
     estimated scf accuracy    <       0.00004721 Ry

     iteration #  4     ecut=    24.00 Ry     beta= 0.70
     Davidson diagonalization with overlap
     ethr =  1.69E-07,  avg # of iterations =  2.8

     total cpu time spent up to now is        0.7 secs

     total energy              =    -325.50693822 Ry
     estimated scf accuracy    <       0.00000056 Ry

     iteration #  5     ecut=    24.00 Ry     beta= 0.70
     Davidson diagonalization with overlap
     ethr =  2.02E-09,  avg # of iterations =  4.6

     total cpu time spent up to now is        0.7 secs

     End of self-consistent calculation

          k = 0.0000 0.0000 0.0000 (   741 PWs)   bands (ev):

   -10.8376 -10.7599 -10.6919 -10.6805 -10.5450 -10.5450 -10.5226 -10.5226
   -10.4360 -10.3197  -0.3445   7.1560   8.8442   8.8442

          k =-0.2500 0.0000 0.4582 (   731 PWs)   bands (ev):

   -10.7991 -10.6599 -10.6586 -10.6147 -10.5955 -10.5472 -10.5385 -10.5196
   -10.4500 -10.3538   0.8933   6.5815   9.0495  11.2857

          k = 0.5000 0.0000-0.9164 (   728 PWs)   bands (ev):

   -10.7599 -10.6790 -10.6671 -10.6159 -10.5867 -10.5774 -10.4771 -10.4364
   -10.4224 -10.3940   3.8526   5.3980   8.4870   9.1185

          k =-0.2500 0.2500 0.9164 (   719 PWs)   bands (ev):

   -10.7664 -10.6706 -10.6230 -10.6088 -10.6041 -10.5526 -10.5022 -10.4714
   -10.4021 -10.3734   3.7385   6.0501   7.1285   9.1126

          k = 0.5000 0.2500-0.4582 (   723 PWs)   bands (ev):

   -10.7333 -10.6731 -10.6685 -10.6131 -10.5939 -10.5365 -10.4993 -10.4896
   -10.4749 -10.4171   2.0052   4.1415   9.3997  10.6326

          k = 0.2500 0.2500 0.0000 (   734 PWs)   bands (ev):

   -10.7823 -10.7554 -10.7187 -10.6493 -10.5596 -10.5148 -10.5137 -10.5025
   -10.4542 -10.3743   0.2200   4.5878   9.5108  10.5402

          k = 0.5000-0.5000-1.8328 (   720 PWs)   bands (ev):

   -10.7483 -10.7483 -10.6491 -10.6491 -10.5520 -10.5520 -10.4879 -10.4879
   -10.4443 -10.4443   1.9025   1.9025  11.4227  11.4227

          k = 0.0000 0.0000 0.9164 (   729 PWs)   bands (ev):

   -10.7592 -10.6473 -10.6473 -10.6070 -10.5758 -10.5758 -10.5560 -10.4637
   -10.4049 -10.3675   3.2958   7.1406   7.9765   9.4648

          k = 0.7500 0.0000-0.4582 (   718 PWs)   bands (ev):

   -10.7210 -10.6780 -10.6125 -10.5995 -10.5570 -10.5388 -10.5355 -10.4948
   -10.4920 -10.4445   3.0232   4.3584   7.2691   8.4622

          k = 0.5000 0.0000 0.0000 (   731 PWs)   bands (ev):

   -10.7697 -10.7362 -10.7227 -10.6244 -10.5405 -10.5325 -10.5257 -10.4829
   -10.4753 -10.4191   0.7822   4.3530   7.0868  10.7968

          k = 0.7500-0.7500-1.8328 (   714 PWs)   bands (ev):

   -10.7578 -10.7578 -10.6166 -10.6166 -10.5426 -10.5426 -10.4935 -10.4935
   -10.4725 -10.4725   2.4061   2.4061   7.9970   7.9970

          k = 0.5000-0.5000-0.9164 (   732 PWs)   bands (ev):

   -10.7326 -10.7326 -10.6537 -10.6537 -10.5467 -10.5467 -10.4546 -10.4546
   -10.4258 -10.4258   4.8047   4.8047   7.2872   7.2872

          k = 0.0000 0.0000-1.8328 (   716 PWs)   bands (ev):

   -10.7662 -10.7662 -10.5673 -10.5673 -10.5336 -10.5336 -10.5187 -10.5187
   -10.5123 -10.5123   3.2413   3.2413   6.0196   6.0196

     highest occupied level (ev):    11.4227

!    total energy              =    -325.50693860 Ry
     estimated scf accuracy    <       0.00000004 Ry

     The total energy is the sum of the following terms:
     one-electron contribution =    -107.17996215 Ry
     hartree contribution      =      74.38236583 Ry
     xc contribution           =     -95.19403907 Ry
     ewald contribution        =    -197.51530321 Ry

     convergence has been achieved in   5 iterations

     Writing all to output data dir ./beta-sn-scf/betatin.save/ :
     XML data file, charge density, pseudopotentials, collected wavefunctions

     init_run     :      0.21s CPU      0.27s WALL (       1 calls)
     electrons    :      0.12s CPU      0.17s WALL (       1 calls)

     Called by init_run:
     wfcinit      :      0.01s CPU      0.02s WALL (       1 calls)
     potinit      :      0.01s CPU      0.02s WALL (       1 calls)
     hinit0       :      0.19s CPU      0.20s WALL (       1 calls)

     Called by electrons:
     c_bands      :      0.09s CPU      0.09s WALL (       6 calls)
     sum_band     :      0.01s CPU      0.03s WALL (       6 calls)
     v_of_rho     :      0.01s CPU      0.02s WALL (       6 calls)
     newd         :      0.01s CPU      0.01s WALL (       6 calls)
     mix_rho      :      0.00s CPU      0.00s WALL (       6 calls)

     Called by c_bands:
     init_us_2    :      0.00s CPU      0.00s WALL (      26 calls)
     cegterg      :      0.07s CPU      0.08s WALL (      12 calls)

     Called by *egterg:
     cdiaghg      :      0.01s CPU      0.02s WALL (      49 calls)
     h_psi        :      0.05s CPU      0.06s WALL (      53 calls)
     s_psi        :      0.00s CPU      0.00s WALL (      53 calls)
     g_psi        :      0.00s CPU      0.00s WALL (      39 calls)

     Called by h_psi:
     h_psi:calbec :      0.00s CPU      0.00s WALL (      53 calls)
     vloc_psi     :      0.05s CPU      0.06s WALL (      53 calls)
     add_vuspsi   :      0.00s CPU      0.00s WALL (      53 calls)

     General routines
     calbec       :      0.00s CPU      0.00s WALL (      65 calls)
     fft          :      0.17s CPU      0.17s WALL (      67 calls)
     ffts         :      0.00s CPU      0.00s WALL (       6 calls)
     fftw         :      0.05s CPU      0.06s WALL (    1114 calls)

     Parallel routines

     PWSCF        :      0.54s CPU      0.81s WALL


   This run was terminated on:  15:47:22   5Feb2026            

=------------------------------------------------------------------------------=
   JOB DONE.
=------------------------------------------------------------------------------=
