
     Program PWSCF v.7.3.1 starts on  4Feb2026 at 12: 1:46 

     This program is part of the open-source Quantum ESPRESSO suite
     for quantum simulation of materials; please cite
         "P. Giannozzi et al., J. Phys.:Condens. Matter 21 395502 (2009);
         "P. Giannozzi et al., J. Phys.:Condens. Matter 29 465901 (2017);
         "P. Giannozzi et al., J. Chem. Phys. 152 154105 (2020);
          URL http://www.quantum-espresso.org", 
     in publications or presentations arising from this work. More details at
     http://www.quantum-espresso.org/quote

     Parallel version (MPI), running on   128 processors

     MPI processes distributed on     1 nodes
     240588 MiB available memory on the printing compute node when the environment starts

     Waiting for input...
     Reading input from standard input

     Current dimensions of program PWSCF are:
     Max number of different atomic species (ntypx) = 10
     Max number of k-points (npk) =  40000
     Max angular momentum in pseudopotentials (lmaxx) =  4

     K-points division:     npool     =       4
     R & G space division:  proc/nbgrp/npool/nimage =      32
     Subspace diagonalization in iterative solution of the eigenvalue problem:
     a serial algorithm will be used


     Parallelization info
     --------------------
     sticks:   dense  smooth     PW     G-vecs:    dense   smooth      PW
     Min         171     171     49                 6089     6089     947
     Max         172     172     50                 6092     6092     950
     Sum        5497    5497   1593               194895   194895   30349

     Using Slab Decomposition



     bravais-lattice index     =            7
     lattice parameter (alat)  =      11.0200  a.u.
     unit-cell volume          =     365.0809 (a.u.)^3
     number of atoms/cell      =            2
     number of atomic types    =            1
     number of electrons       =        28.00
     number of Kohn-Sham states=           14
     kinetic-energy cutoff     =     250.0000  Ry
     charge density cutoff     =    1000.0000  Ry
     scf convergence threshold =      1.0E-07
     mixing beta               =       0.7000
     number of iterations used =            8  plain     mixing
     Exchange-correlation=  SLA  PW   GGX  GGC
                           (   1   4   2   2   0   0   0)

     celldm(1)=  11.020000  celldm(2)=   0.000000  celldm(3)=   0.545600
     celldm(4)=   0.000000  celldm(5)=   0.000000  celldm(6)=   0.000000

     crystal axes: (cart. coord. in units of alat)
               a(1) = (   0.500000  -0.500000   0.272800 )  
               a(2) = (   0.500000   0.500000   0.272800 )  
               a(3) = (  -0.500000  -0.500000   0.272800 )  

     reciprocal axes: (cart. coord. in units 2 pi/alat)
               b(1) = (  1.000000 -1.000000  0.000000 )  
               b(2) = (  0.000000  1.000000  1.832845 )  
               b(3) = ( -1.000000  0.000000  1.832845 )  


     PseudoPot. # 1 for Sn read from file:
     ./Sn.pw91-n-van.UPF
     MD5 check sum: a38d2a872edd1a4efd76c0a1a38f7031
     Pseudo is Ultrasoft + core correction, Zval = 14.0
     Generated by new atomic code, or converted to UPF format
     Using radial grid of  891 points,  6 beta functions with: 
                l(1) =   0
                l(2) =   0
                l(3) =   1
                l(4) =   1
                l(5) =   2
                l(6) =   2
     Q(r) pseudized with  8 coefficients,  rinner =    1.100   1.100   1.100
                                                       1.100   1.100

     atomic species   valence    mass     pseudopotential
     Sn               14.00   118.70000     Sn( 1.00)

     16 Sym. Ops., with inversion, found (12 have fractional translation)



   Cartesian axes

     site n.     atom                  positions (alat units)
         1        Sn     tau(   1) = (   0.0000000  -0.2500000   0.0682000  )
         2        Sn     tau(   2) = (   0.0000000   0.2500000  -0.0682000  )

     number of k points=    13
                       cart. coord. in units 2pi/alat
        k(    1) = (   0.0000000   0.0000000   0.0000000), wk =   0.0312500
        k(    2) = (  -0.2500000   0.0000000   0.4582111), wk =   0.2500000
        k(    3) = (   0.5000000   0.0000000  -0.9164223), wk =   0.1250000
        k(    4) = (  -0.2500000   0.2500000   0.9164223), wk =   0.2500000
        k(    5) = (   0.5000000   0.2500000  -0.4582111), wk =   0.5000000
        k(    6) = (   0.2500000   0.2500000   0.0000000), wk =   0.1250000
        k(    7) = (   0.5000000  -0.5000000  -1.8328446), wk =   0.0625000
        k(    8) = (   0.0000000   0.0000000   0.9164223), wk =   0.0625000
        k(    9) = (   0.7500000   0.0000000  -0.4582111), wk =   0.2500000
        k(   10) = (   0.5000000   0.0000000   0.0000000), wk =   0.1250000
        k(   11) = (   0.7500000  -0.7500000  -1.8328446), wk =   0.1250000
        k(   12) = (   0.5000000  -0.5000000  -0.9164223), wk =   0.0625000
        k(   13) = (   0.0000000   0.0000000  -1.8328446), wk =   0.0312500

     Dense  grid:   194895 G-vectors     FFT dimensions: (  90,  90,  90)

     Estimated max dynamical RAM per process >      12.40 MB

     Estimated total dynamical RAM >       1.41 GB

     Initial potential from superposition of free atoms

     starting charge      27.9964, renormalised to      28.0000
     Starting wfcs are   18 randomized atomic wfcs

     total cpu time spent up to now is        1.1 secs

     per-process dynamical memory:    15.8 Mb

     Self-consistent Calculation

     iteration #  1     ecut=   250.00 Ry     beta= 0.70
     Davidson diagonalization with overlap
     ethr =  1.00E-02,  avg # of iterations =  2.1

     Threshold (ethr) on eigenvalues was too large:
     Diagonalizing with lowered threshold

     Davidson diagonalization with overlap
     ethr =  1.45E-05,  avg # of iterations =  5.4

     total cpu time spent up to now is        1.6 secs

     total energy              =    -325.57609271 Ry
     estimated scf accuracy    <       0.00625518 Ry

     iteration #  2     ecut=   250.00 Ry     beta= 0.70
     Davidson diagonalization with overlap
     ethr =  2.23E-05,  avg # of iterations =  2.8

     total cpu time spent up to now is        1.8 secs

     total energy              =    -325.59064521 Ry
     estimated scf accuracy    <       0.00070638 Ry

     iteration #  3     ecut=   250.00 Ry     beta= 0.70
     Davidson diagonalization with overlap
     ethr =  2.52E-06,  avg # of iterations =  2.2

     total cpu time spent up to now is        2.0 secs

     total energy              =    -325.59158751 Ry
     estimated scf accuracy    <       0.00005399 Ry

     iteration #  4     ecut=   250.00 Ry     beta= 0.70
     Davidson diagonalization with overlap
     ethr =  1.93E-07,  avg # of iterations =  2.9

     total cpu time spent up to now is        2.3 secs

     total energy              =    -325.59159614 Ry
     estimated scf accuracy    <       0.00000180 Ry

     iteration #  5     ecut=   250.00 Ry     beta= 0.70
     Davidson diagonalization with overlap
     ethr =  6.42E-09,  avg # of iterations =  3.5

     total cpu time spent up to now is        2.5 secs

     End of self-consistent calculation

          k = 0.0000 0.0000 0.0000 ( 24335 PWs)   bands (ev):

   -10.8108 -10.7282 -10.6843 -10.6730 -10.5229 -10.5229 -10.5119 -10.5119
   -10.4198 -10.3078  -0.3466   7.1625   8.8402   8.8402

          k =-0.2500 0.0000 0.4582 ( 24363 PWs)   bands (ev):

   -10.7749 -10.6470 -10.6425 -10.6013 -10.5788 -10.5375 -10.5291 -10.5062
   -10.4408 -10.3423   0.8916   6.5850   9.0443  11.2837

          k = 0.5000 0.0000-0.9164 ( 24350 PWs)   bands (ev):

   -10.7356 -10.6652 -10.6484 -10.6090 -10.5749 -10.5720 -10.4732 -10.4261
   -10.4224 -10.3759   3.8542   5.3963   8.4881   9.1147

          k =-0.2500 0.2500 0.9164 ( 24387 PWs)   bands (ev):

   -10.7495 -10.6618 -10.6185 -10.6014 -10.5997 -10.5491 -10.4903 -10.4709
   -10.3946 -10.3668   3.7395   6.0519   7.1236   9.1087

          k = 0.5000 0.2500-0.4582 ( 24354 PWs)   bands (ev):

   -10.7182 -10.6588 -10.6552 -10.6012 -10.5840 -10.5269 -10.4932 -10.4856
   -10.4684 -10.4040   2.0041   4.1418   9.3959  10.6283

          k = 0.2500 0.2500 0.0000 ( 24325 PWs)   bands (ev):

   -10.7609 -10.7350 -10.6997 -10.6425 -10.5496 -10.5022 -10.5005 -10.4925
   -10.4492 -10.3564   0.2180   4.5885   9.5068  10.5383

          k = 0.5000-0.5000-1.8328 ( 24384 PWs)   bands (ev):

   -10.7314 -10.7314 -10.6435 -10.6435 -10.5495 -10.5495 -10.4783 -10.4783
   -10.4391 -10.4391   1.9012   1.9012  11.4187  11.4187

          k = 0.0000 0.0000 0.9164 ( 24375 PWs)   bands (ev):

   -10.7411 -10.6335 -10.6335 -10.6138 -10.5690 -10.5690 -10.5451 -10.4516
   -10.3971 -10.3512   3.2962   7.1442   7.9735   9.4593

          k = 0.7500 0.0000-0.4582 ( 24399 PWs)   bands (ev):

   -10.7054 -10.6632 -10.6006 -10.5912 -10.5566 -10.5400 -10.5292 -10.4924
   -10.4863 -10.4301   3.0233   4.3606   7.2620   8.4577

          k = 0.5000 0.0000 0.0000 ( 24340 PWs)   bands (ev):

   -10.7468 -10.7173 -10.7052 -10.6111 -10.5271 -10.5192 -10.5153 -10.4725
   -10.4702 -10.4012   0.7806   4.3551   7.0801  10.7930

          k = 0.7500-0.7500-1.8328 ( 24372 PWs)   bands (ev):

   -10.7379 -10.7379 -10.6057 -10.6057 -10.5417 -10.5417 -10.4925 -10.4925
   -10.4638 -10.4638   2.4056   2.4056   7.9920   7.9920

          k = 0.5000-0.5000-0.9164 ( 24424 PWs)   bands (ev):

   -10.7137 -10.7137 -10.6434 -10.6434 -10.5357 -10.5357 -10.4422 -10.4422
   -10.4153 -10.4153   4.8067   4.8067   7.2813   7.2813

          k = 0.0000 0.0000-1.8328 ( 24392 PWs)   bands (ev):

   -10.7407 -10.7407 -10.5420 -10.5420 -10.5315 -10.5315 -10.5200 -10.5200
   -10.5073 -10.5073   3.2434   3.2434   6.0122   6.0122

     highest occupied level (ev):    11.4187

!    total energy              =    -325.59159705 Ry
     estimated scf accuracy    <       0.00000007 Ry

     The total energy is the sum of the following terms:
     one-electron contribution =    -107.33168481 Ry
     hartree contribution      =      74.47821950 Ry
     xc contribution           =     -95.22282855 Ry
     ewald contribution        =    -197.51530320 Ry

     convergence has been achieved in   5 iterations

     Writing all to output data dir ./beta-sn-scf/betatin.save/ :
     XML data file, charge density, pseudopotentials, collected wavefunctions

     init_run     :      0.65s CPU      0.74s WALL (       1 calls)
     electrons    :      1.35s CPU      1.51s WALL (       1 calls)

     Called by init_run:
     wfcinit      :      0.07s CPU      0.09s WALL (       1 calls)
     potinit      :      0.03s CPU      0.05s WALL (       1 calls)
     hinit0       :      0.41s CPU      0.43s WALL (       1 calls)

     Called by electrons:
     c_bands      :      0.92s CPU      0.96s WALL (       6 calls)
     sum_band     :      0.24s CPU      0.26s WALL (       6 calls)
     v_of_rho     :      0.14s CPU      0.17s WALL (       6 calls)
     newd         :      0.05s CPU      0.07s WALL (       6 calls)
     mix_rho      :      0.01s CPU      0.01s WALL (       6 calls)

     Called by c_bands:
     init_us_2    :      0.02s CPU      0.02s WALL (      52 calls)
     cegterg      :      0.84s CPU      0.87s WALL (      24 calls)

     Called by *egterg:
     cdiaghg      :      0.03s CPU      0.03s WALL (      95 calls)
     h_psi        :      0.79s CPU      0.82s WALL (     103 calls)
     s_psi        :      0.01s CPU      0.01s WALL (     103 calls)
     g_psi        :      0.00s CPU      0.00s WALL (      75 calls)

     Called by h_psi:
     h_psi:calbec :      0.02s CPU      0.02s WALL (     103 calls)
     vloc_psi     :      0.75s CPU      0.78s WALL (     103 calls)
     add_vuspsi   :      0.01s CPU      0.01s WALL (     103 calls)

     General routines
     calbec       :      0.03s CPU      0.03s WALL (     127 calls)
     fft          :      0.44s CPU      0.48s WALL (      67 calls)
     ffts         :      0.01s CPU      0.01s WALL (       6 calls)
     fftw         :      0.79s CPU      0.83s WALL (    2282 calls)

     Parallel routines

     PWSCF        :      2.32s CPU      2.80s WALL


   This run was terminated on:  12: 1:49   4Feb2026            

=------------------------------------------------------------------------------=
   JOB DONE.
=------------------------------------------------------------------------------=
