
     Program PWSCF v.7.3.1 starts on  4Feb2026 at 11:18: 1 

     This program is part of the open-source Quantum ESPRESSO suite
     for quantum simulation of materials; please cite
         "P. Giannozzi et al., J. Phys.:Condens. Matter 21 395502 (2009);
         "P. Giannozzi et al., J. Phys.:Condens. Matter 29 465901 (2017);
         "P. Giannozzi et al., J. Chem. Phys. 152 154105 (2020);
          URL http://www.quantum-espresso.org", 
     in publications or presentations arising from this work. More details at
     http://www.quantum-espresso.org/quote

     Parallel version (MPI), running on   128 processors

     MPI processes distributed on     1 nodes
     242053 MiB available memory on the printing compute node when the environment starts

     Waiting for input...
     Reading input from standard input

     Current dimensions of program PWSCF are:
     Max number of different atomic species (ntypx) = 10
     Max number of k-points (npk) =  40000
     Max angular momentum in pseudopotentials (lmaxx) =  4

     K-points division:     npool     =       8
     R & G space division:  proc/nbgrp/npool/nimage =      16
     Subspace diagonalization in iterative solution of the eigenvalue problem:
     a serial algorithm will be used


     Parallelization info
     --------------------
     sticks:   dense  smooth     PW     G-vecs:    dense   smooth      PW
     Min          41      41     14                  506      506     113
     Max          42      42     15                  507      507     116
     Sum         663     663    239                 8099     8099    1851

     Using Slab Decomposition



     bravais-lattice index     =            7
     lattice parameter (alat)  =      11.0200  a.u.
     unit-cell volume          =     365.0809 (a.u.)^3
     number of atoms/cell      =            2
     number of atomic types    =            1
     number of electrons       =        28.00
     number of Kohn-Sham states=           14
     kinetic-energy cutoff     =      30.0000  Ry
     charge density cutoff     =     120.0000  Ry
     scf convergence threshold =      1.0E-07
     mixing beta               =       0.7000
     number of iterations used =            8  plain     mixing
     Exchange-correlation=  SLA  PW   GGX  GGC
                           (   1   4   2   2   0   0   0)

     celldm(1)=  11.020000  celldm(2)=   0.000000  celldm(3)=   0.545600
     celldm(4)=   0.000000  celldm(5)=   0.000000  celldm(6)=   0.000000

     crystal axes: (cart. coord. in units of alat)
               a(1) = (   0.500000  -0.500000   0.272800 )  
               a(2) = (   0.500000   0.500000   0.272800 )  
               a(3) = (  -0.500000  -0.500000   0.272800 )  

     reciprocal axes: (cart. coord. in units 2 pi/alat)
               b(1) = (  1.000000 -1.000000  0.000000 )  
               b(2) = (  0.000000  1.000000  1.832845 )  
               b(3) = ( -1.000000  0.000000  1.832845 )  


     PseudoPot. # 1 for Sn read from file:
     ./Sn.pw91-n-van.UPF
     MD5 check sum: a38d2a872edd1a4efd76c0a1a38f7031
     Pseudo is Ultrasoft + core correction, Zval = 14.0
     Generated by new atomic code, or converted to UPF format
     Using radial grid of  891 points,  6 beta functions with: 
                l(1) =   0
                l(2) =   0
                l(3) =   1
                l(4) =   1
                l(5) =   2
                l(6) =   2
     Q(r) pseudized with  8 coefficients,  rinner =    1.100   1.100   1.100
                                                       1.100   1.100

     atomic species   valence    mass     pseudopotential
     Sn               14.00   118.70000     Sn( 1.00)

     16 Sym. Ops., with inversion, found (12 have fractional translation)



   Cartesian axes

     site n.     atom                  positions (alat units)
         1        Sn     tau(   1) = (   0.0000000  -0.2500000   0.0682000  )
         2        Sn     tau(   2) = (   0.0000000   0.2500000  -0.0682000  )

     number of k points=    13
                       cart. coord. in units 2pi/alat
        k(    1) = (   0.0000000   0.0000000   0.0000000), wk =   0.0312500
        k(    2) = (  -0.2500000   0.0000000   0.4582111), wk =   0.2500000
        k(    3) = (   0.5000000   0.0000000  -0.9164223), wk =   0.1250000
        k(    4) = (  -0.2500000   0.2500000   0.9164223), wk =   0.2500000
        k(    5) = (   0.5000000   0.2500000  -0.4582111), wk =   0.5000000
        k(    6) = (   0.2500000   0.2500000   0.0000000), wk =   0.1250000
        k(    7) = (   0.5000000  -0.5000000  -1.8328446), wk =   0.0625000
        k(    8) = (   0.0000000   0.0000000   0.9164223), wk =   0.0625000
        k(    9) = (   0.7500000   0.0000000  -0.4582111), wk =   0.2500000
        k(   10) = (   0.5000000   0.0000000   0.0000000), wk =   0.1250000
        k(   11) = (   0.7500000  -0.7500000  -1.8328446), wk =   0.1250000
        k(   12) = (   0.5000000  -0.5000000  -0.9164223), wk =   0.0625000
        k(   13) = (   0.0000000   0.0000000  -1.8328446), wk =   0.0312500

     Dense  grid:     8099 G-vectors     FFT dimensions: (  30,  30,  30)

     Estimated max dynamical RAM per process >       1.48 MB

     Estimated total dynamical RAM >     175.23 MB

     Initial potential from superposition of free atoms

     starting charge      27.9964, renormalised to      28.0000
     Starting wfcs are   18 randomized atomic wfcs

     total cpu time spent up to now is        0.6 secs

     per-process dynamical memory:     8.9 Mb

     Self-consistent Calculation

     iteration #  1     ecut=    30.00 Ry     beta= 0.70
     Davidson diagonalization with overlap
     ethr =  1.00E-02,  avg # of iterations =  1.8

     Threshold (ethr) on eigenvalues was too large:
     Diagonalizing with lowered threshold

     Davidson diagonalization with overlap
     ethr =  2.49E-05,  avg # of iterations =  3.5

     total cpu time spent up to now is        0.6 secs

     total energy              =    -325.54294762 Ry
     estimated scf accuracy    <       0.00711208 Ry

     iteration #  2     ecut=    30.00 Ry     beta= 0.70
     Davidson diagonalization with overlap
     ethr =  2.54E-05,  avg # of iterations =  2.0

     total cpu time spent up to now is        0.6 secs

     total energy              =    -325.54387777 Ry
     estimated scf accuracy    <       0.00056907 Ry

     iteration #  3     ecut=    30.00 Ry     beta= 0.70
     Davidson diagonalization with overlap
     ethr =  2.03E-06,  avg # of iterations =  2.2

     total cpu time spent up to now is        0.7 secs

     total energy              =    -325.54393856 Ry
     estimated scf accuracy    <       0.00004088 Ry

     iteration #  4     ecut=    30.00 Ry     beta= 0.70
     Davidson diagonalization with overlap
     ethr =  1.46E-07,  avg # of iterations =  3.1

     total cpu time spent up to now is        0.7 secs

     total energy              =    -325.54394551 Ry
     estimated scf accuracy    <       0.00000068 Ry

     iteration #  5     ecut=    30.00 Ry     beta= 0.70
     Davidson diagonalization with overlap
     ethr =  2.42E-09,  avg # of iterations =  3.8

     total cpu time spent up to now is        0.7 secs

     End of self-consistent calculation

          k = 0.0000 0.0000 0.0000 (  1005 PWs)   bands (ev):

   -10.7853 -10.7044 -10.6614 -10.6493 -10.4975 -10.4975 -10.4859 -10.4859
   -10.3955 -10.2811  -0.3484   7.1566   8.8406   8.8406

          k =-0.2500 0.0000 0.4582 (  1009 PWs)   bands (ev):

   -10.7494 -10.6236 -10.6175 -10.5759 -10.5535 -10.5115 -10.5035 -10.4807
   -10.4164 -10.3158   0.8897   6.5805   9.0453  11.2833

          k = 0.5000 0.0000-0.9164 (  1018 PWs)   bands (ev):

   -10.7101 -10.6398 -10.6240 -10.5834 -10.5505 -10.5458 -10.4488 -10.4000
   -10.3960 -10.3495   3.8507   5.3947   8.4856   9.1154

          k =-0.2500 0.2500 0.9164 (  1018 PWs)   bands (ev):

   -10.7242 -10.6368 -10.5929 -10.5772 -10.5739 -10.5237 -10.4646 -10.4461
   -10.3683 -10.3403   3.7364   6.0483   7.1244   9.1094

          k = 0.5000 0.2500-0.4582 (  1011 PWs)   bands (ev):

   -10.6928 -10.6336 -10.6301 -10.5759 -10.5597 -10.5015 -10.4685 -10.4603
   -10.4426 -10.3778   2.0020   4.1390   9.3961  10.6294

          k = 0.2500 0.2500 0.0000 (  1030 PWs)   bands (ev):

   -10.7354 -10.7112 -10.6760 -10.6192 -10.5238 -10.4766 -10.4751 -10.4665
   -10.4247 -10.3300   0.2162   4.5857   9.5075  10.5373

          k = 0.5000-0.5000-1.8328 (  1010 PWs)   bands (ev):

   -10.7076 -10.7076 -10.6175 -10.6175 -10.5253 -10.5253 -10.4526 -10.4526
   -10.4131 -10.4131   1.8991   1.8991  11.4200  11.4200

          k = 0.0000 0.0000 0.9164 (  1005 PWs)   bands (ev):

   -10.7152 -10.6086 -10.6086 -10.5901 -10.5429 -10.5429 -10.5192 -10.4270
   -10.3708 -10.3249   3.2934   7.1399   7.9735   9.4603

          k = 0.7500 0.0000-0.4582 (  1014 PWs)   bands (ev):

   -10.6798 -10.6380 -10.5751 -10.5665 -10.5317 -10.5140 -10.5036 -10.4678
   -10.4606 -10.4041   3.0208   4.3571   7.2636   8.4582

          k = 0.5000 0.0000 0.0000 (  1016 PWs)   bands (ev):

   -10.7223 -10.6932 -10.6802 -10.5873 -10.5013 -10.4936 -10.4895 -10.4467
   -10.4455 -10.3750   0.7787   4.3518   7.0816  10.7936

          k = 0.7500-0.7500-1.8328 (  1016 PWs)   bands (ev):

   -10.7137 -10.7137 -10.5800 -10.5800 -10.5173 -10.5173 -10.4666 -10.4666
   -10.4379 -10.4379   2.4033   2.4033   7.9927   7.9927

          k = 0.5000-0.5000-0.9164 (  1008 PWs)   bands (ev):

   -10.6886 -10.6886 -10.6180 -10.6180 -10.5115 -10.5115 -10.4160 -10.4160
   -10.3890 -10.3890   4.8029   4.8029   7.2829   7.2829

          k = 0.0000 0.0000-1.8328 (  1002 PWs)   bands (ev):

   -10.7163 -10.7163 -10.5165 -10.5165 -10.5068 -10.5068 -10.4942 -10.4942
   -10.4809 -10.4809   3.2404   3.2404   6.0137   6.0137

     highest occupied level (ev):    11.4200

!    total energy              =    -325.54394574 Ry
     estimated scf accuracy    <       0.00000007 Ry

     The total energy is the sum of the following terms:
     one-electron contribution =    -107.27343165 Ry
     hartree contribution      =      74.47092300 Ry
     xc contribution           =     -95.22613386 Ry
     ewald contribution        =    -197.51530323 Ry

     convergence has been achieved in   5 iterations

     Writing all to output data dir ./beta-sn-scf/betatin.save/ :
     XML data file, charge density, pseudopotentials, collected wavefunctions

     init_run     :      0.22s CPU      0.26s WALL (       1 calls)
     electrons    :      0.12s CPU      0.16s WALL (       1 calls)

     Called by init_run:
     wfcinit      :      0.00s CPU      0.01s WALL (       1 calls)
     potinit      :      0.01s CPU      0.02s WALL (       1 calls)
     hinit0       :      0.19s CPU      0.20s WALL (       1 calls)

     Called by electrons:
     c_bands      :      0.07s CPU      0.09s WALL (       6 calls)
     sum_band     :      0.02s CPU      0.03s WALL (       6 calls)
     v_of_rho     :      0.01s CPU      0.02s WALL (       6 calls)
     newd         :      0.00s CPU      0.01s WALL (       6 calls)
     mix_rho      :      0.00s CPU      0.00s WALL (       6 calls)

     Called by c_bands:
     init_us_2    :      0.00s CPU      0.00s WALL (      26 calls)
     cegterg      :      0.06s CPU      0.07s WALL (      12 calls)

     Called by *egterg:
     cdiaghg      :      0.01s CPU      0.02s WALL (      51 calls)
     h_psi        :      0.04s CPU      0.05s WALL (      55 calls)
     s_psi        :      0.00s CPU      0.00s WALL (      55 calls)
     g_psi        :      0.00s CPU      0.00s WALL (      41 calls)

     Called by h_psi:
     h_psi:calbec :      0.00s CPU      0.00s WALL (      55 calls)
     vloc_psi     :      0.04s CPU      0.05s WALL (      55 calls)
     add_vuspsi   :      0.00s CPU      0.00s WALL (      55 calls)

     General routines
     calbec       :      0.00s CPU      0.00s WALL (      67 calls)
     fft          :      0.16s CPU      0.17s WALL (      67 calls)
     ffts         :      0.00s CPU      0.00s WALL (       6 calls)
     fftw         :      0.04s CPU      0.06s WALL (    1080 calls)

     Parallel routines

     PWSCF        :      0.54s CPU      0.80s WALL


   This run was terminated on:  11:18: 2   4Feb2026            

=------------------------------------------------------------------------------=
   JOB DONE.
=------------------------------------------------------------------------------=
