
     Program PWSCF v.7.3.1 starts on  4Feb2026 at 12: 3: 0 

     This program is part of the open-source Quantum ESPRESSO suite
     for quantum simulation of materials; please cite
         "P. Giannozzi et al., J. Phys.:Condens. Matter 21 395502 (2009);
         "P. Giannozzi et al., J. Phys.:Condens. Matter 29 465901 (2017);
         "P. Giannozzi et al., J. Chem. Phys. 152 154105 (2020);
          URL http://www.quantum-espresso.org", 
     in publications or presentations arising from this work. More details at
     http://www.quantum-espresso.org/quote

     Parallel version (MPI), running on   128 processors

     MPI processes distributed on     1 nodes
     240559 MiB available memory on the printing compute node when the environment starts

     Waiting for input...
     Reading input from standard input

     Current dimensions of program PWSCF are:
     Max number of different atomic species (ntypx) = 10
     Max number of k-points (npk) =  40000
     Max angular momentum in pseudopotentials (lmaxx) =  4

     K-points division:     npool     =       4
     R & G space division:  proc/nbgrp/npool/nimage =      32
     Subspace diagonalization in iterative solution of the eigenvalue problem:
     a serial algorithm will be used


     Parallelization info
     --------------------
     sticks:   dense  smooth     PW     G-vecs:    dense   smooth      PW
     Min         206     206     59                 8005     8005    1223
     Max         207     207     60                 8007     8007    1226
     Sum        6597    6597   1889               256185   256185   39185

     Using Slab Decomposition



     bravais-lattice index     =            7
     lattice parameter (alat)  =      11.0200  a.u.
     unit-cell volume          =     365.0809 (a.u.)^3
     number of atoms/cell      =            2
     number of atomic types    =            1
     number of electrons       =        28.00
     number of Kohn-Sham states=           14
     kinetic-energy cutoff     =     300.0000  Ry
     charge density cutoff     =    1200.0000  Ry
     scf convergence threshold =      1.0E-07
     mixing beta               =       0.7000
     number of iterations used =            8  plain     mixing
     Exchange-correlation=  SLA  PW   GGX  GGC
                           (   1   4   2   2   0   0   0)

     celldm(1)=  11.020000  celldm(2)=   0.000000  celldm(3)=   0.545600
     celldm(4)=   0.000000  celldm(5)=   0.000000  celldm(6)=   0.000000

     crystal axes: (cart. coord. in units of alat)
               a(1) = (   0.500000  -0.500000   0.272800 )  
               a(2) = (   0.500000   0.500000   0.272800 )  
               a(3) = (  -0.500000  -0.500000   0.272800 )  

     reciprocal axes: (cart. coord. in units 2 pi/alat)
               b(1) = (  1.000000 -1.000000  0.000000 )  
               b(2) = (  0.000000  1.000000  1.832845 )  
               b(3) = ( -1.000000  0.000000  1.832845 )  


     PseudoPot. # 1 for Sn read from file:
     ./Sn.pw91-n-van.UPF
     MD5 check sum: a38d2a872edd1a4efd76c0a1a38f7031
     Pseudo is Ultrasoft + core correction, Zval = 14.0
     Generated by new atomic code, or converted to UPF format
     Using radial grid of  891 points,  6 beta functions with: 
                l(1) =   0
                l(2) =   0
                l(3) =   1
                l(4) =   1
                l(5) =   2
                l(6) =   2
     Q(r) pseudized with  8 coefficients,  rinner =    1.100   1.100   1.100
                                                       1.100   1.100

     atomic species   valence    mass     pseudopotential
     Sn               14.00   118.70000     Sn( 1.00)

     16 Sym. Ops., with inversion, found (12 have fractional translation)



   Cartesian axes

     site n.     atom                  positions (alat units)
         1        Sn     tau(   1) = (   0.0000000  -0.2500000   0.0682000  )
         2        Sn     tau(   2) = (   0.0000000   0.2500000  -0.0682000  )

     number of k points=    13
                       cart. coord. in units 2pi/alat
        k(    1) = (   0.0000000   0.0000000   0.0000000), wk =   0.0312500
        k(    2) = (  -0.2500000   0.0000000   0.4582111), wk =   0.2500000
        k(    3) = (   0.5000000   0.0000000  -0.9164223), wk =   0.1250000
        k(    4) = (  -0.2500000   0.2500000   0.9164223), wk =   0.2500000
        k(    5) = (   0.5000000   0.2500000  -0.4582111), wk =   0.5000000
        k(    6) = (   0.2500000   0.2500000   0.0000000), wk =   0.1250000
        k(    7) = (   0.5000000  -0.5000000  -1.8328446), wk =   0.0625000
        k(    8) = (   0.0000000   0.0000000   0.9164223), wk =   0.0625000
        k(    9) = (   0.7500000   0.0000000  -0.4582111), wk =   0.2500000
        k(   10) = (   0.5000000   0.0000000   0.0000000), wk =   0.1250000
        k(   11) = (   0.7500000  -0.7500000  -1.8328446), wk =   0.1250000
        k(   12) = (   0.5000000  -0.5000000  -0.9164223), wk =   0.0625000
        k(   13) = (   0.0000000   0.0000000  -1.8328446), wk =   0.0312500

     Dense  grid:   256185 G-vectors     FFT dimensions: (  96,  96,  96)

     Estimated max dynamical RAM per process >      15.46 MB

     Estimated total dynamical RAM >       1.75 GB

     Initial potential from superposition of free atoms

     starting charge      27.9964, renormalised to      28.0000
     Starting wfcs are   18 randomized atomic wfcs

     total cpu time spent up to now is        1.4 secs

     per-process dynamical memory:    19.8 Mb

     Self-consistent Calculation

     iteration #  1     ecut=   300.00 Ry     beta= 0.70
     Davidson diagonalization with overlap
     ethr =  1.00E-02,  avg # of iterations =  2.4

     Threshold (ethr) on eigenvalues was too large:
     Diagonalizing with lowered threshold

     Davidson diagonalization with overlap
     ethr =  1.97E-05,  avg # of iterations =  5.0

     total cpu time spent up to now is        2.0 secs

     total energy              =    -325.53970191 Ry
     estimated scf accuracy    <       0.00786498 Ry

     iteration #  2     ecut=   300.00 Ry     beta= 0.70
     Davidson diagonalization with overlap
     ethr =  2.81E-05,  avg # of iterations =  4.5

     total cpu time spent up to now is        2.3 secs

     total energy              =    -325.57705376 Ry
     estimated scf accuracy    <       0.00419499 Ry

     iteration #  3     ecut=   300.00 Ry     beta= 0.70
     Davidson diagonalization with overlap
     ethr =  1.50E-05,  avg # of iterations =  2.0

     total cpu time spent up to now is        2.5 secs

     total energy              =    -325.58766202 Ry
     estimated scf accuracy    <       0.00074416 Ry

     iteration #  4     ecut=   300.00 Ry     beta= 0.70
     Davidson diagonalization with overlap
     ethr =  2.66E-06,  avg # of iterations =  3.0

     total cpu time spent up to now is        2.8 secs

     total energy              =    -325.59238541 Ry
     estimated scf accuracy    <       0.00002540 Ry

     iteration #  5     ecut=   300.00 Ry     beta= 0.70
     Davidson diagonalization with overlap
     ethr =  9.07E-08,  avg # of iterations =  2.8

     total cpu time spent up to now is        3.1 secs

     total energy              =    -325.59243742 Ry
     estimated scf accuracy    <       0.00000814 Ry

     iteration #  6     ecut=   300.00 Ry     beta= 0.70
     Davidson diagonalization with overlap
     ethr =  2.91E-08,  avg # of iterations =  2.0

     total cpu time spent up to now is        3.3 secs

     End of self-consistent calculation

          k = 0.0000 0.0000 0.0000 ( 31969 PWs)   bands (ev):

   -10.8121 -10.7293 -10.6855 -10.6741 -10.5241 -10.5241 -10.5131 -10.5131
   -10.4210 -10.3092  -0.3468   7.1621   8.8401   8.8401

          k =-0.2500 0.0000 0.4582 ( 32046 PWs)   bands (ev):

   -10.7762 -10.6482 -10.6436 -10.6024 -10.5800 -10.5387 -10.5303 -10.5073
   -10.4421 -10.3437   0.8914   6.5847   9.0442  11.2835

          k = 0.5000 0.0000-0.9164 ( 32014 PWs)   bands (ev):

   -10.7369 -10.6664 -10.6496 -10.6102 -10.5761 -10.5731 -10.4744 -10.4273
   -10.4236 -10.3771   3.8539   5.3961   8.4879   9.1145

          k =-0.2500 0.2500 0.9164 ( 32015 PWs)   bands (ev):

   -10.7507 -10.6630 -10.6197 -10.6027 -10.6009 -10.5503 -10.4915 -10.4721
   -10.3957 -10.3681   3.7392   6.0517   7.1234   9.1085

          k = 0.5000 0.2500-0.4582 ( 32019 PWs)   bands (ev):

   -10.7195 -10.6600 -10.6563 -10.6024 -10.5852 -10.5281 -10.4944 -10.4868
   -10.4696 -10.4053   2.0039   4.1416   9.3957  10.6281

          k = 0.2500 0.2500 0.0000 ( 32017 PWs)   bands (ev):

   -10.7622 -10.7361 -10.7009 -10.6437 -10.5509 -10.5034 -10.5017 -10.4937
   -10.4504 -10.3577   0.2179   4.5883   9.5067  10.5380

          k = 0.5000-0.5000-1.8328 ( 32026 PWs)   bands (ev):

   -10.7326 -10.7326 -10.6448 -10.6448 -10.5507 -10.5507 -10.4795 -10.4795
   -10.4404 -10.4404   1.9010   1.9010  11.4185  11.4185

          k = 0.0000 0.0000 0.9164 ( 32009 PWs)   bands (ev):

   -10.7424 -10.6347 -10.6347 -10.6151 -10.5702 -10.5702 -10.5463 -10.4528
   -10.3982 -10.3525   3.2959   7.1439   7.9733   9.4590

          k = 0.7500 0.0000-0.4582 ( 32061 PWs)   bands (ev):

   -10.7067 -10.6644 -10.6018 -10.5924 -10.5579 -10.5412 -10.5303 -10.4937
   -10.4875 -10.4314   3.0231   4.3604   7.2618   8.4575

          k = 0.5000 0.0000 0.0000 ( 32048 PWs)   bands (ev):

   -10.7480 -10.7184 -10.7064 -10.6123 -10.5283 -10.5204 -10.5165 -10.4737
   -10.4714 -10.4025   0.7804   4.3549   7.0800  10.7927

          k = 0.7500-0.7500-1.8328 ( 32106 PWs)   bands (ev):

   -10.7390 -10.7390 -10.6070 -10.6070 -10.5430 -10.5430 -10.4937 -10.4937
   -10.4650 -10.4650   2.4054   2.4054   7.9918   7.9918

          k = 0.5000-0.5000-0.9164 ( 31984 PWs)   bands (ev):

   -10.7150 -10.7150 -10.6445 -10.6445 -10.5370 -10.5370 -10.4435 -10.4435
   -10.4164 -10.4164   4.8065   4.8065   7.2812   7.2812

          k = 0.0000 0.0000-1.8328 ( 32108 PWs)   bands (ev):

   -10.7419 -10.7419 -10.5433 -10.5433 -10.5327 -10.5327 -10.5212 -10.5212
   -10.5084 -10.5084   3.2432   3.2432   6.0121   6.0121

     highest occupied level (ev):    11.4185

!    total energy              =    -325.59243808 Ry
     estimated scf accuracy    <       0.00000009 Ry

     The total energy is the sum of the following terms:
     one-electron contribution =    -107.33314480 Ry
     hartree contribution      =      74.47902058 Ry
     xc contribution           =     -95.22301066 Ry
     ewald contribution        =    -197.51530320 Ry

     convergence has been achieved in   6 iterations

     Writing all to output data dir ./beta-sn-scf/betatin.save/ :
     XML data file, charge density, pseudopotentials, collected wavefunctions

     init_run     :      0.98s CPU      1.11s WALL (       1 calls)
     electrons    :      1.84s CPU      1.98s WALL (       1 calls)

     Called by init_run:
     wfcinit      :      0.09s CPU      0.10s WALL (       1 calls)
     potinit      :      0.03s CPU      0.05s WALL (       1 calls)
     hinit0       :      0.68s CPU      0.72s WALL (       1 calls)

     Called by electrons:
     c_bands      :      1.20s CPU      1.24s WALL (       7 calls)
     sum_band     :      0.35s CPU      0.37s WALL (       7 calls)
     v_of_rho     :      0.19s CPU      0.22s WALL (       7 calls)
     newd         :      0.08s CPU      0.10s WALL (       7 calls)
     mix_rho      :      0.02s CPU      0.02s WALL (       7 calls)

     Called by c_bands:
     init_us_2    :      0.03s CPU      0.03s WALL (      60 calls)
     cegterg      :      1.10s CPU      1.12s WALL (      28 calls)

     Called by *egterg:
     cdiaghg      :      0.04s CPU      0.04s WALL (     116 calls)
     h_psi        :      1.03s CPU      1.05s WALL (     124 calls)
     s_psi        :      0.02s CPU      0.02s WALL (     124 calls)
     g_psi        :      0.00s CPU      0.00s WALL (      92 calls)

     Called by h_psi:
     h_psi:calbec :      0.03s CPU      0.03s WALL (     124 calls)
     vloc_psi     :      0.97s CPU      0.99s WALL (     124 calls)
     add_vuspsi   :      0.02s CPU      0.02s WALL (     124 calls)

     General routines
     calbec       :      0.04s CPU      0.04s WALL (     152 calls)
     fft          :      0.76s CPU      0.80s WALL (      78 calls)
     ffts         :      0.01s CPU      0.02s WALL (       7 calls)
     fftw         :      1.03s CPU      1.05s WALL (    2578 calls)

     Parallel routines

     PWSCF        :      3.10s CPU      3.74s WALL


   This run was terminated on:  12: 3: 4   4Feb2026            

=------------------------------------------------------------------------------=
   JOB DONE.
=------------------------------------------------------------------------------=
