
     Program PWSCF v.7.3.1 starts on  5Feb2026 at 15:48: 7 

     This program is part of the open-source Quantum ESPRESSO suite
     for quantum simulation of materials; please cite
         "P. Giannozzi et al., J. Phys.:Condens. Matter 21 395502 (2009);
         "P. Giannozzi et al., J. Phys.:Condens. Matter 29 465901 (2017);
         "P. Giannozzi et al., J. Chem. Phys. 152 154105 (2020);
          URL http://www.quantum-espresso.org", 
     in publications or presentations arising from this work. More details at
     http://www.quantum-espresso.org/quote

     Parallel version (MPI), running on   128 processors

     MPI processes distributed on     1 nodes
     242463 MiB available memory on the printing compute node when the environment starts

     Waiting for input...
     Reading input from standard input

     Current dimensions of program PWSCF are:
     Max number of different atomic species (ntypx) = 10
     Max number of k-points (npk) =  40000
     Max angular momentum in pseudopotentials (lmaxx) =  4

     K-points division:     npool     =       8
     R & G space division:  proc/nbgrp/npool/nimage =      16
     Subspace diagonalization in iterative solution of the eigenvalue problem:
     a serial algorithm will be used


     Parallelization info
     --------------------
     sticks:   dense  smooth     PW     G-vecs:    dense   smooth      PW
     Min          43      43     16                  556      556     123
     Max          44      44     17                  557      557     124
     Sum         697     697    261                 8903     8903    1983

     Using Slab Decomposition



     bravais-lattice index     =            7
     lattice parameter (alat)  =      11.0200  a.u.
     unit-cell volume          =     365.0809 (a.u.)^3
     number of atoms/cell      =            2
     number of atomic types    =            1
     number of electrons       =        28.00
     number of Kohn-Sham states=           14
     kinetic-energy cutoff     =      32.0000  Ry
     charge density cutoff     =     128.0000  Ry
     scf convergence threshold =      1.0E-07
     mixing beta               =       0.7000
     number of iterations used =            8  plain     mixing
     Exchange-correlation=  SLA  PW   GGX  GGC
                           (   1   4   2   2   0   0   0)

     celldm(1)=  11.020000  celldm(2)=   0.000000  celldm(3)=   0.545600
     celldm(4)=   0.000000  celldm(5)=   0.000000  celldm(6)=   0.000000

     crystal axes: (cart. coord. in units of alat)
               a(1) = (   0.500000  -0.500000   0.272800 )  
               a(2) = (   0.500000   0.500000   0.272800 )  
               a(3) = (  -0.500000  -0.500000   0.272800 )  

     reciprocal axes: (cart. coord. in units 2 pi/alat)
               b(1) = (  1.000000 -1.000000  0.000000 )  
               b(2) = (  0.000000  1.000000  1.832845 )  
               b(3) = ( -1.000000  0.000000  1.832845 )  


     PseudoPot. # 1 for Sn read from file:
     ./Sn.pw91-n-van.UPF
     MD5 check sum: a38d2a872edd1a4efd76c0a1a38f7031
     Pseudo is Ultrasoft + core correction, Zval = 14.0
     Generated by new atomic code, or converted to UPF format
     Using radial grid of  891 points,  6 beta functions with: 
                l(1) =   0
                l(2) =   0
                l(3) =   1
                l(4) =   1
                l(5) =   2
                l(6) =   2
     Q(r) pseudized with  8 coefficients,  rinner =    1.100   1.100   1.100
                                                       1.100   1.100

     atomic species   valence    mass     pseudopotential
     Sn               14.00   118.70000     Sn( 1.00)

     16 Sym. Ops., with inversion, found (12 have fractional translation)



   Cartesian axes

     site n.     atom                  positions (alat units)
         1        Sn     tau(   1) = (   0.0000000  -0.2500000   0.0682000  )
         2        Sn     tau(   2) = (   0.0000000   0.2500000  -0.0682000  )

     number of k points=    13
                       cart. coord. in units 2pi/alat
        k(    1) = (   0.0000000   0.0000000   0.0000000), wk =   0.0312500
        k(    2) = (  -0.2500000   0.0000000   0.4582111), wk =   0.2500000
        k(    3) = (   0.5000000   0.0000000  -0.9164223), wk =   0.1250000
        k(    4) = (  -0.2500000   0.2500000   0.9164223), wk =   0.2500000
        k(    5) = (   0.5000000   0.2500000  -0.4582111), wk =   0.5000000
        k(    6) = (   0.2500000   0.2500000   0.0000000), wk =   0.1250000
        k(    7) = (   0.5000000  -0.5000000  -1.8328446), wk =   0.0625000
        k(    8) = (   0.0000000   0.0000000   0.9164223), wk =   0.0625000
        k(    9) = (   0.7500000   0.0000000  -0.4582111), wk =   0.2500000
        k(   10) = (   0.5000000   0.0000000   0.0000000), wk =   0.1250000
        k(   11) = (   0.7500000  -0.7500000  -1.8328446), wk =   0.1250000
        k(   12) = (   0.5000000  -0.5000000  -0.9164223), wk =   0.0625000
        k(   13) = (   0.0000000   0.0000000  -1.8328446), wk =   0.0312500

     Dense  grid:     8903 G-vectors     FFT dimensions: (  32,  32,  32)

     Estimated max dynamical RAM per process >       1.57 MB

     Estimated total dynamical RAM >     185.60 MB

     Initial potential from superposition of free atoms

     starting charge      27.9964, renormalised to      28.0000
     Starting wfcs are   18 randomized atomic wfcs

     total cpu time spent up to now is        0.6 secs

     per-process dynamical memory:     8.8 Mb

     Self-consistent Calculation

     iteration #  1     ecut=    32.00 Ry     beta= 0.70
     Davidson diagonalization with overlap
     ethr =  1.00E-02,  avg # of iterations =  1.8

     Threshold (ethr) on eigenvalues was too large:
     Diagonalizing with lowered threshold

     Davidson diagonalization with overlap
     ethr =  2.51E-05,  avg # of iterations =  3.7

     total cpu time spent up to now is        0.6 secs

     total energy              =    -325.54430061 Ry
     estimated scf accuracy    <       0.00711524 Ry

     iteration #  2     ecut=    32.00 Ry     beta= 0.70
     Davidson diagonalization with overlap
     ethr =  2.54E-05,  avg # of iterations =  2.0

     total cpu time spent up to now is        0.7 secs

     total energy              =    -325.54526933 Ry
     estimated scf accuracy    <       0.00057018 Ry

     iteration #  3     ecut=    32.00 Ry     beta= 0.70
     Davidson diagonalization with overlap
     ethr =  2.04E-06,  avg # of iterations =  2.2

     total cpu time spent up to now is        0.7 secs

     total energy              =    -325.54533636 Ry
     estimated scf accuracy    <       0.00004277 Ry

     iteration #  4     ecut=    32.00 Ry     beta= 0.70
     Davidson diagonalization with overlap
     ethr =  1.53E-07,  avg # of iterations =  3.1

     total cpu time spent up to now is        0.7 secs

     total energy              =    -325.54534222 Ry
     estimated scf accuracy    <       0.00000038 Ry

     iteration #  5     ecut=    32.00 Ry     beta= 0.70
     Davidson diagonalization with overlap
     ethr =  1.35E-09,  avg # of iterations =  3.8

     total cpu time spent up to now is        0.7 secs

     End of self-consistent calculation

          k = 0.0000 0.0000 0.0000 (  1129 PWs)   bands (ev):

   -10.7890 -10.7062 -10.6613 -10.6511 -10.5004 -10.5004 -10.4884 -10.4884
   -10.3949 -10.2842  -0.3481   7.1571   8.8406   8.8406

          k =-0.2500 0.0000 0.4582 (  1120 PWs)   bands (ev):

   -10.7527 -10.6236 -10.6196 -10.5785 -10.5560 -10.5141 -10.5061 -10.4829
   -10.4165 -10.3192   0.8900   6.5809   9.0454  11.2835

          k = 0.5000 0.0000-0.9164 (  1110 PWs)   bands (ev):

   -10.7132 -10.6429 -10.6264 -10.5855 -10.5508 -10.5480 -10.4485 -10.4025
   -10.3980 -10.3521   3.8512   5.3950   8.4858   9.1152

          k =-0.2500 0.2500 0.9164 (  1112 PWs)   bands (ev):

   -10.7275 -10.6395 -10.5954 -10.5784 -10.5761 -10.5257 -10.4662 -10.4463
   -10.3699 -10.3431   3.7368   6.0487   7.1244   9.1093

          k = 0.5000 0.2500-0.4582 (  1115 PWs)   bands (ev):

   -10.6962 -10.6361 -10.6323 -10.5779 -10.5603 -10.5034 -10.4692 -10.4619
   -10.4450 -10.3808   2.0023   4.1394   9.3962  10.6294

          k = 0.2500 0.2500 0.0000 (  1118 PWs)   bands (ev):

   -10.7387 -10.7130 -10.6776 -10.6192 -10.5267 -10.4787 -10.4777 -10.4689
   -10.4247 -10.3332   0.2165   4.5860   9.5075  10.5376

          k = 0.5000-0.5000-1.8328 (  1122 PWs)   bands (ev):

   -10.7095 -10.7095 -10.6209 -10.6209 -10.5253 -10.5253 -10.4549 -10.4549
   -10.4162 -10.4162   1.8994   1.8994  11.4199  11.4199

          k = 0.0000 0.0000 0.9164 (  1109 PWs)   bands (ev):

   -10.7185 -10.6112 -10.6112 -10.5898 -10.5452 -10.5452 -10.5209 -10.4271
   -10.3724 -10.3277   3.2938   7.1402   7.9735   9.4605

          k = 0.7500 0.0000-0.4582 (  1110 PWs)   bands (ev):

   -10.6829 -10.6404 -10.5776 -10.5679 -10.5326 -10.5164 -10.5058 -10.4678
   -10.4632 -10.4068   3.0211   4.3575   7.2637   8.4583

          k = 0.5000 0.0000 0.0000 (  1126 PWs)   bands (ev):

   -10.7248 -10.6951 -10.6833 -10.5874 -10.5041 -10.4964 -10.4916 -10.4495
   -10.4459 -10.3782   0.7789   4.3521   7.0817  10.7937

          k = 0.7500-0.7500-1.8328 (  1114 PWs)   bands (ev):

   -10.7157 -10.7157 -10.5830 -10.5830 -10.5174 -10.5174 -10.4691 -10.4691
   -10.4408 -10.4408   2.4036   2.4036   7.9929   7.9929

          k = 0.5000-0.5000-0.9164 (  1108 PWs)   bands (ev):

   -10.6917 -10.6917 -10.6204 -10.6204 -10.5114 -10.5114 -10.4190 -10.4190
   -10.3904 -10.3904   4.8034   4.8034   7.2828   7.2828

          k = 0.0000 0.0000-1.8328 (  1090 PWs)   bands (ev):

   -10.7181 -10.7181 -10.5196 -10.5196 -10.5062 -10.5062 -10.4968 -10.4968
   -10.4834 -10.4834   3.2407   3.2407   6.0138   6.0138

     highest occupied level (ev):    11.4199

!    total energy              =    -325.54534240 Ry
     estimated scf accuracy    <       0.00000001 Ry

     The total energy is the sum of the following terms:
     one-electron contribution =    -107.27333880 Ry
     hartree contribution      =      74.46810138 Ry
     xc contribution           =     -95.22480174 Ry
     ewald contribution        =    -197.51530324 Ry

     convergence has been achieved in   5 iterations

     Writing all to output data dir ./beta-sn-scf/betatin.save/ :
     XML data file, charge density, pseudopotentials, collected wavefunctions

     init_run     :      0.23s CPU      0.27s WALL (       1 calls)
     electrons    :      0.12s CPU      0.16s WALL (       1 calls)

     Called by init_run:
     wfcinit      :      0.03s CPU      0.03s WALL (       1 calls)
     potinit      :      0.02s CPU      0.02s WALL (       1 calls)
     hinit0       :      0.18s CPU      0.18s WALL (       1 calls)

     Called by electrons:
     c_bands      :      0.07s CPU      0.09s WALL (       6 calls)
     sum_band     :      0.02s CPU      0.03s WALL (       6 calls)
     v_of_rho     :      0.01s CPU      0.02s WALL (       6 calls)
     newd         :      0.00s CPU      0.01s WALL (       6 calls)
     mix_rho      :      0.00s CPU      0.00s WALL (       6 calls)

     Called by c_bands:
     init_us_2    :      0.00s CPU      0.00s WALL (      26 calls)
     cegterg      :      0.06s CPU      0.07s WALL (      12 calls)

     Called by *egterg:
     cdiaghg      :      0.01s CPU      0.02s WALL (      48 calls)
     h_psi        :      0.06s CPU      0.07s WALL (      52 calls)
     s_psi        :      0.00s CPU      0.00s WALL (      52 calls)
     g_psi        :      0.00s CPU      0.00s WALL (      38 calls)

     Called by h_psi:
     h_psi:calbec :      0.00s CPU      0.01s WALL (      52 calls)
     vloc_psi     :      0.05s CPU      0.06s WALL (      52 calls)
     add_vuspsi   :      0.00s CPU      0.00s WALL (      52 calls)

     General routines
     calbec       :      0.00s CPU      0.00s WALL (      64 calls)
     fft          :      0.15s CPU      0.16s WALL (      67 calls)
     ffts         :      0.00s CPU      0.00s WALL (       6 calls)
     fftw         :      0.05s CPU      0.07s WALL (    1082 calls)

     Parallel routines

     PWSCF        :      0.57s CPU      0.82s WALL


   This run was terminated on:  15:48: 8   5Feb2026            

=------------------------------------------------------------------------------=
   JOB DONE.
=------------------------------------------------------------------------------=
