
     Program PWSCF v.7.3.1 starts on  4Feb2026 at 12: 3:27 

     This program is part of the open-source Quantum ESPRESSO suite
     for quantum simulation of materials; please cite
         "P. Giannozzi et al., J. Phys.:Condens. Matter 21 395502 (2009);
         "P. Giannozzi et al., J. Phys.:Condens. Matter 29 465901 (2017);
         "P. Giannozzi et al., J. Chem. Phys. 152 154105 (2020);
          URL http://www.quantum-espresso.org", 
     in publications or presentations arising from this work. More details at
     http://www.quantum-espresso.org/quote

     Parallel version (MPI), running on   128 processors

     MPI processes distributed on     1 nodes
     240561 MiB available memory on the printing compute node when the environment starts

     Waiting for input...
     Reading input from standard input

     Current dimensions of program PWSCF are:
     Max number of different atomic species (ntypx) = 10
     Max number of k-points (npk) =  40000
     Max angular momentum in pseudopotentials (lmaxx) =  4

     K-points division:     npool     =       4
     R & G space division:  proc/nbgrp/npool/nimage =      32
     Subspace diagonalization in iterative solution of the eigenvalue problem:
     a serial algorithm will be used


     Parallelization info
     --------------------
     sticks:   dense  smooth     PW     G-vecs:    dense   smooth      PW
     Min         220     220     62                 8825     8825    1343
     Max         221     221     63                 8827     8827    1346
     Sum        7053    7053   2015               282415   282415   43039

     Using Slab Decomposition



     bravais-lattice index     =            7
     lattice parameter (alat)  =      11.0200  a.u.
     unit-cell volume          =     365.0809 (a.u.)^3
     number of atoms/cell      =            2
     number of atomic types    =            1
     number of electrons       =        28.00
     number of Kohn-Sham states=           14
     kinetic-energy cutoff     =     320.0000  Ry
     charge density cutoff     =    1280.0000  Ry
     scf convergence threshold =      1.0E-07
     mixing beta               =       0.7000
     number of iterations used =            8  plain     mixing
     Exchange-correlation=  SLA  PW   GGX  GGC
                           (   1   4   2   2   0   0   0)

     celldm(1)=  11.020000  celldm(2)=   0.000000  celldm(3)=   0.545600
     celldm(4)=   0.000000  celldm(5)=   0.000000  celldm(6)=   0.000000

     crystal axes: (cart. coord. in units of alat)
               a(1) = (   0.500000  -0.500000   0.272800 )  
               a(2) = (   0.500000   0.500000   0.272800 )  
               a(3) = (  -0.500000  -0.500000   0.272800 )  

     reciprocal axes: (cart. coord. in units 2 pi/alat)
               b(1) = (  1.000000 -1.000000  0.000000 )  
               b(2) = (  0.000000  1.000000  1.832845 )  
               b(3) = ( -1.000000  0.000000  1.832845 )  


     PseudoPot. # 1 for Sn read from file:
     ./Sn.pw91-n-van.UPF
     MD5 check sum: a38d2a872edd1a4efd76c0a1a38f7031
     Pseudo is Ultrasoft + core correction, Zval = 14.0
     Generated by new atomic code, or converted to UPF format
     Using radial grid of  891 points,  6 beta functions with: 
                l(1) =   0
                l(2) =   0
                l(3) =   1
                l(4) =   1
                l(5) =   2
                l(6) =   2
     Q(r) pseudized with  8 coefficients,  rinner =    1.100   1.100   1.100
                                                       1.100   1.100

     atomic species   valence    mass     pseudopotential
     Sn               14.00   118.70000     Sn( 1.00)

     16 Sym. Ops., with inversion, found (12 have fractional translation)



   Cartesian axes

     site n.     atom                  positions (alat units)
         1        Sn     tau(   1) = (   0.0000000  -0.2500000   0.0682000  )
         2        Sn     tau(   2) = (   0.0000000   0.2500000  -0.0682000  )

     number of k points=    13
                       cart. coord. in units 2pi/alat
        k(    1) = (   0.0000000   0.0000000   0.0000000), wk =   0.0312500
        k(    2) = (  -0.2500000   0.0000000   0.4582111), wk =   0.2500000
        k(    3) = (   0.5000000   0.0000000  -0.9164223), wk =   0.1250000
        k(    4) = (  -0.2500000   0.2500000   0.9164223), wk =   0.2500000
        k(    5) = (   0.5000000   0.2500000  -0.4582111), wk =   0.5000000
        k(    6) = (   0.2500000   0.2500000   0.0000000), wk =   0.1250000
        k(    7) = (   0.5000000  -0.5000000  -1.8328446), wk =   0.0625000
        k(    8) = (   0.0000000   0.0000000   0.9164223), wk =   0.0625000
        k(    9) = (   0.7500000   0.0000000  -0.4582111), wk =   0.2500000
        k(   10) = (   0.5000000   0.0000000   0.0000000), wk =   0.1250000
        k(   11) = (   0.7500000  -0.7500000  -1.8328446), wk =   0.1250000
        k(   12) = (   0.5000000  -0.5000000  -0.9164223), wk =   0.0625000
        k(   13) = (   0.0000000   0.0000000  -1.8328446), wk =   0.0312500

     Dense  grid:   282415 G-vectors     FFT dimensions: (  96,  96,  96)

     Estimated max dynamical RAM per process >      16.65 MB

     Estimated total dynamical RAM >       1.88 GB

     Initial potential from superposition of free atoms

     starting charge      27.9964, renormalised to      28.0000
     Starting wfcs are   18 randomized atomic wfcs

     total cpu time spent up to now is        1.4 secs

     per-process dynamical memory:    20.2 Mb

     Self-consistent Calculation

     iteration #  1     ecut=   320.00 Ry     beta= 0.70
     Davidson diagonalization with overlap
     ethr =  1.00E-02,  avg # of iterations =  2.5

     Threshold (ethr) on eigenvalues was too large:
     Diagonalizing with lowered threshold

     Davidson diagonalization with overlap
     ethr =  3.78E-05,  avg # of iterations =  4.2

     total cpu time spent up to now is        2.0 secs

     total energy              =    -325.50427036 Ry
     estimated scf accuracy    <       0.01374331 Ry

     iteration #  2     ecut=   320.00 Ry     beta= 0.70
     Davidson diagonalization with overlap
     ethr =  4.91E-05,  avg # of iterations =  4.9

     total cpu time spent up to now is        2.3 secs

     total energy              =    -325.57418692 Ry
     estimated scf accuracy    <       0.01102984 Ry

     iteration #  3     ecut=   320.00 Ry     beta= 0.70
     Davidson diagonalization with overlap
     ethr =  3.94E-05,  avg # of iterations =  2.0

     total cpu time spent up to now is        2.6 secs

     total energy              =    -325.59234873 Ry
     estimated scf accuracy    <       0.00261643 Ry

     iteration #  4     ecut=   320.00 Ry     beta= 0.70
     Davidson diagonalization with overlap
     ethr =  9.34E-06,  avg # of iterations =  2.4

     total cpu time spent up to now is        2.9 secs

     total energy              =    -325.59293387 Ry
     estimated scf accuracy    <       0.00001345 Ry

     iteration #  5     ecut=   320.00 Ry     beta= 0.70
     Davidson diagonalization with overlap
     ethr =  4.80E-08,  avg # of iterations =  4.5

     total cpu time spent up to now is        3.2 secs

     total energy              =    -325.59295216 Ry
     estimated scf accuracy    <       0.00001106 Ry

     iteration #  6     ecut=   320.00 Ry     beta= 0.70
     Davidson diagonalization with overlap
     ethr =  3.95E-08,  avg # of iterations =  2.0

     total cpu time spent up to now is        3.4 secs

     End of self-consistent calculation

          k = 0.0000 0.0000 0.0000 ( 35237 PWs)   bands (ev):

   -10.8121 -10.7292 -10.6856 -10.6740 -10.5240 -10.5240 -10.5130 -10.5130
   -10.4212 -10.3092  -0.3467   7.1625   8.8400   8.8400

          k =-0.2500 0.0000 0.4582 ( 35298 PWs)   bands (ev):

   -10.7762 -10.6483 -10.6435 -10.6023 -10.5799 -10.5386 -10.5302 -10.5072
   -10.4422 -10.3436   0.8916   6.5849   9.0441  11.2836

          k = 0.5000 0.0000-0.9164 ( 35320 PWs)   bands (ev):

   -10.7368 -10.6663 -10.6495 -10.6101 -10.5762 -10.5730 -10.4745 -10.4272
   -10.4235 -10.3771   3.8540   5.3962   8.4882   9.1148

          k =-0.2500 0.2500 0.9164 ( 35281 PWs)   bands (ev):

   -10.7507 -10.6629 -10.6196 -10.6027 -10.6008 -10.5503 -10.4915 -10.4722
   -10.3957 -10.3680   3.7393   6.0517   7.1236   9.1088

          k = 0.5000 0.2500-0.4582 ( 35295 PWs)   bands (ev):

   -10.7194 -10.6599 -10.6562 -10.6023 -10.5852 -10.5280 -10.4944 -10.4867
   -10.4696 -10.4053   2.0040   4.1417   9.3957  10.6283

          k = 0.2500 0.2500 0.0000 ( 35250 PWs)   bands (ev):

   -10.7621 -10.7360 -10.7007 -10.6438 -10.5508 -10.5033 -10.5016 -10.4936
   -10.4505 -10.3577   0.2180   4.5884   9.5066  10.5382

          k = 0.5000-0.5000-1.8328 ( 35284 PWs)   bands (ev):

   -10.7324 -10.7324 -10.6447 -10.6447 -10.5508 -10.5508 -10.4794 -10.4794
   -10.4403 -10.4403   1.9012   1.9012  11.4184  11.4184

          k = 0.0000 0.0000 0.9164 ( 35321 PWs)   bands (ev):

   -10.7424 -10.6345 -10.6345 -10.6152 -10.5701 -10.5701 -10.5462 -10.4529
   -10.3981 -10.3525   3.2960   7.1441   7.9736   9.4590

          k = 0.7500 0.0000-0.4582 ( 35308 PWs)   bands (ev):

   -10.7066 -10.6643 -10.6017 -10.5923 -10.5579 -10.5411 -10.5302 -10.4937
   -10.4874 -10.4313   3.0232   4.3605   7.2618   8.4575

          k = 0.5000 0.0000 0.0000 ( 35277 PWs)   bands (ev):

   -10.7479 -10.7183 -10.7063 -10.6124 -10.5282 -10.5203 -10.5165 -10.4736
   -10.4715 -10.4025   0.7805   4.3551   7.0799  10.7928

          k = 0.7500-0.7500-1.8328 ( 35290 PWs)   bands (ev):

   -10.7389 -10.7389 -10.6069 -10.6069 -10.5430 -10.5430 -10.4936 -10.4936
   -10.4649 -10.4649   2.4055   2.4055   7.9918   7.9918

          k = 0.5000-0.5000-0.9164 ( 35288 PWs)   bands (ev):

   -10.7149 -10.7149 -10.6444 -10.6444 -10.5371 -10.5371 -10.4435 -10.4435
   -10.4163 -10.4163   4.8065   4.8065   7.2814   7.2814

          k = 0.0000 0.0000-1.8328 ( 35330 PWs)   bands (ev):

   -10.7417 -10.7417 -10.5432 -10.5432 -10.5328 -10.5328 -10.5211 -10.5211
   -10.5083 -10.5083   3.2433   3.2433   6.0121   6.0121

     highest occupied level (ev):    11.4184

!    total energy              =    -325.59295288 Ry
     estimated scf accuracy    <       0.00000004 Ry

     The total energy is the sum of the following terms:
     one-electron contribution =    -107.33347308 Ry
     hartree contribution      =      74.47878307 Ry
     xc contribution           =     -95.22295966 Ry
     ewald contribution        =    -197.51530320 Ry

     convergence has been achieved in   6 iterations

     Writing all to output data dir ./beta-sn-scf/betatin.save/ :
     XML data file, charge density, pseudopotentials, collected wavefunctions

     init_run     :      1.05s CPU      1.14s WALL (       1 calls)
     electrons    :      1.96s CPU      2.10s WALL (       1 calls)

     Called by init_run:
     wfcinit      :      0.09s CPU      0.10s WALL (       1 calls)
     potinit      :      0.04s CPU      0.05s WALL (       1 calls)
     hinit0       :      0.68s CPU      0.72s WALL (       1 calls)

     Called by electrons:
     c_bands      :      1.28s CPU      1.31s WALL (       7 calls)
     sum_band     :      0.37s CPU      0.38s WALL (       7 calls)
     v_of_rho     :      0.19s CPU      0.23s WALL (       7 calls)
     newd         :      0.10s CPU      0.11s WALL (       7 calls)
     mix_rho      :      0.02s CPU      0.02s WALL (       7 calls)

     Called by c_bands:
     init_us_2    :      0.03s CPU      0.03s WALL (      60 calls)
     cegterg      :      1.18s CPU      1.19s WALL (      28 calls)

     Called by *egterg:
     cdiaghg      :      0.04s CPU      0.04s WALL (     116 calls)
     h_psi        :      1.08s CPU      1.10s WALL (     124 calls)
     s_psi        :      0.02s CPU      0.02s WALL (     124 calls)
     g_psi        :      0.00s CPU      0.00s WALL (      92 calls)

     Called by h_psi:
     h_psi:calbec :      0.04s CPU      0.04s WALL (     124 calls)
     vloc_psi     :      1.01s CPU      1.03s WALL (     124 calls)
     add_vuspsi   :      0.02s CPU      0.02s WALL (     124 calls)

     General routines
     calbec       :      0.04s CPU      0.04s WALL (     152 calls)
     fft          :      0.77s CPU      0.81s WALL (      78 calls)
     ffts         :      0.02s CPU      0.02s WALL (       7 calls)
     fftw         :      1.08s CPU      1.09s WALL (    2628 calls)

     Parallel routines

     PWSCF        :      3.25s CPU      3.77s WALL


   This run was terminated on:  12: 3:31   4Feb2026            

=------------------------------------------------------------------------------=
   JOB DONE.
=------------------------------------------------------------------------------=
