
     Program PWSCF v.7.3.1 starts on  5Feb2026 at 15:48:16 

     This program is part of the open-source Quantum ESPRESSO suite
     for quantum simulation of materials; please cite
         "P. Giannozzi et al., J. Phys.:Condens. Matter 21 395502 (2009);
         "P. Giannozzi et al., J. Phys.:Condens. Matter 29 465901 (2017);
         "P. Giannozzi et al., J. Chem. Phys. 152 154105 (2020);
          URL http://www.quantum-espresso.org", 
     in publications or presentations arising from this work. More details at
     http://www.quantum-espresso.org/quote

     Parallel version (MPI), running on   128 processors

     MPI processes distributed on     1 nodes
     242379 MiB available memory on the printing compute node when the environment starts

     Waiting for input...
     Reading input from standard input

     Current dimensions of program PWSCF are:
     Max number of different atomic species (ntypx) = 10
     Max number of k-points (npk) =  40000
     Max angular momentum in pseudopotentials (lmaxx) =  4

     K-points division:     npool     =       8
     R & G space division:  proc/nbgrp/npool/nimage =      16
     Subspace diagonalization in iterative solution of the eigenvalue problem:
     a serial algorithm will be used


     Parallelization info
     --------------------
     sticks:   dense  smooth     PW     G-vecs:    dense   smooth      PW
     Min          46      46     17                  612      612     134
     Max          47      47     18                  615      615     136
     Sum         751     751    275                 9827     9827    2159

     Using Slab Decomposition



     bravais-lattice index     =            7
     lattice parameter (alat)  =      11.0200  a.u.
     unit-cell volume          =     365.0809 (a.u.)^3
     number of atoms/cell      =            2
     number of atomic types    =            1
     number of electrons       =        28.00
     number of Kohn-Sham states=           14
     kinetic-energy cutoff     =      34.0000  Ry
     charge density cutoff     =     136.0000  Ry
     scf convergence threshold =      1.0E-07
     mixing beta               =       0.7000
     number of iterations used =            8  plain     mixing
     Exchange-correlation=  SLA  PW   GGX  GGC
                           (   1   4   2   2   0   0   0)

     celldm(1)=  11.020000  celldm(2)=   0.000000  celldm(3)=   0.545600
     celldm(4)=   0.000000  celldm(5)=   0.000000  celldm(6)=   0.000000

     crystal axes: (cart. coord. in units of alat)
               a(1) = (   0.500000  -0.500000   0.272800 )  
               a(2) = (   0.500000   0.500000   0.272800 )  
               a(3) = (  -0.500000  -0.500000   0.272800 )  

     reciprocal axes: (cart. coord. in units 2 pi/alat)
               b(1) = (  1.000000 -1.000000  0.000000 )  
               b(2) = (  0.000000  1.000000  1.832845 )  
               b(3) = ( -1.000000  0.000000  1.832845 )  


     PseudoPot. # 1 for Sn read from file:
     ./Sn.pw91-n-van.UPF
     MD5 check sum: a38d2a872edd1a4efd76c0a1a38f7031
     Pseudo is Ultrasoft + core correction, Zval = 14.0
     Generated by new atomic code, or converted to UPF format
     Using radial grid of  891 points,  6 beta functions with: 
                l(1) =   0
                l(2) =   0
                l(3) =   1
                l(4) =   1
                l(5) =   2
                l(6) =   2
     Q(r) pseudized with  8 coefficients,  rinner =    1.100   1.100   1.100
                                                       1.100   1.100

     atomic species   valence    mass     pseudopotential
     Sn               14.00   118.70000     Sn( 1.00)

     16 Sym. Ops., with inversion, found (12 have fractional translation)



   Cartesian axes

     site n.     atom                  positions (alat units)
         1        Sn     tau(   1) = (   0.0000000  -0.2500000   0.0682000  )
         2        Sn     tau(   2) = (   0.0000000   0.2500000  -0.0682000  )

     number of k points=    13
                       cart. coord. in units 2pi/alat
        k(    1) = (   0.0000000   0.0000000   0.0000000), wk =   0.0312500
        k(    2) = (  -0.2500000   0.0000000   0.4582111), wk =   0.2500000
        k(    3) = (   0.5000000   0.0000000  -0.9164223), wk =   0.1250000
        k(    4) = (  -0.2500000   0.2500000   0.9164223), wk =   0.2500000
        k(    5) = (   0.5000000   0.2500000  -0.4582111), wk =   0.5000000
        k(    6) = (   0.2500000   0.2500000   0.0000000), wk =   0.1250000
        k(    7) = (   0.5000000  -0.5000000  -1.8328446), wk =   0.0625000
        k(    8) = (   0.0000000   0.0000000   0.9164223), wk =   0.0625000
        k(    9) = (   0.7500000   0.0000000  -0.4582111), wk =   0.2500000
        k(   10) = (   0.5000000   0.0000000   0.0000000), wk =   0.1250000
        k(   11) = (   0.7500000  -0.7500000  -1.8328446), wk =   0.1250000
        k(   12) = (   0.5000000  -0.5000000  -0.9164223), wk =   0.0625000
        k(   13) = (   0.0000000   0.0000000  -1.8328446), wk =   0.0312500

     Dense  grid:     9827 G-vectors     FFT dimensions: (  32,  32,  32)

     Estimated max dynamical RAM per process >       1.65 MB

     Estimated total dynamical RAM >     194.42 MB

     Initial potential from superposition of free atoms

     starting charge      27.9964, renormalised to      28.0000
     Starting wfcs are   18 randomized atomic wfcs

     total cpu time spent up to now is        0.6 secs

     per-process dynamical memory:     9.0 Mb

     Self-consistent Calculation

     iteration #  1     ecut=    34.00 Ry     beta= 0.70
     Davidson diagonalization with overlap
     ethr =  1.00E-02,  avg # of iterations =  1.8

     Threshold (ethr) on eigenvalues was too large:
     Diagonalizing with lowered threshold

     Davidson diagonalization with overlap
     ethr =  2.52E-05,  avg # of iterations =  3.8

     total cpu time spent up to now is        0.7 secs

     total energy              =    -325.54743884 Ry
     estimated scf accuracy    <       0.00707837 Ry

     iteration #  2     ecut=    34.00 Ry     beta= 0.70
     Davidson diagonalization with overlap
     ethr =  2.53E-05,  avg # of iterations =  2.0

     total cpu time spent up to now is        0.7 secs

     total energy              =    -325.54841626 Ry
     estimated scf accuracy    <       0.00056781 Ry

     iteration #  3     ecut=    34.00 Ry     beta= 0.70
     Davidson diagonalization with overlap
     ethr =  2.03E-06,  avg # of iterations =  2.2

     total cpu time spent up to now is        0.7 secs

     total energy              =    -325.54847855 Ry
     estimated scf accuracy    <       0.00004175 Ry

     iteration #  4     ecut=    34.00 Ry     beta= 0.70
     Davidson diagonalization with overlap
     ethr =  1.49E-07,  avg # of iterations =  3.0

     total cpu time spent up to now is        0.7 secs

     total energy              =    -325.54848379 Ry
     estimated scf accuracy    <       0.00000041 Ry

     iteration #  5     ecut=    34.00 Ry     beta= 0.70
     Davidson diagonalization with overlap
     ethr =  1.46E-09,  avg # of iterations =  3.5

     total cpu time spent up to now is        0.7 secs

     End of self-consistent calculation

          k = 0.0000 0.0000 0.0000 (  1253 PWs)   bands (ev):

   -10.7959 -10.7105 -10.6639 -10.6544 -10.5036 -10.5036 -10.4930 -10.4930
   -10.3991 -10.2888  -0.3482   7.1578   8.8403   8.8403

          k =-0.2500 0.0000 0.4582 (  1231 PWs)   bands (ev):

   -10.7575 -10.6268 -10.6237 -10.5824 -10.5597 -10.5179 -10.5095 -10.4865
   -10.4198 -10.3226   0.8900   6.5813   9.0450  11.2833

          k = 0.5000 0.0000-0.9164 (  1214 PWs)   bands (ev):

   -10.7179 -10.6464 -10.6292 -10.5897 -10.5542 -10.5521 -10.4516 -10.4055
   -10.4014 -10.3554   3.8514   5.3949   8.4860   9.1149

          k =-0.2500 0.2500 0.9164 (  1215 PWs)   bands (ev):

   -10.7315 -10.6429 -10.5995 -10.5814 -10.5797 -10.5289 -10.4701 -10.4497
   -10.3732 -10.3468   3.7370   6.0490   7.1240   9.1090

          k = 0.5000 0.2500-0.4582 (  1216 PWs)   bands (ev):

   -10.6999 -10.6402 -10.6359 -10.5816 -10.5635 -10.5068 -10.4723 -10.4651
   -10.4482 -10.3841   2.0023   4.1395   9.3959  10.6290

          k = 0.2500 0.2500 0.0000 (  1216 PWs)   bands (ev):

   -10.7427 -10.7164 -10.6809 -10.6219 -10.5303 -10.4823 -10.4804 -10.4723
   -10.4278 -10.3364   0.2165   4.5862   9.5071  10.5374

          k = 0.5000-0.5000-1.8328 (  1230 PWs)   bands (ev):

   -10.7131 -10.7131 -10.6249 -10.6249 -10.5291 -10.5291 -10.4584 -10.4584
   -10.4196 -10.4196   1.8995   1.8995  11.4195  11.4195

          k = 0.0000 0.0000 0.9164 (  1202 PWs)   bands (ev):

   -10.7229 -10.6143 -10.6143 -10.5928 -10.5485 -10.5485 -10.5253 -10.4302
   -10.3753 -10.3307   3.2939   7.1406   7.9733   9.4600

          k = 0.7500 0.0000-0.4582 (  1228 PWs)   bands (ev):

   -10.6872 -10.6445 -10.5817 -10.5712 -10.5370 -10.5209 -10.5096 -10.4711
   -10.4667 -10.4105   3.0212   4.3577   7.2631   8.4579

          k = 0.5000 0.0000 0.0000 (  1212 PWs)   bands (ev):

   -10.7285 -10.6985 -10.6864 -10.5899 -10.5075 -10.4998 -10.4948 -10.4525
   -10.4484 -10.3817   0.7790   4.3524   7.0811  10.7933

          k = 0.7500-0.7500-1.8328 (  1242 PWs)   bands (ev):

   -10.7197 -10.7197 -10.5876 -10.5876 -10.5216 -10.5216 -10.4729 -10.4729
   -10.4446 -10.4446   2.4037   2.4037   7.9924   7.9924

          k = 0.5000-0.5000-0.9164 (  1236 PWs)   bands (ev):

   -10.6959 -10.6959 -10.6243 -10.6243 -10.5152 -10.5152 -10.4229 -10.4229
   -10.3950 -10.3950   4.8037   4.8037   7.2823   7.2823

          k = 0.0000 0.0000-1.8328 (  1258 PWs)   bands (ev):

   -10.7230 -10.7230 -10.5234 -10.5234 -10.5120 -10.5120 -10.5016 -10.5016
   -10.4882 -10.4882   3.2410   3.2410   6.0132   6.0132

     highest occupied level (ev):    11.4195

!    total energy              =    -325.54848398 Ry
     estimated scf accuracy    <       0.00000002 Ry

     The total energy is the sum of the following terms:
     one-electron contribution =    -107.27658395 Ry
     hartree contribution      =      74.46660982 Ry
     xc contribution           =     -95.22320661 Ry
     ewald contribution        =    -197.51530324 Ry

     convergence has been achieved in   5 iterations

     Writing all to output data dir ./beta-sn-scf/betatin.save/ :
     XML data file, charge density, pseudopotentials, collected wavefunctions

     init_run     :      0.23s CPU      0.27s WALL (       1 calls)
     electrons    :      0.12s CPU      0.16s WALL (       1 calls)

     Called by init_run:
     wfcinit      :      0.03s CPU      0.03s WALL (       1 calls)
     potinit      :      0.01s CPU      0.02s WALL (       1 calls)
     hinit0       :      0.17s CPU      0.19s WALL (       1 calls)

     Called by electrons:
     c_bands      :      0.07s CPU      0.09s WALL (       6 calls)
     sum_band     :      0.02s CPU      0.03s WALL (       6 calls)
     v_of_rho     :      0.02s CPU      0.02s WALL (       6 calls)
     newd         :      0.01s CPU      0.01s WALL (       6 calls)
     mix_rho      :      0.00s CPU      0.00s WALL (       6 calls)

     Called by c_bands:
     init_us_2    :      0.00s CPU      0.00s WALL (      26 calls)
     cegterg      :      0.06s CPU      0.07s WALL (      12 calls)

     Called by *egterg:
     cdiaghg      :      0.01s CPU      0.02s WALL (      48 calls)
     h_psi        :      0.07s CPU      0.07s WALL (      52 calls)
     s_psi        :      0.00s CPU      0.00s WALL (      52 calls)
     g_psi        :      0.00s CPU      0.00s WALL (      38 calls)

     Called by h_psi:
     h_psi:calbec :      0.00s CPU      0.00s WALL (      52 calls)
     vloc_psi     :      0.06s CPU      0.07s WALL (      52 calls)
     add_vuspsi   :      0.00s CPU      0.00s WALL (      52 calls)

     General routines
     calbec       :      0.00s CPU      0.00s WALL (      64 calls)
     fft          :      0.15s CPU      0.16s WALL (      67 calls)
     ffts         :      0.00s CPU      0.00s WALL (       6 calls)
     fftw         :      0.07s CPU      0.07s WALL (    1086 calls)

     Parallel routines

     PWSCF        :      0.60s CPU      0.84s WALL


   This run was terminated on:  15:48:16   5Feb2026            

=------------------------------------------------------------------------------=
   JOB DONE.
=------------------------------------------------------------------------------=
