
     Program PWSCF v.7.3.1 starts on  5Feb2026 at 15:48:23 

     This program is part of the open-source Quantum ESPRESSO suite
     for quantum simulation of materials; please cite
         "P. Giannozzi et al., J. Phys.:Condens. Matter 21 395502 (2009);
         "P. Giannozzi et al., J. Phys.:Condens. Matter 29 465901 (2017);
         "P. Giannozzi et al., J. Chem. Phys. 152 154105 (2020);
          URL http://www.quantum-espresso.org", 
     in publications or presentations arising from this work. More details at
     http://www.quantum-espresso.org/quote

     Parallel version (MPI), running on   128 processors

     MPI processes distributed on     1 nodes
     242432 MiB available memory on the printing compute node when the environment starts

     Waiting for input...
     Reading input from standard input

     Current dimensions of program PWSCF are:
     Max number of different atomic species (ntypx) = 10
     Max number of k-points (npk) =  40000
     Max angular momentum in pseudopotentials (lmaxx) =  4

     K-points division:     npool     =       8
     R & G space division:  proc/nbgrp/npool/nimage =      16
     Subspace diagonalization in iterative solution of the eigenvalue problem:
     a serial algorithm will be used


     Parallelization info
     --------------------
     sticks:   dense  smooth     PW     G-vecs:    dense   smooth      PW
     Min          48      48     18                  663      663     145
     Max          49      49     19                  666      666     147
     Sum         783     783    291                10643    10643    2335

     Using Slab Decomposition



     bravais-lattice index     =            7
     lattice parameter (alat)  =      11.0200  a.u.
     unit-cell volume          =     365.0809 (a.u.)^3
     number of atoms/cell      =            2
     number of atomic types    =            1
     number of electrons       =        28.00
     number of Kohn-Sham states=           14
     kinetic-energy cutoff     =      36.0000  Ry
     charge density cutoff     =     144.0000  Ry
     scf convergence threshold =      1.0E-07
     mixing beta               =       0.7000
     number of iterations used =            8  plain     mixing
     Exchange-correlation=  SLA  PW   GGX  GGC
                           (   1   4   2   2   0   0   0)

     celldm(1)=  11.020000  celldm(2)=   0.000000  celldm(3)=   0.545600
     celldm(4)=   0.000000  celldm(5)=   0.000000  celldm(6)=   0.000000

     crystal axes: (cart. coord. in units of alat)
               a(1) = (   0.500000  -0.500000   0.272800 )  
               a(2) = (   0.500000   0.500000   0.272800 )  
               a(3) = (  -0.500000  -0.500000   0.272800 )  

     reciprocal axes: (cart. coord. in units 2 pi/alat)
               b(1) = (  1.000000 -1.000000  0.000000 )  
               b(2) = (  0.000000  1.000000  1.832845 )  
               b(3) = ( -1.000000  0.000000  1.832845 )  


     PseudoPot. # 1 for Sn read from file:
     ./Sn.pw91-n-van.UPF
     MD5 check sum: a38d2a872edd1a4efd76c0a1a38f7031
     Pseudo is Ultrasoft + core correction, Zval = 14.0
     Generated by new atomic code, or converted to UPF format
     Using radial grid of  891 points,  6 beta functions with: 
                l(1) =   0
                l(2) =   0
                l(3) =   1
                l(4) =   1
                l(5) =   2
                l(6) =   2
     Q(r) pseudized with  8 coefficients,  rinner =    1.100   1.100   1.100
                                                       1.100   1.100

     atomic species   valence    mass     pseudopotential
     Sn               14.00   118.70000     Sn( 1.00)

     16 Sym. Ops., with inversion, found (12 have fractional translation)



   Cartesian axes

     site n.     atom                  positions (alat units)
         1        Sn     tau(   1) = (   0.0000000  -0.2500000   0.0682000  )
         2        Sn     tau(   2) = (   0.0000000   0.2500000  -0.0682000  )

     number of k points=    13
                       cart. coord. in units 2pi/alat
        k(    1) = (   0.0000000   0.0000000   0.0000000), wk =   0.0312500
        k(    2) = (  -0.2500000   0.0000000   0.4582111), wk =   0.2500000
        k(    3) = (   0.5000000   0.0000000  -0.9164223), wk =   0.1250000
        k(    4) = (  -0.2500000   0.2500000   0.9164223), wk =   0.2500000
        k(    5) = (   0.5000000   0.2500000  -0.4582111), wk =   0.5000000
        k(    6) = (   0.2500000   0.2500000   0.0000000), wk =   0.1250000
        k(    7) = (   0.5000000  -0.5000000  -1.8328446), wk =   0.0625000
        k(    8) = (   0.0000000   0.0000000   0.9164223), wk =   0.0625000
        k(    9) = (   0.7500000   0.0000000  -0.4582111), wk =   0.2500000
        k(   10) = (   0.5000000   0.0000000   0.0000000), wk =   0.1250000
        k(   11) = (   0.7500000  -0.7500000  -1.8328446), wk =   0.1250000
        k(   12) = (   0.5000000  -0.5000000  -0.9164223), wk =   0.0625000
        k(   13) = (   0.0000000   0.0000000  -1.8328446), wk =   0.0312500

     Dense  grid:    10643 G-vectors     FFT dimensions: (  32,  32,  32)

     Estimated max dynamical RAM per process >       1.73 MB

     Estimated total dynamical RAM >     202.95 MB

     Initial potential from superposition of free atoms

     starting charge      27.9964, renormalised to      28.0000
     Starting wfcs are   18 randomized atomic wfcs

     total cpu time spent up to now is        0.6 secs

     per-process dynamical memory:     9.1 Mb

     Self-consistent Calculation

     iteration #  1     ecut=    36.00 Ry     beta= 0.70
     Davidson diagonalization with overlap
     ethr =  1.00E-02,  avg # of iterations =  1.8

     Threshold (ethr) on eigenvalues was too large:
     Diagonalizing with lowered threshold

     Davidson diagonalization with overlap
     ethr =  2.48E-05,  avg # of iterations =  3.9

     total cpu time spent up to now is        0.7 secs

     total energy              =    -325.55135521 Ry
     estimated scf accuracy    <       0.00706622 Ry

     iteration #  2     ecut=    36.00 Ry     beta= 0.70
     Davidson diagonalization with overlap
     ethr =  2.52E-05,  avg # of iterations =  2.0

     total cpu time spent up to now is        0.7 secs

     total energy              =    -325.55233635 Ry
     estimated scf accuracy    <       0.00056501 Ry

     iteration #  3     ecut=    36.00 Ry     beta= 0.70
     Davidson diagonalization with overlap
     ethr =  2.02E-06,  avg # of iterations =  2.2

     total cpu time spent up to now is        0.7 secs

     total energy              =    -325.55239874 Ry
     estimated scf accuracy    <       0.00004164 Ry

     iteration #  4     ecut=    36.00 Ry     beta= 0.70
     Davidson diagonalization with overlap
     ethr =  1.49E-07,  avg # of iterations =  2.8

     total cpu time spent up to now is        0.7 secs

     total energy              =    -325.55240496 Ry
     estimated scf accuracy    <       0.00000064 Ry

     iteration #  5     ecut=    36.00 Ry     beta= 0.70
     Davidson diagonalization with overlap
     ethr =  2.28E-09,  avg # of iterations =  3.8

     total cpu time spent up to now is        0.7 secs

     End of self-consistent calculation

          k = 0.0000 0.0000 0.0000 (  1301 PWs)   bands (ev):

   -10.7963 -10.7121 -10.6655 -10.6562 -10.5062 -10.5062 -10.4942 -10.4942
   -10.4004 -10.2895  -0.3482   7.1585   8.8399   8.8399

          k =-0.2500 0.0000 0.4582 (  1318 PWs)   bands (ev):

   -10.7607 -10.6290 -10.6256 -10.5846 -10.5621 -10.5209 -10.5123 -10.4889
   -10.4219 -10.3251   0.8900   6.5818   9.0445  11.2831

          k = 0.5000 0.0000-0.9164 (  1326 PWs)   bands (ev):

   -10.7207 -10.6488 -10.6310 -10.5926 -10.5583 -10.5563 -10.4553 -10.4084
   -10.4045 -10.3586   3.8516   5.3949   8.4862   9.1147

          k =-0.2500 0.2500 0.9164 (  1331 PWs)   bands (ev):

   -10.7346 -10.6456 -10.6024 -10.5842 -10.5835 -10.5328 -10.4731 -10.4531
   -10.3772 -10.3494   3.7371   6.0492   7.1237   9.1088

          k = 0.5000 0.2500-0.4582 (  1328 PWs)   bands (ev):

   -10.7032 -10.6426 -10.6386 -10.5850 -10.5666 -10.5101 -10.4757 -10.4685
   -10.4517 -10.3868   2.0024   4.1397   9.3955  10.6286

          k = 0.2500 0.2500 0.0000 (  1335 PWs)   bands (ev):

   -10.7472 -10.7193 -10.6837 -10.6249 -10.5334 -10.4853 -10.4836 -10.4765
   -10.4311 -10.3393   0.2165   4.5864   9.5067  10.5373

          k = 0.5000-0.5000-1.8328 (  1338 PWs)   bands (ev):

   -10.7159 -10.7159 -10.6283 -10.6283 -10.5316 -10.5316 -10.4617 -10.4617
   -10.4226 -10.4226   1.8995   1.8995  11.4190  11.4190

          k = 0.0000 0.0000 0.9164 (  1346 PWs)   bands (ev):

   -10.7273 -10.6173 -10.6173 -10.5972 -10.5531 -10.5531 -10.5287 -10.4334
   -10.3803 -10.3342   3.2940   7.1410   7.9731   9.4594

          k = 0.7500 0.0000-0.4582 (  1336 PWs)   bands (ev):

   -10.6904 -10.6472 -10.5843 -10.5748 -10.5401 -10.5234 -10.5124 -10.4752
   -10.4691 -10.4133   3.0213   4.3580   7.2625   8.4575

          k = 0.5000 0.0000 0.0000 (  1333 PWs)   bands (ev):

   -10.7316 -10.7013 -10.6899 -10.5942 -10.5103 -10.5025 -10.4990 -10.4555
   -10.4529 -10.3839   0.7790   4.3527   7.0805  10.7929

          k = 0.7500-0.7500-1.8328 (  1338 PWs)   bands (ev):

   -10.7222 -10.7222 -10.5898 -10.5898 -10.5249 -10.5249 -10.4758 -10.4758
   -10.4473 -10.4473   2.4038   2.4038   7.9920   7.9920

          k = 0.5000-0.5000-0.9164 (  1328 PWs)   bands (ev):

   -10.6980 -10.6980 -10.6273 -10.6273 -10.5184 -10.5184 -10.4248 -10.4248
   -10.3979 -10.3979   4.8039   4.8039   7.2819   7.2819

          k = 0.0000 0.0000-1.8328 (  1362 PWs)   bands (ev):

   -10.7262 -10.7262 -10.5260 -10.5260 -10.5153 -10.5153 -10.5039 -10.5039
   -10.4913 -10.4913   3.2412   3.2412   6.0126   6.0126

     highest occupied level (ev):    11.4190

!    total energy              =    -325.55240524 Ry
     estimated scf accuracy    <       0.00000006 Ry

     The total energy is the sum of the following terms:
     one-electron contribution =    -107.28162549 Ry
     hartree contribution      =      74.46656639 Ry
     xc contribution           =     -95.22204290 Ry
     ewald contribution        =    -197.51530324 Ry

     convergence has been achieved in   5 iterations

     Writing all to output data dir ./beta-sn-scf/betatin.save/ :
     XML data file, charge density, pseudopotentials, collected wavefunctions

     init_run     :      0.25s CPU      0.27s WALL (       1 calls)
     electrons    :      0.12s CPU      0.17s WALL (       1 calls)

     Called by init_run:
     wfcinit      :      0.03s CPU      0.03s WALL (       1 calls)
     potinit      :      0.02s CPU      0.03s WALL (       1 calls)
     hinit0       :      0.17s CPU      0.18s WALL (       1 calls)

     Called by electrons:
     c_bands      :      0.07s CPU      0.09s WALL (       6 calls)
     sum_band     :      0.02s CPU      0.03s WALL (       6 calls)
     v_of_rho     :      0.02s CPU      0.02s WALL (       6 calls)
     newd         :      0.01s CPU      0.01s WALL (       6 calls)
     mix_rho      :      0.00s CPU      0.00s WALL (       6 calls)

     Called by c_bands:
     init_us_2    :      0.00s CPU      0.00s WALL (      26 calls)
     cegterg      :      0.07s CPU      0.07s WALL (      12 calls)

     Called by *egterg:
     cdiaghg      :      0.01s CPU      0.02s WALL (      50 calls)
     h_psi        :      0.07s CPU      0.08s WALL (      54 calls)
     s_psi        :      0.00s CPU      0.00s WALL (      54 calls)
     g_psi        :      0.00s CPU      0.00s WALL (      40 calls)

     Called by h_psi:
     h_psi:calbec :      0.00s CPU      0.00s WALL (      54 calls)
     vloc_psi     :      0.06s CPU      0.07s WALL (      54 calls)
     add_vuspsi   :      0.00s CPU      0.00s WALL (      54 calls)

     General routines
     calbec       :      0.00s CPU      0.01s WALL (      66 calls)
     fft          :      0.15s CPU      0.15s WALL (      67 calls)
     ffts         :      0.00s CPU      0.00s WALL (       6 calls)
     fftw         :      0.07s CPU      0.08s WALL (    1088 calls)

     Parallel routines

     PWSCF        :      0.63s CPU      0.85s WALL


   This run was terminated on:  15:48:24   5Feb2026            

=------------------------------------------------------------------------------=
   JOB DONE.
=------------------------------------------------------------------------------=
