
     Program PWSCF v.7.3.1 starts on  4Feb2026 at 12: 4:37 

     This program is part of the open-source Quantum ESPRESSO suite
     for quantum simulation of materials; please cite
         "P. Giannozzi et al., J. Phys.:Condens. Matter 21 395502 (2009);
         "P. Giannozzi et al., J. Phys.:Condens. Matter 29 465901 (2017);
         "P. Giannozzi et al., J. Chem. Phys. 152 154105 (2020);
          URL http://www.quantum-espresso.org", 
     in publications or presentations arising from this work. More details at
     http://www.quantum-espresso.org/quote

     Parallel version (MPI), running on   128 processors

     MPI processes distributed on     1 nodes
     240540 MiB available memory on the printing compute node when the environment starts

     Waiting for input...
     Reading input from standard input

     Current dimensions of program PWSCF are:
     Max number of different atomic species (ntypx) = 10
     Max number of k-points (npk) =  40000
     Max angular momentum in pseudopotentials (lmaxx) =  4

     K-points division:     npool     =       4
     R & G space division:  proc/nbgrp/npool/nimage =      32
     Subspace diagonalization in iterative solution of the eigenvalue problem:
     a serial algorithm will be used


     Parallelization info
     --------------------
     sticks:   dense  smooth     PW     G-vecs:    dense   smooth      PW
     Min         248     248     69                10529    10529    1582
     Max         249     249     70                10532    10532    1586
     Sum        7937    7937   2235               336965   336965   50707

     Using Slab Decomposition



     bravais-lattice index     =            7
     lattice parameter (alat)  =      11.0200  a.u.
     unit-cell volume          =     365.0809 (a.u.)^3
     number of atoms/cell      =            2
     number of atomic types    =            1
     number of electrons       =        28.00
     number of Kohn-Sham states=           14
     kinetic-energy cutoff     =     360.0000  Ry
     charge density cutoff     =    1440.0000  Ry
     scf convergence threshold =      1.0E-07
     mixing beta               =       0.7000
     number of iterations used =            8  plain     mixing
     Exchange-correlation=  SLA  PW   GGX  GGC
                           (   1   4   2   2   0   0   0)

     celldm(1)=  11.020000  celldm(2)=   0.000000  celldm(3)=   0.545600
     celldm(4)=   0.000000  celldm(5)=   0.000000  celldm(6)=   0.000000

     crystal axes: (cart. coord. in units of alat)
               a(1) = (   0.500000  -0.500000   0.272800 )  
               a(2) = (   0.500000   0.500000   0.272800 )  
               a(3) = (  -0.500000  -0.500000   0.272800 )  

     reciprocal axes: (cart. coord. in units 2 pi/alat)
               b(1) = (  1.000000 -1.000000  0.000000 )  
               b(2) = (  0.000000  1.000000  1.832845 )  
               b(3) = ( -1.000000  0.000000  1.832845 )  


     PseudoPot. # 1 for Sn read from file:
     ./Sn.pw91-n-van.UPF
     MD5 check sum: a38d2a872edd1a4efd76c0a1a38f7031
     Pseudo is Ultrasoft + core correction, Zval = 14.0
     Generated by new atomic code, or converted to UPF format
     Using radial grid of  891 points,  6 beta functions with: 
                l(1) =   0
                l(2) =   0
                l(3) =   1
                l(4) =   1
                l(5) =   2
                l(6) =   2
     Q(r) pseudized with  8 coefficients,  rinner =    1.100   1.100   1.100
                                                       1.100   1.100

     atomic species   valence    mass     pseudopotential
     Sn               14.00   118.70000     Sn( 1.00)

     16 Sym. Ops., with inversion, found (12 have fractional translation)



   Cartesian axes

     site n.     atom                  positions (alat units)
         1        Sn     tau(   1) = (   0.0000000  -0.2500000   0.0682000  )
         2        Sn     tau(   2) = (   0.0000000   0.2500000  -0.0682000  )

     number of k points=    13
                       cart. coord. in units 2pi/alat
        k(    1) = (   0.0000000   0.0000000   0.0000000), wk =   0.0312500
        k(    2) = (  -0.2500000   0.0000000   0.4582111), wk =   0.2500000
        k(    3) = (   0.5000000   0.0000000  -0.9164223), wk =   0.1250000
        k(    4) = (  -0.2500000   0.2500000   0.9164223), wk =   0.2500000
        k(    5) = (   0.5000000   0.2500000  -0.4582111), wk =   0.5000000
        k(    6) = (   0.2500000   0.2500000   0.0000000), wk =   0.1250000
        k(    7) = (   0.5000000  -0.5000000  -1.8328446), wk =   0.0625000
        k(    8) = (   0.0000000   0.0000000   0.9164223), wk =   0.0625000
        k(    9) = (   0.7500000   0.0000000  -0.4582111), wk =   0.2500000
        k(   10) = (   0.5000000   0.0000000   0.0000000), wk =   0.1250000
        k(   11) = (   0.7500000  -0.7500000  -1.8328446), wk =   0.1250000
        k(   12) = (   0.5000000  -0.5000000  -0.9164223), wk =   0.0625000
        k(   13) = (   0.0000000   0.0000000  -1.8328446), wk =   0.0312500

     Dense  grid:   336965 G-vectors     FFT dimensions: ( 108, 108, 108)

     Estimated max dynamical RAM per process >      20.42 MB

     Estimated total dynamical RAM >       2.31 GB

     Initial potential from superposition of free atoms

     starting charge      27.9964, renormalised to      28.0000
     Starting wfcs are   18 randomized atomic wfcs

     total cpu time spent up to now is        1.4 secs

     per-process dynamical memory:    25.7 Mb

     Self-consistent Calculation

     iteration #  1     ecut=   360.00 Ry     beta= 0.70
     Davidson diagonalization with overlap
     ethr =  1.00E-02,  avg # of iterations =  2.8

     Threshold (ethr) on eigenvalues was too large:
     Diagonalizing with lowered threshold

     Davidson diagonalization with overlap
     ethr =  8.20E-05,  avg # of iterations =  3.4

     total cpu time spent up to now is        2.3 secs

     total energy              =    -325.43713422 Ry
     estimated scf accuracy    <       0.02697330 Ry

     iteration #  2     ecut=   360.00 Ry     beta= 0.70
     Davidson diagonalization with overlap
     ethr =  9.63E-05,  avg # of iterations =  4.8

     total cpu time spent up to now is        2.8 secs

     total energy              =    -325.55681310 Ry
     estimated scf accuracy    <       0.02360668 Ry

     iteration #  3     ecut=   360.00 Ry     beta= 0.70
     Davidson diagonalization with overlap
     ethr =  8.43E-05,  avg # of iterations =  2.0

     total cpu time spent up to now is        3.2 secs

     total energy              =    -325.57853737 Ry
     estimated scf accuracy    <       0.00568186 Ry

     iteration #  4     ecut=   360.00 Ry     beta= 0.70
     Davidson diagonalization with overlap
     ethr =  2.03E-05,  avg # of iterations =  2.9

     total cpu time spent up to now is        3.7 secs

     total energy              =    -325.59238462 Ry
     estimated scf accuracy    <       0.00145588 Ry

     iteration #  5     ecut=   360.00 Ry     beta= 0.70
     Davidson diagonalization with overlap
     ethr =  5.20E-06,  avg # of iterations =  2.2

     total cpu time spent up to now is        4.1 secs

     total energy              =    -325.59311141 Ry
     estimated scf accuracy    <       0.00010473 Ry

     iteration #  6     ecut=   360.00 Ry     beta= 0.70
     Davidson diagonalization with overlap
     ethr =  3.74E-07,  avg # of iterations =  2.5

     total cpu time spent up to now is        4.5 secs

     total energy              =    -325.59313602 Ry
     estimated scf accuracy    <       0.00000188 Ry

     iteration #  7     ecut=   360.00 Ry     beta= 0.70
     Davidson diagonalization with overlap
     ethr =  6.70E-09,  avg # of iterations =  4.0

     total cpu time spent up to now is        5.0 secs

     total energy              =    -325.59313688 Ry
     estimated scf accuracy    <       0.00000036 Ry

     iteration #  8     ecut=   360.00 Ry     beta= 0.70
     Davidson diagonalization with overlap
     ethr =  1.30E-09,  avg # of iterations =  2.0

     total cpu time spent up to now is        5.4 secs

     End of self-consistent calculation

          k = 0.0000 0.0000 0.0000 ( 42007 PWs)   bands (ev):

   -10.8120 -10.7292 -10.6855 -10.6740 -10.5240 -10.5240 -10.5129 -10.5129
   -10.4211 -10.3090  -0.3467   7.1625   8.8401   8.8401

          k =-0.2500 0.0000 0.4582 ( 42108 PWs)   bands (ev):

   -10.7761 -10.6482 -10.6435 -10.6023 -10.5798 -10.5386 -10.5301 -10.5072
   -10.4421 -10.3435   0.8916   6.5850   9.0442  11.2837

          k = 0.5000 0.0000-0.9164 ( 42126 PWs)   bands (ev):

   -10.7367 -10.6662 -10.6495 -10.6100 -10.5760 -10.5730 -10.4744 -10.4272
   -10.4235 -10.3770   3.8541   5.3963   8.4882   9.1147

          k =-0.2500 0.2500 0.9164 ( 42102 PWs)   bands (ev):

   -10.7506 -10.6628 -10.6196 -10.6026 -10.6007 -10.5502 -10.4914 -10.4720
   -10.3956 -10.3679   3.7394   6.0518   7.1236   9.1087

          k = 0.5000 0.2500-0.4582 ( 42107 PWs)   bands (ev):

   -10.7193 -10.6599 -10.6562 -10.6022 -10.5851 -10.5280 -10.4943 -10.4867
   -10.4695 -10.4052   2.0041   4.1418   9.3958  10.6283

          k = 0.2500 0.2500 0.0000 ( 42045 PWs)   bands (ev):

   -10.7620 -10.7360 -10.7007 -10.6437 -10.5507 -10.5033 -10.5016 -10.4936
   -10.4504 -10.3575   0.2180   4.5885   9.5066  10.5382

          k = 0.5000-0.5000-1.8328 ( 42148 PWs)   bands (ev):

   -10.7324 -10.7324 -10.6446 -10.6446 -10.5507 -10.5507 -10.4793 -10.4793
   -10.4403 -10.4403   1.9012   1.9012  11.4185  11.4185

          k = 0.0000 0.0000 0.9164 ( 42126 PWs)   bands (ev):

   -10.7422 -10.6345 -10.6345 -10.6150 -10.5700 -10.5700 -10.5461 -10.4528
   -10.3981 -10.3524   3.2961   7.1441   7.9735   9.4591

          k = 0.7500 0.0000-0.4582 ( 42097 PWs)   bands (ev):

   -10.7065 -10.6642 -10.6016 -10.5923 -10.5578 -10.5411 -10.5302 -10.4936
   -10.4874 -10.4312   3.0232   4.3606   7.2619   8.4576

          k = 0.5000 0.0000 0.0000 ( 42083 PWs)   bands (ev):

   -10.7479 -10.7183 -10.7063 -10.6123 -10.5281 -10.5202 -10.5164 -10.4736
   -10.4714 -10.4024   0.7805   4.3551   7.0800  10.7929

          k = 0.7500-0.7500-1.8328 ( 42130 PWs)   bands (ev):

   -10.7389 -10.7389 -10.6068 -10.6068 -10.5429 -10.5429 -10.4936 -10.4936
   -10.4649 -10.4649   2.4055   2.4055   7.9919   7.9919

          k = 0.5000-0.5000-0.9164 ( 42160 PWs)   bands (ev):

   -10.7148 -10.7148 -10.6444 -10.6444 -10.5369 -10.5369 -10.4433 -10.4433
   -10.4163 -10.4163   4.8067   4.8067   7.2814   7.2814

          k = 0.0000 0.0000-1.8328 ( 42158 PWs)   bands (ev):

   -10.7417 -10.7417 -10.5431 -10.5431 -10.5327 -10.5327 -10.5210 -10.5210
   -10.5083 -10.5083   3.2434   3.2434   6.0122   6.0122

     highest occupied level (ev):    11.4185

!    total energy              =    -325.59313698 Ry
     estimated scf accuracy    <       0.00000004 Ry

     The total energy is the sum of the following terms:
     one-electron contribution =    -107.33402870 Ry
     hartree contribution      =      74.47922002 Ry
     xc contribution           =     -95.22302511 Ry
     ewald contribution        =    -197.51530320 Ry

     convergence has been achieved in   8 iterations

     Writing all to output data dir ./beta-sn-scf/betatin.save/ :
     XML data file, charge density, pseudopotentials, collected wavefunctions

     init_run     :      1.01s CPU      1.11s WALL (       1 calls)
     electrons    :      3.88s CPU      4.12s WALL (       1 calls)

     Called by init_run:
     wfcinit      :      0.13s CPU      0.16s WALL (       1 calls)
     potinit      :      0.06s CPU      0.08s WALL (       1 calls)
     hinit0       :      0.51s CPU      0.53s WALL (       1 calls)

     Called by electrons:
     c_bands      :      2.56s CPU      2.61s WALL (       9 calls)
     sum_band     :      0.69s CPU      0.72s WALL (       9 calls)
     v_of_rho     :      0.42s CPU      0.46s WALL (       9 calls)
     newd         :      0.15s CPU      0.16s WALL (       9 calls)
     mix_rho      :      0.05s CPU      0.05s WALL (       9 calls)

     Called by c_bands:
     init_us_2    :      0.05s CPU      0.05s WALL (      76 calls)
     cegterg      :      2.36s CPU      2.39s WALL (      36 calls)

     Called by *egterg:
     cdiaghg      :      0.05s CPU      0.05s WALL (     145 calls)
     h_psi        :      2.22s CPU      2.26s WALL (     153 calls)
     s_psi        :      0.03s CPU      0.03s WALL (     153 calls)
     g_psi        :      0.00s CPU      0.00s WALL (     113 calls)

     Called by h_psi:
     h_psi:calbec :      0.07s CPU      0.07s WALL (     153 calls)
     vloc_psi     :      2.10s CPU      2.14s WALL (     153 calls)
     add_vuspsi   :      0.03s CPU      0.04s WALL (     153 calls)

     General routines
     calbec       :      0.08s CPU      0.08s WALL (     189 calls)
     fft          :      0.67s CPU      0.72s WALL (     100 calls)
     ffts         :      0.02s CPU      0.02s WALL (       9 calls)
     fftw         :      2.23s CPU      2.27s WALL (    3196 calls)

     Parallel routines

     PWSCF        :      5.18s CPU      6.02s WALL


   This run was terminated on:  12: 4:43   4Feb2026            

=------------------------------------------------------------------------------=
   JOB DONE.
=------------------------------------------------------------------------------=
