
     Program PWSCF v.7.3.1 starts on  5Feb2026 at 15:48:31 

     This program is part of the open-source Quantum ESPRESSO suite
     for quantum simulation of materials; please cite
         "P. Giannozzi et al., J. Phys.:Condens. Matter 21 395502 (2009);
         "P. Giannozzi et al., J. Phys.:Condens. Matter 29 465901 (2017);
         "P. Giannozzi et al., J. Chem. Phys. 152 154105 (2020);
          URL http://www.quantum-espresso.org", 
     in publications or presentations arising from this work. More details at
     http://www.quantum-espresso.org/quote

     Parallel version (MPI), running on   128 processors

     MPI processes distributed on     1 nodes
     242392 MiB available memory on the printing compute node when the environment starts

     Waiting for input...
     Reading input from standard input

     Current dimensions of program PWSCF are:
     Max number of different atomic species (ntypx) = 10
     Max number of k-points (npk) =  40000
     Max angular momentum in pseudopotentials (lmaxx) =  4

     K-points division:     npool     =       8
     R & G space division:  proc/nbgrp/npool/nimage =      16
     Subspace diagonalization in iterative solution of the eigenvalue problem:
     a serial algorithm will be used


     Parallelization info
     --------------------
     sticks:   dense  smooth     PW     G-vecs:    dense   smooth      PW
     Min          52      52     18                  725      725     151
     Max          53      53     19                  728      728     152
     Sum         841     841    291                11623    11623    2419

     Using Slab Decomposition



     bravais-lattice index     =            7
     lattice parameter (alat)  =      11.0200  a.u.
     unit-cell volume          =     365.0809 (a.u.)^3
     number of atoms/cell      =            2
     number of atomic types    =            1
     number of electrons       =        28.00
     number of Kohn-Sham states=           14
     kinetic-energy cutoff     =      38.0000  Ry
     charge density cutoff     =     152.0000  Ry
     scf convergence threshold =      1.0E-07
     mixing beta               =       0.7000
     number of iterations used =            8  plain     mixing
     Exchange-correlation=  SLA  PW   GGX  GGC
                           (   1   4   2   2   0   0   0)

     celldm(1)=  11.020000  celldm(2)=   0.000000  celldm(3)=   0.545600
     celldm(4)=   0.000000  celldm(5)=   0.000000  celldm(6)=   0.000000

     crystal axes: (cart. coord. in units of alat)
               a(1) = (   0.500000  -0.500000   0.272800 )  
               a(2) = (   0.500000   0.500000   0.272800 )  
               a(3) = (  -0.500000  -0.500000   0.272800 )  

     reciprocal axes: (cart. coord. in units 2 pi/alat)
               b(1) = (  1.000000 -1.000000  0.000000 )  
               b(2) = (  0.000000  1.000000  1.832845 )  
               b(3) = ( -1.000000  0.000000  1.832845 )  


     PseudoPot. # 1 for Sn read from file:
     ./Sn.pw91-n-van.UPF
     MD5 check sum: a38d2a872edd1a4efd76c0a1a38f7031
     Pseudo is Ultrasoft + core correction, Zval = 14.0
     Generated by new atomic code, or converted to UPF format
     Using radial grid of  891 points,  6 beta functions with: 
                l(1) =   0
                l(2) =   0
                l(3) =   1
                l(4) =   1
                l(5) =   2
                l(6) =   2
     Q(r) pseudized with  8 coefficients,  rinner =    1.100   1.100   1.100
                                                       1.100   1.100

     atomic species   valence    mass     pseudopotential
     Sn               14.00   118.70000     Sn( 1.00)

     16 Sym. Ops., with inversion, found (12 have fractional translation)



   Cartesian axes

     site n.     atom                  positions (alat units)
         1        Sn     tau(   1) = (   0.0000000  -0.2500000   0.0682000  )
         2        Sn     tau(   2) = (   0.0000000   0.2500000  -0.0682000  )

     number of k points=    13
                       cart. coord. in units 2pi/alat
        k(    1) = (   0.0000000   0.0000000   0.0000000), wk =   0.0312500
        k(    2) = (  -0.2500000   0.0000000   0.4582111), wk =   0.2500000
        k(    3) = (   0.5000000   0.0000000  -0.9164223), wk =   0.1250000
        k(    4) = (  -0.2500000   0.2500000   0.9164223), wk =   0.2500000
        k(    5) = (   0.5000000   0.2500000  -0.4582111), wk =   0.5000000
        k(    6) = (   0.2500000   0.2500000   0.0000000), wk =   0.1250000
        k(    7) = (   0.5000000  -0.5000000  -1.8328446), wk =   0.0625000
        k(    8) = (   0.0000000   0.0000000   0.9164223), wk =   0.0625000
        k(    9) = (   0.7500000   0.0000000  -0.4582111), wk =   0.2500000
        k(   10) = (   0.5000000   0.0000000   0.0000000), wk =   0.1250000
        k(   11) = (   0.7500000  -0.7500000  -1.8328446), wk =   0.1250000
        k(   12) = (   0.5000000  -0.5000000  -0.9164223), wk =   0.0625000
        k(   13) = (   0.0000000   0.0000000  -1.8328446), wk =   0.0312500

     Dense  grid:    11623 G-vectors     FFT dimensions: (  36,  36,  36)

     Estimated max dynamical RAM per process >       1.93 MB

     Estimated total dynamical RAM >     227.70 MB

     Initial potential from superposition of free atoms

     starting charge      27.9964, renormalised to      28.0000
     Starting wfcs are   18 randomized atomic wfcs

     total cpu time spent up to now is        0.7 secs

     per-process dynamical memory:     9.6 Mb

     Self-consistent Calculation

     iteration #  1     ecut=    38.00 Ry     beta= 0.70
     Davidson diagonalization with overlap
     ethr =  1.00E-02,  avg # of iterations =  1.8

     Threshold (ethr) on eigenvalues was too large:
     Diagonalizing with lowered threshold

     Davidson diagonalization with overlap
     ethr =  2.47E-05,  avg # of iterations =  3.8

     total cpu time spent up to now is        0.8 secs

     total energy              =    -325.55496324 Ry
     estimated scf accuracy    <       0.00702712 Ry

     iteration #  2     ecut=    38.00 Ry     beta= 0.70
     Davidson diagonalization with overlap
     ethr =  2.51E-05,  avg # of iterations =  2.0

     total cpu time spent up to now is        0.8 secs

     total energy              =    -325.55594826 Ry
     estimated scf accuracy    <       0.00056687 Ry

     iteration #  3     ecut=    38.00 Ry     beta= 0.70
     Davidson diagonalization with overlap
     ethr =  2.02E-06,  avg # of iterations =  2.3

     total cpu time spent up to now is        0.8 secs

     total energy              =    -325.55601408 Ry
     estimated scf accuracy    <       0.00004353 Ry

     iteration #  4     ecut=    38.00 Ry     beta= 0.70
     Davidson diagonalization with overlap
     ethr =  1.55E-07,  avg # of iterations =  2.7

     total cpu time spent up to now is        0.8 secs

     total energy              =    -325.55601890 Ry
     estimated scf accuracy    <       0.00000020 Ry

     iteration #  5     ecut=    38.00 Ry     beta= 0.70
     Davidson diagonalization with overlap
     ethr =  7.05E-10,  avg # of iterations =  4.5

     total cpu time spent up to now is        0.9 secs

     End of self-consistent calculation

          k = 0.0000 0.0000 0.0000 (  1445 PWs)   bands (ev):

   -10.7968 -10.7139 -10.6708 -10.6582 -10.5077 -10.5077 -10.4976 -10.4976
   -10.4052 -10.2910  -0.3479   7.1590   8.8399   8.8399

          k =-0.2500 0.0000 0.4582 (  1441 PWs)   bands (ev):

   -10.7609 -10.6327 -10.6279 -10.5867 -10.5638 -10.5229 -10.5141 -10.4911
   -10.4259 -10.3261   0.8903   6.5822   9.0444  11.2830

          k = 0.5000 0.0000-0.9164 (  1450 PWs)   bands (ev):

   -10.7212 -10.6509 -10.6333 -10.5949 -10.5607 -10.5578 -10.4586 -10.4106
   -10.4080 -10.3599   3.8521   5.3950   8.4863   9.1143

          k =-0.2500 0.2500 0.9164 (  1452 PWs)   bands (ev):

   -10.7352 -10.6471 -10.6043 -10.5870 -10.5856 -10.5344 -10.4758 -10.4563
   -10.3795 -10.3510   3.7376   6.0497   7.1234   9.1084

          k = 0.5000 0.2500-0.4582 (  1441 PWs)   bands (ev):

   -10.7039 -10.6442 -10.6407 -10.5866 -10.5696 -10.5120 -10.4785 -10.4708
   -10.4532 -10.3880   2.0026   4.1400   9.3956  10.6284

          k = 0.2500 0.2500 0.0000 (  1437 PWs)   bands (ev):

   -10.7466 -10.7206 -10.6851 -10.6283 -10.5351 -10.4875 -10.4853 -10.4778
   -10.4343 -10.3399   0.2167   4.5867   9.5067  10.5374

          k = 0.5000-0.5000-1.8328 (  1476 PWs)   bands (ev):

   -10.7175 -10.7175 -10.6299 -10.6299 -10.5357 -10.5357 -10.4641 -10.4641
   -10.4242 -10.4242   1.8998   1.8998  11.4189  11.4189

          k = 0.0000 0.0000 0.9164 (  1438 PWs)   bands (ev):

   -10.7273 -10.6179 -10.6179 -10.5996 -10.5547 -10.5547 -10.5306 -10.4372
   -10.3815 -10.3349   3.2944   7.1415   7.9728   9.4595

          k = 0.7500 0.0000-0.4582 (  1449 PWs)   bands (ev):

   -10.6914 -10.6491 -10.5863 -10.5766 -10.5423 -10.5256 -10.5145 -10.4783
   -10.4711 -10.4141   3.0216   4.3584   7.2624   8.4576

          k = 0.5000 0.0000 0.0000 (  1435 PWs)   bands (ev):

   -10.7328 -10.7028 -10.6907 -10.5966 -10.5123 -10.5039 -10.5009 -10.4571
   -10.4557 -10.3853   0.7792   4.3530   7.0805  10.7929

          k = 0.7500-0.7500-1.8328 (  1440 PWs)   bands (ev):

   -10.7236 -10.7236 -10.5909 -10.5909 -10.5275 -10.5275 -10.4777 -10.4777
   -10.4483 -10.4483   2.4041   2.4041   7.9920   7.9920

          k = 0.5000-0.5000-0.9164 (  1448 PWs)   bands (ev):

   -10.6994 -10.6994 -10.6291 -10.6291 -10.5211 -10.5211 -10.4265 -10.4265
   -10.4005 -10.4005   4.8045   4.8045   7.2815   7.2815

          k = 0.0000 0.0000-1.8328 (  1426 PWs)   bands (ev):

   -10.7263 -10.7263 -10.5261 -10.5261 -10.5172 -10.5172 -10.5047 -10.5047
   -10.4924 -10.4924   3.2416   3.2416   6.0126   6.0126

     highest occupied level (ev):    11.4189

!    total energy              =    -325.55601925 Ry
     estimated scf accuracy    <          7.1E-09 Ry

     The total energy is the sum of the following terms:
     one-electron contribution =    -107.28646549 Ry
     hartree contribution      =      74.46695334 Ry
     xc contribution           =     -95.22120385 Ry
     ewald contribution        =    -197.51530324 Ry

     convergence has been achieved in   5 iterations

     Writing all to output data dir ./beta-sn-scf/betatin.save/ :
     XML data file, charge density, pseudopotentials, collected wavefunctions

     init_run     :      0.31s CPU      0.37s WALL (       1 calls)
     electrons    :      0.19s CPU      0.21s WALL (       1 calls)

     Called by init_run:
     wfcinit      :      0.01s CPU      0.02s WALL (       1 calls)
     potinit      :      0.00s CPU      0.02s WALL (       1 calls)
     hinit0       :      0.28s CPU      0.29s WALL (       1 calls)

     Called by electrons:
     c_bands      :      0.11s CPU      0.12s WALL (       6 calls)
     sum_band     :      0.03s CPU      0.03s WALL (       6 calls)
     v_of_rho     :      0.02s CPU      0.03s WALL (       6 calls)
     newd         :      0.01s CPU      0.01s WALL (       6 calls)
     mix_rho      :      0.00s CPU      0.00s WALL (       6 calls)

     Called by c_bands:
     init_us_2    :      0.00s CPU      0.00s WALL (      26 calls)
     cegterg      :      0.09s CPU      0.10s WALL (      12 calls)

     Called by *egterg:
     cdiaghg      :      0.02s CPU      0.02s WALL (      52 calls)
     h_psi        :      0.08s CPU      0.09s WALL (      56 calls)
     s_psi        :      0.00s CPU      0.00s WALL (      56 calls)
     g_psi        :      0.00s CPU      0.00s WALL (      42 calls)

     Called by h_psi:
     h_psi:calbec :      0.00s CPU      0.00s WALL (      56 calls)
     vloc_psi     :      0.07s CPU      0.08s WALL (      56 calls)
     add_vuspsi   :      0.00s CPU      0.00s WALL (      56 calls)

     General routines
     calbec       :      0.00s CPU      0.00s WALL (      68 calls)
     fft          :      0.26s CPU      0.27s WALL (      67 calls)
     ffts         :      0.00s CPU      0.00s WALL (       6 calls)
     fftw         :      0.08s CPU      0.08s WALL (    1118 calls)

     Parallel routines

     PWSCF        :      0.75s CPU      0.99s WALL


   This run was terminated on:  15:48:32   5Feb2026            

=------------------------------------------------------------------------------=
   JOB DONE.
=------------------------------------------------------------------------------=
