
     Program PWSCF v.7.3.1 starts on  5Feb2026 at 15:48:39 

     This program is part of the open-source Quantum ESPRESSO suite
     for quantum simulation of materials; please cite
         "P. Giannozzi et al., J. Phys.:Condens. Matter 21 395502 (2009);
         "P. Giannozzi et al., J. Phys.:Condens. Matter 29 465901 (2017);
         "P. Giannozzi et al., J. Chem. Phys. 152 154105 (2020);
          URL http://www.quantum-espresso.org", 
     in publications or presentations arising from this work. More details at
     http://www.quantum-espresso.org/quote

     Parallel version (MPI), running on   128 processors

     MPI processes distributed on     1 nodes
     242423 MiB available memory on the printing compute node when the environment starts

     Waiting for input...
     Reading input from standard input

     Current dimensions of program PWSCF are:
     Max number of different atomic species (ntypx) = 10
     Max number of k-points (npk) =  40000
     Max angular momentum in pseudopotentials (lmaxx) =  4

     K-points division:     npool     =       8
     R & G space division:  proc/nbgrp/npool/nimage =      16
     Subspace diagonalization in iterative solution of the eigenvalue problem:
     a serial algorithm will be used


     Parallelization info
     --------------------
     sticks:   dense  smooth     PW     G-vecs:    dense   smooth      PW
     Min          55      55     18                  780      780     162
     Max          56      56     19                  781      781     165
     Sum         883     883    303                12485    12485    2619

     Using Slab Decomposition



     bravais-lattice index     =            7
     lattice parameter (alat)  =      11.0200  a.u.
     unit-cell volume          =     365.0809 (a.u.)^3
     number of atoms/cell      =            2
     number of atomic types    =            1
     number of electrons       =        28.00
     number of Kohn-Sham states=           14
     kinetic-energy cutoff     =      40.0000  Ry
     charge density cutoff     =     160.0000  Ry
     scf convergence threshold =      1.0E-07
     mixing beta               =       0.7000
     number of iterations used =            8  plain     mixing
     Exchange-correlation=  SLA  PW   GGX  GGC
                           (   1   4   2   2   0   0   0)

     celldm(1)=  11.020000  celldm(2)=   0.000000  celldm(3)=   0.545600
     celldm(4)=   0.000000  celldm(5)=   0.000000  celldm(6)=   0.000000

     crystal axes: (cart. coord. in units of alat)
               a(1) = (   0.500000  -0.500000   0.272800 )  
               a(2) = (   0.500000   0.500000   0.272800 )  
               a(3) = (  -0.500000  -0.500000   0.272800 )  

     reciprocal axes: (cart. coord. in units 2 pi/alat)
               b(1) = (  1.000000 -1.000000  0.000000 )  
               b(2) = (  0.000000  1.000000  1.832845 )  
               b(3) = ( -1.000000  0.000000  1.832845 )  


     PseudoPot. # 1 for Sn read from file:
     ./Sn.pw91-n-van.UPF
     MD5 check sum: a38d2a872edd1a4efd76c0a1a38f7031
     Pseudo is Ultrasoft + core correction, Zval = 14.0
     Generated by new atomic code, or converted to UPF format
     Using radial grid of  891 points,  6 beta functions with: 
                l(1) =   0
                l(2) =   0
                l(3) =   1
                l(4) =   1
                l(5) =   2
                l(6) =   2
     Q(r) pseudized with  8 coefficients,  rinner =    1.100   1.100   1.100
                                                       1.100   1.100

     atomic species   valence    mass     pseudopotential
     Sn               14.00   118.70000     Sn( 1.00)

     16 Sym. Ops., with inversion, found (12 have fractional translation)



   Cartesian axes

     site n.     atom                  positions (alat units)
         1        Sn     tau(   1) = (   0.0000000  -0.2500000   0.0682000  )
         2        Sn     tau(   2) = (   0.0000000   0.2500000  -0.0682000  )

     number of k points=    13
                       cart. coord. in units 2pi/alat
        k(    1) = (   0.0000000   0.0000000   0.0000000), wk =   0.0312500
        k(    2) = (  -0.2500000   0.0000000   0.4582111), wk =   0.2500000
        k(    3) = (   0.5000000   0.0000000  -0.9164223), wk =   0.1250000
        k(    4) = (  -0.2500000   0.2500000   0.9164223), wk =   0.2500000
        k(    5) = (   0.5000000   0.2500000  -0.4582111), wk =   0.5000000
        k(    6) = (   0.2500000   0.2500000   0.0000000), wk =   0.1250000
        k(    7) = (   0.5000000  -0.5000000  -1.8328446), wk =   0.0625000
        k(    8) = (   0.0000000   0.0000000   0.9164223), wk =   0.0625000
        k(    9) = (   0.7500000   0.0000000  -0.4582111), wk =   0.2500000
        k(   10) = (   0.5000000   0.0000000   0.0000000), wk =   0.1250000
        k(   11) = (   0.7500000  -0.7500000  -1.8328446), wk =   0.1250000
        k(   12) = (   0.5000000  -0.5000000  -0.9164223), wk =   0.0625000
        k(   13) = (   0.0000000   0.0000000  -1.8328446), wk =   0.0312500

     Dense  grid:    12485 G-vectors     FFT dimensions: (  36,  36,  36)

     Estimated max dynamical RAM per process >       2.01 MB

     Estimated total dynamical RAM >     236.13 MB

     Initial potential from superposition of free atoms

     starting charge      27.9964, renormalised to      28.0000
     Starting wfcs are   18 randomized atomic wfcs

     total cpu time spent up to now is        0.6 secs

     per-process dynamical memory:     9.6 Mb

     Self-consistent Calculation

     iteration #  1     ecut=    40.00 Ry     beta= 0.70
     Davidson diagonalization with overlap
     ethr =  1.00E-02,  avg # of iterations =  1.8

     Threshold (ethr) on eigenvalues was too large:
     Diagonalizing with lowered threshold

     Davidson diagonalization with overlap
     ethr =  2.46E-05,  avg # of iterations =  3.9

     total cpu time spent up to now is        0.7 secs

     total energy              =    -325.55748516 Ry
     estimated scf accuracy    <       0.00703201 Ry

     iteration #  2     ecut=    40.00 Ry     beta= 0.70
     Davidson diagonalization with overlap
     ethr =  2.51E-05,  avg # of iterations =  2.0

     total cpu time spent up to now is        0.8 secs

     total energy              =    -325.55848034 Ry
     estimated scf accuracy    <       0.00056661 Ry

     iteration #  3     ecut=    40.00 Ry     beta= 0.70
     Davidson diagonalization with overlap
     ethr =  2.02E-06,  avg # of iterations =  2.0

     total cpu time spent up to now is        0.8 secs

     total energy              =    -325.55854232 Ry
     estimated scf accuracy    <       0.00004224 Ry

     iteration #  4     ecut=    40.00 Ry     beta= 0.70
     Davidson diagonalization with overlap
     ethr =  1.51E-07,  avg # of iterations =  2.8

     total cpu time spent up to now is        0.8 secs

     total energy              =    -325.55854829 Ry
     estimated scf accuracy    <       0.00000069 Ry

     iteration #  5     ecut=    40.00 Ry     beta= 0.70
     Davidson diagonalization with overlap
     ethr =  2.46E-09,  avg # of iterations =  4.2

     total cpu time spent up to now is        0.8 secs

     End of self-consistent calculation

          k = 0.0000 0.0000 0.0000 (  1567 PWs)   bands (ev):

   -10.7982 -10.7152 -10.6726 -10.6591 -10.5101 -10.5101 -10.4988 -10.4988
   -10.4080 -10.2936  -0.3477   7.1596   8.8397   8.8397

          k =-0.2500 0.0000 0.4582 (  1572 PWs)   bands (ev):

   -10.7622 -10.6351 -10.6297 -10.5883 -10.5658 -10.5248 -10.5160 -10.4929
   -10.4288 -10.3283   0.8905   6.5825   9.0441  11.2830

          k = 0.5000 0.0000-0.9164 (  1570 PWs)   bands (ev):

   -10.7229 -10.6523 -10.6356 -10.5963 -10.5625 -10.5591 -10.4612 -10.4130
   -10.4091 -10.3618   3.8522   5.3952   8.4867   9.1146

          k =-0.2500 0.2500 0.9164 (  1559 PWs)   bands (ev):

   -10.7366 -10.6490 -10.6056 -10.5893 -10.5868 -10.5360 -10.4772 -10.4584
   -10.3812 -10.3528   3.7377   6.0498   7.1237   9.1087

          k = 0.5000 0.2500-0.4582 (  1559 PWs)   bands (ev):

   -10.7054 -10.6460 -10.6423 -10.5884 -10.5717 -10.5136 -10.4806 -10.4724
   -10.4549 -10.3904   2.0028   4.1402   9.3954  10.6285

          k = 0.2500 0.2500 0.0000 (  1552 PWs)   bands (ev):

   -10.7482 -10.7213 -10.6859 -10.6308 -10.5367 -10.4891 -10.4872 -10.4796
   -10.4369 -10.3423   0.2169   4.5869   9.5064  10.5375

          k = 0.5000-0.5000-1.8328 (  1544 PWs)   bands (ev):

   -10.7177 -10.7177 -10.6307 -10.6307 -10.5373 -10.5373 -10.4649 -10.4649
   -10.4255 -10.4255   1.9000   1.9000  11.4186  11.4186

          k = 0.0000 0.0000 0.9164 (  1566 PWs)   bands (ev):

   -10.7284 -10.6204 -10.6204 -10.6017 -10.5563 -10.5563 -10.5319 -10.4394
   -10.3837 -10.3369   3.2945   7.1418   7.9733   9.4591

          k = 0.7500 0.0000-0.4582 (  1548 PWs)   bands (ev):

   -10.6926 -10.6502 -10.5875 -10.5783 -10.5439 -10.5271 -10.5159 -10.4802
   -10.4727 -10.4160   3.0218   4.3587   7.2622   8.4575

          k = 0.5000 0.0000 0.0000 (  1549 PWs)   bands (ev):

   -10.7335 -10.7038 -10.6921 -10.5991 -10.5135 -10.5062 -10.5026 -10.4593
   -10.4578 -10.3873   0.7794   4.3533   7.0803  10.7928

          k = 0.7500-0.7500-1.8328 (  1548 PWs)   bands (ev):

   -10.7247 -10.7247 -10.5928 -10.5928 -10.5293 -10.5293 -10.4795 -10.4795
   -10.4501 -10.4501   2.4042   2.4042   7.9919   7.9919

          k = 0.5000-0.5000-0.9164 (  1564 PWs)   bands (ev):

   -10.7008 -10.7008 -10.6306 -10.6306 -10.5236 -10.5236 -10.4289 -10.4289
   -10.4018 -10.4018   4.8045   4.8045   7.2818   7.2818

          k = 0.0000 0.0000-1.8328 (  1550 PWs)   bands (ev):

   -10.7274 -10.7274 -10.5284 -10.5284 -10.5192 -10.5192 -10.5070 -10.5070
   -10.4945 -10.4945   3.2418   3.2418   6.0124   6.0124

     highest occupied level (ev):    11.4186

!    total energy              =    -325.55854860 Ry
     estimated scf accuracy    <       0.00000010 Ry

     The total energy is the sum of the following terms:
     one-electron contribution =    -107.29071294 Ry
     hartree contribution      =      74.46849931 Ry
     xc contribution           =     -95.22103176 Ry
     ewald contribution        =    -197.51530321 Ry

     convergence has been achieved in   5 iterations

     Writing all to output data dir ./beta-sn-scf/betatin.save/ :
     XML data file, charge density, pseudopotentials, collected wavefunctions

     init_run     :      0.33s CPU      0.37s WALL (       1 calls)
     electrons    :      0.16s CPU      0.21s WALL (       1 calls)

     Called by init_run:
     wfcinit      :      0.02s CPU      0.03s WALL (       1 calls)
     potinit      :      0.01s CPU      0.02s WALL (       1 calls)
     hinit0       :      0.29s CPU      0.30s WALL (       1 calls)

     Called by electrons:
     c_bands      :      0.10s CPU      0.12s WALL (       6 calls)
     sum_band     :      0.03s CPU      0.04s WALL (       6 calls)
     v_of_rho     :      0.03s CPU      0.03s WALL (       6 calls)
     newd         :      0.01s CPU      0.01s WALL (       6 calls)
     mix_rho      :      0.00s CPU      0.00s WALL (       6 calls)

     Called by c_bands:
     init_us_2    :      0.00s CPU      0.00s WALL (      26 calls)
     cegterg      :      0.09s CPU      0.10s WALL (      12 calls)

     Called by *egterg:
     cdiaghg      :      0.02s CPU      0.02s WALL (      52 calls)
     h_psi        :      0.07s CPU      0.09s WALL (      56 calls)
     s_psi        :      0.00s CPU      0.00s WALL (      56 calls)
     g_psi        :      0.00s CPU      0.00s WALL (      42 calls)

     Called by h_psi:
     h_psi:calbec :      0.00s CPU      0.01s WALL (      56 calls)
     vloc_psi     :      0.07s CPU      0.08s WALL (      56 calls)
     add_vuspsi   :      0.00s CPU      0.00s WALL (      56 calls)

     General routines
     calbec       :      0.00s CPU      0.01s WALL (      68 calls)
     fft          :      0.27s CPU      0.27s WALL (      67 calls)
     ffts         :      0.00s CPU      0.00s WALL (       6 calls)
     fftw         :      0.07s CPU      0.09s WALL (    1094 calls)

     Parallel routines

     PWSCF        :      0.70s CPU      0.96s WALL


   This run was terminated on:  15:48:40   5Feb2026            

=------------------------------------------------------------------------------=
   JOB DONE.
=------------------------------------------------------------------------------=
