
     Program PWSCF v.7.3.1 starts on  4Feb2026 at 12: 5:58 

     This program is part of the open-source Quantum ESPRESSO suite
     for quantum simulation of materials; please cite
         "P. Giannozzi et al., J. Phys.:Condens. Matter 21 395502 (2009);
         "P. Giannozzi et al., J. Phys.:Condens. Matter 29 465901 (2017);
         "P. Giannozzi et al., J. Chem. Phys. 152 154105 (2020);
          URL http://www.quantum-espresso.org", 
     in publications or presentations arising from this work. More details at
     http://www.quantum-espresso.org/quote

     Parallel version (MPI), running on   128 processors

     MPI processes distributed on     1 nodes
     240557 MiB available memory on the printing compute node when the environment starts

     Waiting for input...
     Reading input from standard input

     Current dimensions of program PWSCF are:
     Max number of different atomic species (ntypx) = 10
     Max number of k-points (npk) =  40000
     Max angular momentum in pseudopotentials (lmaxx) =  4

     K-points division:     npool     =       4
     R & G space division:  proc/nbgrp/npool/nimage =      32
     Subspace diagonalization in iterative solution of the eigenvalue problem:
     a serial algorithm will be used


     Parallelization info
     --------------------
     sticks:   dense  smooth     PW     G-vecs:    dense   smooth      PW
     Min         275     275     77                12328    12328    1838
     Max         276     276     78                12330    12330    1841
     Sum        8809    8809   2483               394503   394503   58869

     Using Slab Decomposition



     bravais-lattice index     =            7
     lattice parameter (alat)  =      11.0200  a.u.
     unit-cell volume          =     365.0809 (a.u.)^3
     number of atoms/cell      =            2
     number of atomic types    =            1
     number of electrons       =        28.00
     number of Kohn-Sham states=           14
     kinetic-energy cutoff     =     400.0000  Ry
     charge density cutoff     =    1600.0000  Ry
     scf convergence threshold =      1.0E-07
     mixing beta               =       0.7000
     number of iterations used =            8  plain     mixing
     Exchange-correlation=  SLA  PW   GGX  GGC
                           (   1   4   2   2   0   0   0)

     celldm(1)=  11.020000  celldm(2)=   0.000000  celldm(3)=   0.545600
     celldm(4)=   0.000000  celldm(5)=   0.000000  celldm(6)=   0.000000

     crystal axes: (cart. coord. in units of alat)
               a(1) = (   0.500000  -0.500000   0.272800 )  
               a(2) = (   0.500000   0.500000   0.272800 )  
               a(3) = (  -0.500000  -0.500000   0.272800 )  

     reciprocal axes: (cart. coord. in units 2 pi/alat)
               b(1) = (  1.000000 -1.000000  0.000000 )  
               b(2) = (  0.000000  1.000000  1.832845 )  
               b(3) = ( -1.000000  0.000000  1.832845 )  


     PseudoPot. # 1 for Sn read from file:
     ./Sn.pw91-n-van.UPF
     MD5 check sum: a38d2a872edd1a4efd76c0a1a38f7031
     Pseudo is Ultrasoft + core correction, Zval = 14.0
     Generated by new atomic code, or converted to UPF format
     Using radial grid of  891 points,  6 beta functions with: 
                l(1) =   0
                l(2) =   0
                l(3) =   1
                l(4) =   1
                l(5) =   2
                l(6) =   2
     Q(r) pseudized with  8 coefficients,  rinner =    1.100   1.100   1.100
                                                       1.100   1.100

     atomic species   valence    mass     pseudopotential
     Sn               14.00   118.70000     Sn( 1.00)

     16 Sym. Ops., with inversion, found (12 have fractional translation)



   Cartesian axes

     site n.     atom                  positions (alat units)
         1        Sn     tau(   1) = (   0.0000000  -0.2500000   0.0682000  )
         2        Sn     tau(   2) = (   0.0000000   0.2500000  -0.0682000  )

     number of k points=    13
                       cart. coord. in units 2pi/alat
        k(    1) = (   0.0000000   0.0000000   0.0000000), wk =   0.0312500
        k(    2) = (  -0.2500000   0.0000000   0.4582111), wk =   0.2500000
        k(    3) = (   0.5000000   0.0000000  -0.9164223), wk =   0.1250000
        k(    4) = (  -0.2500000   0.2500000   0.9164223), wk =   0.2500000
        k(    5) = (   0.5000000   0.2500000  -0.4582111), wk =   0.5000000
        k(    6) = (   0.2500000   0.2500000   0.0000000), wk =   0.1250000
        k(    7) = (   0.5000000  -0.5000000  -1.8328446), wk =   0.0625000
        k(    8) = (   0.0000000   0.0000000   0.9164223), wk =   0.0625000
        k(    9) = (   0.7500000   0.0000000  -0.4582111), wk =   0.2500000
        k(   10) = (   0.5000000   0.0000000   0.0000000), wk =   0.1250000
        k(   11) = (   0.7500000  -0.7500000  -1.8328446), wk =   0.1250000
        k(   12) = (   0.5000000  -0.5000000  -0.9164223), wk =   0.0625000
        k(   13) = (   0.0000000   0.0000000  -1.8328446), wk =   0.0312500

     Dense  grid:   394503 G-vectors     FFT dimensions: ( 108, 108, 108)

     Estimated max dynamical RAM per process >      23.01 MB

     Estimated total dynamical RAM >       2.59 GB

     Initial potential from superposition of free atoms

     starting charge      27.9964, renormalised to      28.0000
     Starting wfcs are   18 randomized atomic wfcs

     total cpu time spent up to now is        1.5 secs

     per-process dynamical memory:    25.7 Mb

     Self-consistent Calculation

     iteration #  1     ecut=   400.00 Ry     beta= 0.70
     Davidson diagonalization with overlap
     ethr =  1.00E-02,  avg # of iterations =  3.1

     Threshold (ethr) on eigenvalues was too large:
     Diagonalizing with lowered threshold

     Davidson diagonalization with overlap
     ethr =  1.20E-04,  avg # of iterations =  3.4

     total cpu time spent up to now is        2.4 secs

     total energy              =    -325.38999890 Ry
     estimated scf accuracy    <       0.03807169 Ry

     iteration #  2     ecut=   400.00 Ry     beta= 0.70
     Davidson diagonalization with overlap
     ethr =  1.36E-04,  avg # of iterations =  4.6

     total cpu time spent up to now is        3.0 secs

     total energy              =    -325.54154032 Ry
     estimated scf accuracy    <       0.03409058 Ry

     iteration #  3     ecut=   400.00 Ry     beta= 0.70
     Davidson diagonalization with overlap
     ethr =  1.22E-04,  avg # of iterations =  2.0

     total cpu time spent up to now is        3.4 secs

     total energy              =    -325.56711828 Ry
     estimated scf accuracy    <       0.00794723 Ry

     iteration #  4     ecut=   400.00 Ry     beta= 0.70
     Davidson diagonalization with overlap
     ethr =  2.84E-05,  avg # of iterations =  2.4

     total cpu time spent up to now is        3.9 secs

     total energy              =    -325.58847083 Ry
     estimated scf accuracy    <       0.00253633 Ry

     iteration #  5     ecut=   400.00 Ry     beta= 0.70
     Davidson diagonalization with overlap
     ethr =  9.06E-06,  avg # of iterations =  3.0

     total cpu time spent up to now is        4.4 secs

     total energy              =    -325.59350764 Ry
     estimated scf accuracy    <       0.00002681 Ry

     iteration #  6     ecut=   400.00 Ry     beta= 0.70
     Davidson diagonalization with overlap
     ethr =  9.58E-08,  avg # of iterations =  3.8

     total cpu time spent up to now is        4.9 secs

     total energy              =    -325.59357350 Ry
     estimated scf accuracy    <       0.00001657 Ry

     iteration #  7     ecut=   400.00 Ry     beta= 0.70
     Davidson diagonalization with overlap
     ethr =  5.92E-08,  avg # of iterations =  2.0

     total cpu time spent up to now is        5.3 secs

     total energy              =    -325.59358113 Ry
     estimated scf accuracy    <       0.00000030 Ry

     iteration #  8     ecut=   400.00 Ry     beta= 0.70
     Davidson diagonalization with overlap
     ethr =  1.07E-09,  avg # of iterations =  2.6

     total cpu time spent up to now is        5.7 secs

     End of self-consistent calculation

          k = 0.0000 0.0000 0.0000 ( 49295 PWs)   bands (ev):

   -10.8118 -10.7294 -10.6853 -10.6742 -10.5242 -10.5242 -10.5131 -10.5131
   -10.4209 -10.3088  -0.3466   7.1625   8.8402   8.8402

          k =-0.2500 0.0000 0.4582 ( 49346 PWs)   bands (ev):

   -10.7759 -10.6481 -10.6437 -10.6025 -10.5800 -10.5387 -10.5303 -10.5074
   -10.4419 -10.3433   0.8917   6.5851   9.0444  11.2837

          k = 0.5000 0.0000-0.9164 ( 49314 PWs)   bands (ev):

   -10.7366 -10.6663 -10.6496 -10.6102 -10.5760 -10.5731 -10.4743 -10.4273
   -10.4236 -10.3770   3.8543   5.3963   8.4881   9.1146

          k =-0.2500 0.2500 0.9164 ( 49344 PWs)   bands (ev):

   -10.7505 -10.6630 -10.6197 -10.6025 -10.6008 -10.5502 -10.4915 -10.4720
   -10.3959 -10.3679   3.7396   6.0520   7.1235   9.1086

          k = 0.5000 0.2500-0.4582 ( 49335 PWs)   bands (ev):

   -10.7192 -10.6600 -10.6564 -10.6023 -10.5851 -10.5281 -10.4943 -10.4868
   -10.4696 -10.4051   2.0042   4.1419   9.3960  10.6283

          k = 0.2500 0.2500 0.0000 ( 49296 PWs)   bands (ev):

   -10.7618 -10.7362 -10.7010 -10.6436 -10.5508 -10.5034 -10.5018 -10.4937
   -10.4503 -10.3574   0.2181   4.5886   9.5068  10.5384

          k = 0.5000-0.5000-1.8328 ( 49342 PWs)   bands (ev):

   -10.7326 -10.7326 -10.6445 -10.6445 -10.5506 -10.5506 -10.4795 -10.4795
   -10.4403 -10.4403   1.9013   1.9013  11.4187  11.4187

          k = 0.0000 0.0000 0.9164 ( 49347 PWs)   bands (ev):

   -10.7420 -10.6347 -10.6347 -10.6149 -10.5702 -10.5702 -10.5463 -10.4526
   -10.3983 -10.3523   3.2963   7.1442   7.9734   9.4594

          k = 0.7500 0.0000-0.4582 ( 49273 PWs)   bands (ev):

   -10.7064 -10.6643 -10.6017 -10.5923 -10.5578 -10.5412 -10.5304 -10.4935
   -10.4875 -10.4312   3.0234   4.3607   7.2621   8.4578

          k = 0.5000 0.0000 0.0000 ( 49319 PWs)   bands (ev):

   -10.7480 -10.7185 -10.7063 -10.6121 -10.5282 -10.5204 -10.5165 -10.4737
   -10.4713 -10.4023   0.7807   4.3552   7.0802  10.7930

          k = 0.7500-0.7500-1.8328 ( 49308 PWs)   bands (ev):

   -10.7391 -10.7391 -10.6068 -10.6068 -10.5428 -10.5428 -10.4937 -10.4937
   -10.4649 -10.4649   2.4056   2.4056   7.9921   7.9921

          k = 0.5000-0.5000-0.9164 ( 49356 PWs)   bands (ev):

   -10.7148 -10.7148 -10.6445 -10.6445 -10.5368 -10.5368 -10.4433 -10.4433
   -10.4165 -10.4165   4.8069   4.8069   7.2813   7.2813

          k = 0.0000 0.0000-1.8328 ( 49268 PWs)   bands (ev):

   -10.7418 -10.7418 -10.5430 -10.5430 -10.5325 -10.5325 -10.5212 -10.5212
   -10.5085 -10.5085   3.2435   3.2435   6.0124   6.0124

     highest occupied level (ev):    11.4187

!    total energy              =    -325.59358171 Ry
     estimated scf accuracy    <       0.00000009 Ry

     The total energy is the sum of the following terms:
     one-electron contribution =    -107.33447077 Ry
     hartree contribution      =      74.47923009 Ry
     xc contribution           =     -95.22303784 Ry
     ewald contribution        =    -197.51530320 Ry

     convergence has been achieved in   8 iterations

     Writing all to output data dir ./beta-sn-scf/betatin.save/ :
     XML data file, charge density, pseudopotentials, collected wavefunctions

     init_run     :      1.13s CPU      1.23s WALL (       1 calls)
     electrons    :      4.06s CPU      4.36s WALL (       1 calls)

     Called by init_run:
     wfcinit      :      0.15s CPU      0.16s WALL (       1 calls)
     potinit      :      0.07s CPU      0.08s WALL (       1 calls)
     hinit0       :      0.50s CPU      0.52s WALL (       1 calls)

     Called by electrons:
     c_bands      :      2.69s CPU      2.75s WALL (       9 calls)
     sum_band     :      0.75s CPU      0.78s WALL (       9 calls)
     v_of_rho     :      0.42s CPU      0.48s WALL (       9 calls)
     newd         :      0.17s CPU      0.20s WALL (       9 calls)
     mix_rho      :      0.05s CPU      0.06s WALL (       9 calls)

     Called by c_bands:
     init_us_2    :      0.06s CPU      0.06s WALL (      76 calls)
     cegterg      :      2.46s CPU      2.49s WALL (      36 calls)

     Called by *egterg:
     cdiaghg      :      0.05s CPU      0.05s WALL (     147 calls)
     h_psi        :      2.30s CPU      2.32s WALL (     155 calls)
     s_psi        :      0.04s CPU      0.04s WALL (     155 calls)
     g_psi        :      0.00s CPU      0.00s WALL (     115 calls)

     Called by h_psi:
     h_psi:calbec :      0.09s CPU      0.09s WALL (     155 calls)
     vloc_psi     :      2.15s CPU      2.18s WALL (     155 calls)
     add_vuspsi   :      0.04s CPU      0.04s WALL (     155 calls)

     General routines
     calbec       :      0.10s CPU      0.10s WALL (     191 calls)
     fft          :      0.68s CPU      0.74s WALL (     100 calls)
     ffts         :      0.02s CPU      0.02s WALL (       9 calls)
     fftw         :      2.28s CPU      2.31s WALL (    3130 calls)

     Parallel routines

     PWSCF        :      5.46s CPU      6.91s WALL


   This run was terminated on:  12: 6: 5   4Feb2026            

=------------------------------------------------------------------------------=
   JOB DONE.
=------------------------------------------------------------------------------=
