
     Program PWSCF v.7.3.1 starts on  5Feb2026 at 15:48:47 

     This program is part of the open-source Quantum ESPRESSO suite
     for quantum simulation of materials; please cite
         "P. Giannozzi et al., J. Phys.:Condens. Matter 21 395502 (2009);
         "P. Giannozzi et al., J. Phys.:Condens. Matter 29 465901 (2017);
         "P. Giannozzi et al., J. Chem. Phys. 152 154105 (2020);
          URL http://www.quantum-espresso.org", 
     in publications or presentations arising from this work. More details at
     http://www.quantum-espresso.org/quote

     Parallel version (MPI), running on   128 processors

     MPI processes distributed on     1 nodes
     242347 MiB available memory on the printing compute node when the environment starts

     Waiting for input...
     Reading input from standard input

     Current dimensions of program PWSCF are:
     Max number of different atomic species (ntypx) = 10
     Max number of k-points (npk) =  40000
     Max angular momentum in pseudopotentials (lmaxx) =  4

     K-points division:     npool     =       8
     R & G space division:  proc/nbgrp/npool/nimage =      16
     Subspace diagonalization in iterative solution of the eigenvalue problem:
     a serial algorithm will be used


     Parallelization info
     --------------------
     sticks:   dense  smooth     PW     G-vecs:    dense   smooth      PW
     Min          57      57     20                  840      840     175
     Max          58      58     21                  842      842     177
     Sum         927     927    327                13465    13465    2811

     Using Slab Decomposition



     bravais-lattice index     =            7
     lattice parameter (alat)  =      11.0200  a.u.
     unit-cell volume          =     365.0809 (a.u.)^3
     number of atoms/cell      =            2
     number of atomic types    =            1
     number of electrons       =        28.00
     number of Kohn-Sham states=           14
     kinetic-energy cutoff     =      42.0000  Ry
     charge density cutoff     =     168.0000  Ry
     scf convergence threshold =      1.0E-07
     mixing beta               =       0.7000
     number of iterations used =            8  plain     mixing
     Exchange-correlation=  SLA  PW   GGX  GGC
                           (   1   4   2   2   0   0   0)

     celldm(1)=  11.020000  celldm(2)=   0.000000  celldm(3)=   0.545600
     celldm(4)=   0.000000  celldm(5)=   0.000000  celldm(6)=   0.000000

     crystal axes: (cart. coord. in units of alat)
               a(1) = (   0.500000  -0.500000   0.272800 )  
               a(2) = (   0.500000   0.500000   0.272800 )  
               a(3) = (  -0.500000  -0.500000   0.272800 )  

     reciprocal axes: (cart. coord. in units 2 pi/alat)
               b(1) = (  1.000000 -1.000000  0.000000 )  
               b(2) = (  0.000000  1.000000  1.832845 )  
               b(3) = ( -1.000000  0.000000  1.832845 )  


     PseudoPot. # 1 for Sn read from file:
     ./Sn.pw91-n-van.UPF
     MD5 check sum: a38d2a872edd1a4efd76c0a1a38f7031
     Pseudo is Ultrasoft + core correction, Zval = 14.0
     Generated by new atomic code, or converted to UPF format
     Using radial grid of  891 points,  6 beta functions with: 
                l(1) =   0
                l(2) =   0
                l(3) =   1
                l(4) =   1
                l(5) =   2
                l(6) =   2
     Q(r) pseudized with  8 coefficients,  rinner =    1.100   1.100   1.100
                                                       1.100   1.100

     atomic species   valence    mass     pseudopotential
     Sn               14.00   118.70000     Sn( 1.00)

     16 Sym. Ops., with inversion, found (12 have fractional translation)



   Cartesian axes

     site n.     atom                  positions (alat units)
         1        Sn     tau(   1) = (   0.0000000  -0.2500000   0.0682000  )
         2        Sn     tau(   2) = (   0.0000000   0.2500000  -0.0682000  )

     number of k points=    13
                       cart. coord. in units 2pi/alat
        k(    1) = (   0.0000000   0.0000000   0.0000000), wk =   0.0312500
        k(    2) = (  -0.2500000   0.0000000   0.4582111), wk =   0.2500000
        k(    3) = (   0.5000000   0.0000000  -0.9164223), wk =   0.1250000
        k(    4) = (  -0.2500000   0.2500000   0.9164223), wk =   0.2500000
        k(    5) = (   0.5000000   0.2500000  -0.4582111), wk =   0.5000000
        k(    6) = (   0.2500000   0.2500000   0.0000000), wk =   0.1250000
        k(    7) = (   0.5000000  -0.5000000  -1.8328446), wk =   0.0625000
        k(    8) = (   0.0000000   0.0000000   0.9164223), wk =   0.0625000
        k(    9) = (   0.7500000   0.0000000  -0.4582111), wk =   0.2500000
        k(   10) = (   0.5000000   0.0000000   0.0000000), wk =   0.1250000
        k(   11) = (   0.7500000  -0.7500000  -1.8328446), wk =   0.1250000
        k(   12) = (   0.5000000  -0.5000000  -0.9164223), wk =   0.0625000
        k(   13) = (   0.0000000   0.0000000  -1.8328446), wk =   0.0312500

     Dense  grid:    13465 G-vectors     FFT dimensions: (  36,  36,  36)

     Estimated max dynamical RAM per process >       2.09 MB

     Estimated total dynamical RAM >     245.10 MB

     Initial potential from superposition of free atoms

     starting charge      27.9964, renormalised to      28.0000
     Starting wfcs are   18 randomized atomic wfcs

     total cpu time spent up to now is        0.6 secs

     per-process dynamical memory:     9.6 Mb

     Self-consistent Calculation

     iteration #  1     ecut=    42.00 Ry     beta= 0.70
     Davidson diagonalization with overlap
     ethr =  1.00E-02,  avg # of iterations =  1.8

     Threshold (ethr) on eigenvalues was too large:
     Diagonalizing with lowered threshold

     Davidson diagonalization with overlap
     ethr =  2.48E-05,  avg # of iterations =  3.8

     total cpu time spent up to now is        0.7 secs

     total energy              =    -325.55886020 Ry
     estimated scf accuracy    <       0.00701344 Ry

     iteration #  2     ecut=    42.00 Ry     beta= 0.70
     Davidson diagonalization with overlap
     ethr =  2.50E-05,  avg # of iterations =  2.0

     total cpu time spent up to now is        0.8 secs

     total energy              =    -325.55987837 Ry
     estimated scf accuracy    <       0.00056834 Ry

     iteration #  3     ecut=    42.00 Ry     beta= 0.70
     Davidson diagonalization with overlap
     ethr =  2.03E-06,  avg # of iterations =  2.2

     total cpu time spent up to now is        0.8 secs

     total energy              =    -325.55994921 Ry
     estimated scf accuracy    <       0.00004429 Ry

     iteration #  4     ecut=    42.00 Ry     beta= 0.70
     Davidson diagonalization with overlap
     ethr =  1.58E-07,  avg # of iterations =  3.1

     total cpu time spent up to now is        0.8 secs

     total energy              =    -325.55995539 Ry
     estimated scf accuracy    <       0.00000032 Ry

     iteration #  5     ecut=    42.00 Ry     beta= 0.70
     Davidson diagonalization with overlap
     ethr =  1.13E-09,  avg # of iterations =  3.9

     total cpu time spent up to now is        0.8 secs

     End of self-consistent calculation

          k = 0.0000 0.0000 0.0000 (  1699 PWs)   bands (ev):

   -10.7981 -10.7155 -10.6724 -10.6603 -10.5104 -10.5104 -10.4993 -10.4993
   -10.4079 -10.2936  -0.3475   7.1597   8.8398   8.8398

          k =-0.2500 0.0000 0.4582 (  1681 PWs)   bands (ev):

   -10.7621 -10.6352 -10.6299 -10.5886 -10.5661 -10.5250 -10.5163 -10.4933
   -10.4287 -10.3285   0.8907   6.5827   9.0443  11.2830

          k = 0.5000 0.0000-0.9164 (  1684 PWs)   bands (ev):

   -10.7228 -10.6526 -10.6362 -10.5964 -10.5627 -10.5594 -10.4611 -10.4130
   -10.4095 -10.3625   3.8525   5.3953   8.4868   9.1144

          k =-0.2500 0.2500 0.9164 (  1686 PWs)   bands (ev):

   -10.7368 -10.6494 -10.6059 -10.5892 -10.5872 -10.5364 -10.4777 -10.4586
   -10.3816 -10.3532   3.7379   6.0501   7.1236   9.1085

          k = 0.5000 0.2500-0.4582 (  1678 PWs)   bands (ev):

   -10.7054 -10.6462 -10.6427 -10.5886 -10.5718 -10.5142 -10.4808 -10.4729
   -10.4554 -10.3906   2.0030   4.1404   9.3956  10.6284

          k = 0.2500 0.2500 0.0000 (  1684 PWs)   bands (ev):

   -10.7479 -10.7223 -10.6871 -10.6307 -10.5370 -10.4896 -10.4879 -10.4797
   -10.4371 -10.3425   0.2171   4.5870   9.5066  10.5376

          k = 0.5000-0.5000-1.8328 (  1688 PWs)   bands (ev):

   -10.7188 -10.7188 -10.6307 -10.6307 -10.5374 -10.5374 -10.4656 -10.4656
   -10.4260 -10.4260   1.9001   1.9001  11.4188  11.4188

          k = 0.0000 0.0000 0.9164 (  1682 PWs)   bands (ev):

   -10.7281 -10.6210 -10.6210 -10.6017 -10.5564 -10.5564 -10.5324 -10.4395
   -10.3840 -10.3374   3.2948   7.1420   7.9731   9.4593

          k = 0.7500 0.0000-0.4582 (  1670 PWs)   bands (ev):

   -10.6925 -10.6505 -10.5878 -10.5788 -10.5442 -10.5275 -10.5163 -10.4802
   -10.4732 -10.4165   3.0220   4.3589   7.2624   8.4577

          k = 0.5000 0.0000 0.0000 (  1669 PWs)   bands (ev):

   -10.7340 -10.7046 -10.6923 -10.5991 -10.5142 -10.5064 -10.5027 -10.4596
   -10.4579 -10.3876   0.7796   4.3534   7.0805  10.7930

          k = 0.7500-0.7500-1.8328 (  1666 PWs)   bands (ev):

   -10.7252 -10.7252 -10.5927 -10.5927 -10.5295 -10.5295 -10.4797 -10.4797
   -10.4506 -10.4506   2.4044   2.4044   7.9921   7.9921

          k = 0.5000-0.5000-0.9164 (  1664 PWs)   bands (ev):

   -10.7011 -10.7011 -10.6309 -10.6309 -10.5235 -10.5235 -10.4289 -10.4289
   -10.4023 -10.4023   4.8049   4.8049   7.2816   7.2816

          k = 0.0000 0.0000-1.8328 (  1654 PWs)   bands (ev):

   -10.7279 -10.7279 -10.5286 -10.5286 -10.5191 -10.5191 -10.5072 -10.5072
   -10.4945 -10.4945   3.2419   3.2419   6.0127   6.0127

     highest occupied level (ev):    11.4188

!    total energy              =    -325.55995564 Ry
     estimated scf accuracy    <          5.7E-09 Ry

     The total energy is the sum of the following terms:
     one-electron contribution =    -107.29245435 Ry
     hartree contribution      =      74.46854081 Ry
     xc contribution           =     -95.22073889 Ry
     ewald contribution        =    -197.51530321 Ry

     convergence has been achieved in   5 iterations

     Writing all to output data dir ./beta-sn-scf/betatin.save/ :
     XML data file, charge density, pseudopotentials, collected wavefunctions

     init_run     :      0.32s CPU      0.37s WALL (       1 calls)
     electrons    :      0.16s CPU      0.21s WALL (       1 calls)

     Called by init_run:
     wfcinit      :      0.02s CPU      0.02s WALL (       1 calls)
     potinit      :      0.01s CPU      0.01s WALL (       1 calls)
     hinit0       :      0.28s CPU      0.30s WALL (       1 calls)

     Called by electrons:
     c_bands      :      0.10s CPU      0.12s WALL (       6 calls)
     sum_band     :      0.03s CPU      0.04s WALL (       6 calls)
     v_of_rho     :      0.02s CPU      0.02s WALL (       6 calls)
     newd         :      0.01s CPU      0.01s WALL (       6 calls)
     mix_rho      :      0.00s CPU      0.00s WALL (       6 calls)

     Called by c_bands:
     init_us_2    :      0.00s CPU      0.00s WALL (      26 calls)
     cegterg      :      0.09s CPU      0.10s WALL (      12 calls)

     Called by *egterg:
     cdiaghg      :      0.02s CPU      0.02s WALL (      50 calls)
     h_psi        :      0.08s CPU      0.09s WALL (      54 calls)
     s_psi        :      0.00s CPU      0.00s WALL (      54 calls)
     g_psi        :      0.00s CPU      0.00s WALL (      40 calls)

     Called by h_psi:
     h_psi:calbec :      0.01s CPU      0.01s WALL (      54 calls)
     vloc_psi     :      0.07s CPU      0.08s WALL (      54 calls)
     add_vuspsi   :      0.00s CPU      0.00s WALL (      54 calls)

     General routines
     calbec       :      0.01s CPU      0.01s WALL (      66 calls)
     fft          :      0.26s CPU      0.27s WALL (      67 calls)
     ffts         :      0.00s CPU      0.00s WALL (       6 calls)
     fftw         :      0.07s CPU      0.09s WALL (    1104 calls)

     Parallel routines

     PWSCF        :      0.70s CPU      2.02s WALL


   This run was terminated on:  15:48:49   5Feb2026            

=------------------------------------------------------------------------------=
   JOB DONE.
=------------------------------------------------------------------------------=
