
     Program PWSCF v.7.3.1 starts on  5Feb2026 at 15:48:56 

     This program is part of the open-source Quantum ESPRESSO suite
     for quantum simulation of materials; please cite
         "P. Giannozzi et al., J. Phys.:Condens. Matter 21 395502 (2009);
         "P. Giannozzi et al., J. Phys.:Condens. Matter 29 465901 (2017);
         "P. Giannozzi et al., J. Chem. Phys. 152 154105 (2020);
          URL http://www.quantum-espresso.org", 
     in publications or presentations arising from this work. More details at
     http://www.quantum-espresso.org/quote

     Parallel version (MPI), running on   128 processors

     MPI processes distributed on     1 nodes
     242319 MiB available memory on the printing compute node when the environment starts

     Waiting for input...
     Reading input from standard input

     Current dimensions of program PWSCF are:
     Max number of different atomic species (ntypx) = 10
     Max number of k-points (npk) =  40000
     Max angular momentum in pseudopotentials (lmaxx) =  4

     K-points division:     npool     =       8
     R & G space division:  proc/nbgrp/npool/nimage =      16
     Subspace diagonalization in iterative solution of the eigenvalue problem:
     a serial algorithm will be used


     Parallelization info
     --------------------
     sticks:   dense  smooth     PW     G-vecs:    dense   smooth      PW
     Min          60      60     21                  900      900     187
     Max          61      61     22                  902      902     188
     Sum         973     973    343                14425    14425    2995

     Using Slab Decomposition



     bravais-lattice index     =            7
     lattice parameter (alat)  =      11.0200  a.u.
     unit-cell volume          =     365.0809 (a.u.)^3
     number of atoms/cell      =            2
     number of atomic types    =            1
     number of electrons       =        28.00
     number of Kohn-Sham states=           14
     kinetic-energy cutoff     =      44.0000  Ry
     charge density cutoff     =     176.0000  Ry
     scf convergence threshold =      1.0E-07
     mixing beta               =       0.7000
     number of iterations used =            8  plain     mixing
     Exchange-correlation=  SLA  PW   GGX  GGC
                           (   1   4   2   2   0   0   0)

     celldm(1)=  11.020000  celldm(2)=   0.000000  celldm(3)=   0.545600
     celldm(4)=   0.000000  celldm(5)=   0.000000  celldm(6)=   0.000000

     crystal axes: (cart. coord. in units of alat)
               a(1) = (   0.500000  -0.500000   0.272800 )  
               a(2) = (   0.500000   0.500000   0.272800 )  
               a(3) = (  -0.500000  -0.500000   0.272800 )  

     reciprocal axes: (cart. coord. in units 2 pi/alat)
               b(1) = (  1.000000 -1.000000  0.000000 )  
               b(2) = (  0.000000  1.000000  1.832845 )  
               b(3) = ( -1.000000  0.000000  1.832845 )  


     PseudoPot. # 1 for Sn read from file:
     ./Sn.pw91-n-van.UPF
     MD5 check sum: a38d2a872edd1a4efd76c0a1a38f7031
     Pseudo is Ultrasoft + core correction, Zval = 14.0
     Generated by new atomic code, or converted to UPF format
     Using radial grid of  891 points,  6 beta functions with: 
                l(1) =   0
                l(2) =   0
                l(3) =   1
                l(4) =   1
                l(5) =   2
                l(6) =   2
     Q(r) pseudized with  8 coefficients,  rinner =    1.100   1.100   1.100
                                                       1.100   1.100

     atomic species   valence    mass     pseudopotential
     Sn               14.00   118.70000     Sn( 1.00)

     16 Sym. Ops., with inversion, found (12 have fractional translation)



   Cartesian axes

     site n.     atom                  positions (alat units)
         1        Sn     tau(   1) = (   0.0000000  -0.2500000   0.0682000  )
         2        Sn     tau(   2) = (   0.0000000   0.2500000  -0.0682000  )

     number of k points=    13
                       cart. coord. in units 2pi/alat
        k(    1) = (   0.0000000   0.0000000   0.0000000), wk =   0.0312500
        k(    2) = (  -0.2500000   0.0000000   0.4582111), wk =   0.2500000
        k(    3) = (   0.5000000   0.0000000  -0.9164223), wk =   0.1250000
        k(    4) = (  -0.2500000   0.2500000   0.9164223), wk =   0.2500000
        k(    5) = (   0.5000000   0.2500000  -0.4582111), wk =   0.5000000
        k(    6) = (   0.2500000   0.2500000   0.0000000), wk =   0.1250000
        k(    7) = (   0.5000000  -0.5000000  -1.8328446), wk =   0.0625000
        k(    8) = (   0.0000000   0.0000000   0.9164223), wk =   0.0625000
        k(    9) = (   0.7500000   0.0000000  -0.4582111), wk =   0.2500000
        k(   10) = (   0.5000000   0.0000000   0.0000000), wk =   0.1250000
        k(   11) = (   0.7500000  -0.7500000  -1.8328446), wk =   0.1250000
        k(   12) = (   0.5000000  -0.5000000  -0.9164223), wk =   0.0625000
        k(   13) = (   0.0000000   0.0000000  -1.8328446), wk =   0.0312500

     Dense  grid:    14425 G-vectors     FFT dimensions: (  36,  36,  36)

     Estimated max dynamical RAM per process >       2.17 MB

     Estimated total dynamical RAM >     253.62 MB

     Initial potential from superposition of free atoms

     starting charge      27.9964, renormalised to      28.0000
     Starting wfcs are   18 randomized atomic wfcs

     total cpu time spent up to now is        0.7 secs

     per-process dynamical memory:     9.8 Mb

     Self-consistent Calculation

     iteration #  1     ecut=    44.00 Ry     beta= 0.70
     Davidson diagonalization with overlap
     ethr =  1.00E-02,  avg # of iterations =  1.8

     Threshold (ethr) on eigenvalues was too large:
     Diagonalizing with lowered threshold

     Davidson diagonalization with overlap
     ethr =  2.47E-05,  avg # of iterations =  3.6

     total cpu time spent up to now is        0.8 secs

     total energy              =    -325.55935015 Ry
     estimated scf accuracy    <       0.00700508 Ry

     iteration #  2     ecut=    44.00 Ry     beta= 0.70
     Davidson diagonalization with overlap
     ethr =  2.50E-05,  avg # of iterations =  2.0

     total cpu time spent up to now is        0.8 secs

     total energy              =    -325.56037286 Ry
     estimated scf accuracy    <       0.00056696 Ry

     iteration #  3     ecut=    44.00 Ry     beta= 0.70
     Davidson diagonalization with overlap
     ethr =  2.02E-06,  avg # of iterations =  2.2

     total cpu time spent up to now is        0.8 secs

     total energy              =    -325.56043900 Ry
     estimated scf accuracy    <       0.00004316 Ry

     iteration #  4     ecut=    44.00 Ry     beta= 0.70
     Davidson diagonalization with overlap
     ethr =  1.54E-07,  avg # of iterations =  2.5

     total cpu time spent up to now is        0.9 secs

     total energy              =    -325.56044430 Ry
     estimated scf accuracy    <       0.00000047 Ry

     iteration #  5     ecut=    44.00 Ry     beta= 0.70
     Davidson diagonalization with overlap
     ethr =  1.67E-09,  avg # of iterations =  4.1

     total cpu time spent up to now is        0.9 secs

     End of self-consistent calculation

          k = 0.0000 0.0000 0.0000 (  1787 PWs)   bands (ev):

   -10.7985 -10.7159 -10.6728 -10.6606 -10.5105 -10.5105 -10.4994 -10.4994
   -10.4079 -10.2945  -0.3476   7.1598   8.8397   8.8397

          k =-0.2500 0.0000 0.4582 (  1798 PWs)   bands (ev):

   -10.7627 -10.6354 -10.6302 -10.5889 -10.5664 -10.5251 -10.5166 -10.4936
   -10.4289 -10.3291   0.8906   6.5827   9.0442  11.2829

          k = 0.5000 0.0000-0.9164 (  1804 PWs)   bands (ev):

   -10.7233 -10.6529 -10.6363 -10.5967 -10.5629 -10.5596 -10.4613 -10.4134
   -10.4097 -10.3629   3.8524   5.3953   8.4868   9.1144

          k =-0.2500 0.2500 0.9164 (  1795 PWs)   bands (ev):

   -10.7372 -10.6496 -10.6062 -10.5895 -10.5874 -10.5367 -10.4779 -10.4588
   -10.3819 -10.3537   3.7379   6.0501   7.1236   9.1085

          k = 0.5000 0.2500-0.4582 (  1800 PWs)   bands (ev):

   -10.7059 -10.6465 -10.6429 -10.5889 -10.5721 -10.5145 -10.4811 -10.4731
   -10.4558 -10.3910   2.0030   4.1404   9.3955  10.6284

          k = 0.2500 0.2500 0.0000 (  1796 PWs)   bands (ev):

   -10.7485 -10.7227 -10.6874 -10.6309 -10.5372 -10.4898 -10.4880 -10.4799
   -10.4372 -10.3432   0.2171   4.5870   9.5064  10.5376

          k = 0.5000-0.5000-1.8328 (  1804 PWs)   bands (ev):

   -10.7191 -10.7191 -10.6311 -10.6311 -10.5376 -10.5376 -10.4658 -10.4658
   -10.4263 -10.4263   1.9001   1.9001  11.4186  11.4186

          k = 0.0000 0.0000 0.9164 (  1786 PWs)   bands (ev):

   -10.7288 -10.6211 -10.6211 -10.6021 -10.5566 -10.5566 -10.5327 -10.4396
   -10.3844 -10.3381   3.2948   7.1420   7.9731   9.4592

          k = 0.7500 0.0000-0.4582 (  1800 PWs)   bands (ev):

   -10.6931 -10.6509 -10.5882 -10.5790 -10.5445 -10.5277 -10.5166 -10.4805
   -10.4736 -10.4171   3.0220   4.3589   7.2623   8.4575

          k = 0.5000 0.0000 0.0000 (  1804 PWs)   bands (ev):

   -10.7346 -10.7049 -10.6928 -10.5993 -10.5145 -10.5067 -10.5029 -10.4599
   -10.4581 -10.3882   0.7796   4.3535   7.0804  10.7929

          k = 0.7500-0.7500-1.8328 (  1800 PWs)   bands (ev):

   -10.7256 -10.7256 -10.5932 -10.5932 -10.5298 -10.5298 -10.4800 -10.4800
   -10.4510 -10.4510   2.4044   2.4044   7.9920   7.9920

          k = 0.5000-0.5000-0.9164 (  1804 PWs)   bands (ev):

   -10.7015 -10.7015 -10.6311 -10.6311 -10.5238 -10.5238 -10.4294 -10.4294
   -10.4026 -10.4026   4.8048   4.8048   7.2816   7.2816

          k = 0.0000 0.0000-1.8328 (  1814 PWs)   bands (ev):

   -10.7284 -10.7284 -10.5292 -10.5292 -10.5195 -10.5195 -10.5075 -10.5075
   -10.4947 -10.4947   3.2419   3.2419   6.0125   6.0125

     highest occupied level (ev):    11.4186

!    total energy              =    -325.56044460 Ry
     estimated scf accuracy    <       0.00000002 Ry

     The total energy is the sum of the following terms:
     one-electron contribution =    -107.29322206 Ry
     hartree contribution      =      74.46869262 Ry
     xc contribution           =     -95.22061193 Ry
     ewald contribution        =    -197.51530322 Ry

     convergence has been achieved in   5 iterations

     Writing all to output data dir ./beta-sn-scf/betatin.save/ :
     XML data file, charge density, pseudopotentials, collected wavefunctions

     init_run     :      0.32s CPU      0.37s WALL (       1 calls)
     electrons    :      0.17s CPU      0.22s WALL (       1 calls)

     Called by init_run:
     wfcinit      :      0.00s CPU      0.02s WALL (       1 calls)
     potinit      :      0.02s CPU      0.02s WALL (       1 calls)
     hinit0       :      0.28s CPU      0.29s WALL (       1 calls)

     Called by electrons:
     c_bands      :      0.11s CPU      0.12s WALL (       6 calls)
     sum_band     :      0.03s CPU      0.04s WALL (       6 calls)
     v_of_rho     :      0.02s CPU      0.02s WALL (       6 calls)
     newd         :      0.01s CPU      0.01s WALL (       6 calls)
     mix_rho      :      0.00s CPU      0.00s WALL (       6 calls)

     Called by c_bands:
     init_us_2    :      0.00s CPU      0.00s WALL (      26 calls)
     cegterg      :      0.10s CPU      0.10s WALL (      12 calls)

     Called by *egterg:
     cdiaghg      :      0.01s CPU      0.02s WALL (      50 calls)
     h_psi        :      0.07s CPU      0.09s WALL (      54 calls)
     s_psi        :      0.00s CPU      0.00s WALL (      54 calls)
     g_psi        :      0.00s CPU      0.00s WALL (      40 calls)

     Called by h_psi:
     h_psi:calbec :      0.00s CPU      0.01s WALL (      54 calls)
     vloc_psi     :      0.07s CPU      0.08s WALL (      54 calls)
     add_vuspsi   :      0.00s CPU      0.00s WALL (      54 calls)

     General routines
     calbec       :      0.00s CPU      0.01s WALL (      66 calls)
     fft          :      0.26s CPU      0.27s WALL (      67 calls)
     ffts         :      0.00s CPU      0.00s WALL (       6 calls)
     fftw         :      0.07s CPU      0.08s WALL (    1084 calls)

     Parallel routines

     PWSCF        :      0.75s CPU      1.00s WALL


   This run was terminated on:  15:48:57   5Feb2026            

=------------------------------------------------------------------------------=
   JOB DONE.
=------------------------------------------------------------------------------=
