
     Program PWSCF v.7.3.1 starts on  5Feb2026 at 15:49:45 

     This program is part of the open-source Quantum ESPRESSO suite
     for quantum simulation of materials; please cite
         "P. Giannozzi et al., J. Phys.:Condens. Matter 21 395502 (2009);
         "P. Giannozzi et al., J. Phys.:Condens. Matter 29 465901 (2017);
         "P. Giannozzi et al., J. Chem. Phys. 152 154105 (2020);
          URL http://www.quantum-espresso.org", 
     in publications or presentations arising from this work. More details at
     http://www.quantum-espresso.org/quote

     Parallel version (MPI), running on   128 processors

     MPI processes distributed on     1 nodes
     242457 MiB available memory on the printing compute node when the environment starts

     Waiting for input...
     Reading input from standard input

     Current dimensions of program PWSCF are:
     Max number of different atomic species (ntypx) = 10
     Max number of k-points (npk) =  40000
     Max angular momentum in pseudopotentials (lmaxx) =  4

     K-points division:     npool     =       8
     R & G space division:  proc/nbgrp/npool/nimage =      16
     Subspace diagonalization in iterative solution of the eigenvalue problem:
     a serial algorithm will be used


     Parallelization info
     --------------------
     sticks:   dense  smooth     PW     G-vecs:    dense   smooth      PW
     Min          71      71     24                 1154     1154     229
     Max          72      72     25                 1155     1155     231
     Sum        1145    1145    391                18473    18473    3677

     Using Slab Decomposition



     bravais-lattice index     =            7
     lattice parameter (alat)  =      11.0200  a.u.
     unit-cell volume          =     365.0809 (a.u.)^3
     number of atoms/cell      =            2
     number of atomic types    =            1
     number of electrons       =        28.00
     number of Kohn-Sham states=           14
     kinetic-energy cutoff     =      52.0000  Ry
     charge density cutoff     =     208.0000  Ry
     scf convergence threshold =      1.0E-07
     mixing beta               =       0.7000
     number of iterations used =            8  plain     mixing
     Exchange-correlation=  SLA  PW   GGX  GGC
                           (   1   4   2   2   0   0   0)

     celldm(1)=  11.020000  celldm(2)=   0.000000  celldm(3)=   0.545600
     celldm(4)=   0.000000  celldm(5)=   0.000000  celldm(6)=   0.000000

     crystal axes: (cart. coord. in units of alat)
               a(1) = (   0.500000  -0.500000   0.272800 )  
               a(2) = (   0.500000   0.500000   0.272800 )  
               a(3) = (  -0.500000  -0.500000   0.272800 )  

     reciprocal axes: (cart. coord. in units 2 pi/alat)
               b(1) = (  1.000000 -1.000000  0.000000 )  
               b(2) = (  0.000000  1.000000  1.832845 )  
               b(3) = ( -1.000000  0.000000  1.832845 )  


     PseudoPot. # 1 for Sn read from file:
     ./Sn.pw91-n-van.UPF
     MD5 check sum: a38d2a872edd1a4efd76c0a1a38f7031
     Pseudo is Ultrasoft + core correction, Zval = 14.0
     Generated by new atomic code, or converted to UPF format
     Using radial grid of  891 points,  6 beta functions with: 
                l(1) =   0
                l(2) =   0
                l(3) =   1
                l(4) =   1
                l(5) =   2
                l(6) =   2
     Q(r) pseudized with  8 coefficients,  rinner =    1.100   1.100   1.100
                                                       1.100   1.100

     atomic species   valence    mass     pseudopotential
     Sn               14.00   118.70000     Sn( 1.00)

     16 Sym. Ops., with inversion, found (12 have fractional translation)



   Cartesian axes

     site n.     atom                  positions (alat units)
         1        Sn     tau(   1) = (   0.0000000  -0.2500000   0.0682000  )
         2        Sn     tau(   2) = (   0.0000000   0.2500000  -0.0682000  )

     number of k points=    13
                       cart. coord. in units 2pi/alat
        k(    1) = (   0.0000000   0.0000000   0.0000000), wk =   0.0312500
        k(    2) = (  -0.2500000   0.0000000   0.4582111), wk =   0.2500000
        k(    3) = (   0.5000000   0.0000000  -0.9164223), wk =   0.1250000
        k(    4) = (  -0.2500000   0.2500000   0.9164223), wk =   0.2500000
        k(    5) = (   0.5000000   0.2500000  -0.4582111), wk =   0.5000000
        k(    6) = (   0.2500000   0.2500000   0.0000000), wk =   0.1250000
        k(    7) = (   0.5000000  -0.5000000  -1.8328446), wk =   0.0625000
        k(    8) = (   0.0000000   0.0000000   0.9164223), wk =   0.0625000
        k(    9) = (   0.7500000   0.0000000  -0.4582111), wk =   0.2500000
        k(   10) = (   0.5000000   0.0000000   0.0000000), wk =   0.1250000
        k(   11) = (   0.7500000  -0.7500000  -1.8328446), wk =   0.1250000
        k(   12) = (   0.5000000  -0.5000000  -0.9164223), wk =   0.0625000
        k(   13) = (   0.0000000   0.0000000  -1.8328446), wk =   0.0312500

     Dense  grid:    18473 G-vectors     FFT dimensions: (  40,  40,  40)

     Estimated max dynamical RAM per process >       2.57 MB

     Estimated total dynamical RAM >     297.14 MB

     Initial potential from superposition of free atoms

     starting charge      27.9964, renormalised to      28.0000
     Starting wfcs are   18 randomized atomic wfcs

     total cpu time spent up to now is        0.7 secs

     per-process dynamical memory:    10.1 Mb

     Self-consistent Calculation

     iteration #  1     ecut=    52.00 Ry     beta= 0.70
     Davidson diagonalization with overlap
     ethr =  1.00E-02,  avg # of iterations =  1.8

     Threshold (ethr) on eigenvalues was too large:
     Diagonalizing with lowered threshold

     Davidson diagonalization with overlap
     ethr =  2.45E-05,  avg # of iterations =  3.8

     negative rho (up, down):  2.041E-05 0.000E+00

     total cpu time spent up to now is        0.8 secs

     total energy              =    -325.56074926 Ry
     estimated scf accuracy    <       0.00698691 Ry

     iteration #  2     ecut=    52.00 Ry     beta= 0.70
     Davidson diagonalization with overlap
     ethr =  2.50E-05,  avg # of iterations =  2.0

     negative rho (up, down):  3.795E-05 0.000E+00

     total cpu time spent up to now is        0.8 secs

     total energy              =    -325.56174475 Ry
     estimated scf accuracy    <       0.00056581 Ry

     iteration #  3     ecut=    52.00 Ry     beta= 0.70
     Davidson diagonalization with overlap
     ethr =  2.02E-06,  avg # of iterations =  2.3

     negative rho (up, down):  4.804E-05 0.000E+00

     total cpu time spent up to now is        0.9 secs

     total energy              =    -325.56181133 Ry
     estimated scf accuracy    <       0.00004371 Ry

     iteration #  4     ecut=    52.00 Ry     beta= 0.70
     Davidson diagonalization with overlap
     ethr =  1.56E-07,  avg # of iterations =  2.8

     negative rho (up, down):  4.826E-05 0.000E+00

     total cpu time spent up to now is        0.9 secs

     total energy              =    -325.56181629 Ry
     estimated scf accuracy    <       0.00000027 Ry

     iteration #  5     ecut=    52.00 Ry     beta= 0.70
     Davidson diagonalization with overlap
     ethr =  9.65E-10,  avg # of iterations =  4.5

     negative rho (up, down):  4.822E-05 0.000E+00

     total cpu time spent up to now is        0.9 secs

     End of self-consistent calculation

          k = 0.0000 0.0000 0.0000 (  2335 PWs)   bands (ev):

   -10.7995 -10.7162 -10.6731 -10.6607 -10.5115 -10.5115 -10.5002 -10.5002
   -10.4083 -10.2951  -0.3476   7.1599   8.8397   8.8397

          k =-0.2500 0.0000 0.4582 (  2322 PWs)   bands (ev):

   -10.7634 -10.6357 -10.6308 -10.5895 -10.5671 -10.5257 -10.5172 -10.4941
   -10.4293 -10.3298   0.8906   6.5829   9.0442  11.2830

          k = 0.5000 0.0000-0.9164 (  2312 PWs)   bands (ev):

   -10.7240 -10.6536 -10.6369 -10.5973 -10.5631 -10.5602 -10.4615 -10.4140
   -10.4102 -10.3634   3.8525   5.3953   8.4868   9.1142

          k =-0.2500 0.2500 0.9164 (  2318 PWs)   bands (ev):

   -10.7380 -10.6502 -10.6069 -10.5900 -10.5880 -10.5373 -10.4784 -10.4592
   -10.3824 -10.3543   3.7380   6.0502   7.1234   9.1084

          k = 0.5000 0.2500-0.4582 (  2313 PWs)   bands (ev):

   -10.7066 -10.6471 -10.6434 -10.5895 -10.5725 -10.5150 -10.4815 -10.4737
   -10.4564 -10.3916   2.0030   4.1404   9.3955  10.6283

          k = 0.2500 0.2500 0.0000 (  2310 PWs)   bands (ev):

   -10.7492 -10.7231 -10.6877 -10.6312 -10.5378 -10.4904 -10.4888 -10.4806
   -10.4375 -10.3438   0.2171   4.5871   9.5064  10.5376

          k = 0.5000-0.5000-1.8328 (  2302 PWs)   bands (ev):

   -10.7195 -10.7195 -10.6317 -10.6317 -10.5380 -10.5380 -10.4663 -10.4663
   -10.4270 -10.4270   1.9001   1.9001  11.4186  11.4186

          k = 0.0000 0.0000 0.9164 (  2327 PWs)   bands (ev):

   -10.7293 -10.6218 -10.6218 -10.6025 -10.5574 -10.5574 -10.5333 -10.4399
   -10.3849 -10.3387   3.2948   7.1421   7.9730   9.4592

          k = 0.7500 0.0000-0.4582 (  2311 PWs)   bands (ev):

   -10.6937 -10.6514 -10.5888 -10.5796 -10.5450 -10.5283 -10.5172 -10.4808
   -10.4741 -10.4177   3.0220   4.3589   7.2622   8.4575

          k = 0.5000 0.0000 0.0000 (  2303 PWs)   bands (ev):

   -10.7350 -10.7053 -10.6933 -10.5998 -10.5150 -10.5073 -10.5036 -10.4604
   -10.4585 -10.3888   0.7796   4.3535   7.0803  10.7928

          k = 0.7500-0.7500-1.8328 (  2312 PWs)   bands (ev):

   -10.7259 -10.7259 -10.5939 -10.5939 -10.5302 -10.5302 -10.4806 -10.4806
   -10.4517 -10.4517   2.4044   2.4044   7.9919   7.9919

          k = 0.5000-0.5000-0.9164 (  2300 PWs)   bands (ev):

   -10.7021 -10.7021 -10.6317 -10.6317 -10.5240 -10.5240 -10.4301 -10.4301
   -10.4030 -10.4030   4.8050   4.8050   7.2815   7.2815

          k = 0.0000 0.0000-1.8328 (  2286 PWs)   bands (ev):

   -10.7287 -10.7287 -10.5298 -10.5298 -10.5197 -10.5197 -10.5081 -10.5081
   -10.4954 -10.4954   3.2420   3.2420   6.0124   6.0124

     highest occupied level (ev):    11.4186

!    total energy              =    -325.56181652 Ry
     estimated scf accuracy    <          8.5E-09 Ry

     The total energy is the sum of the following terms:
     one-electron contribution =    -107.29479136 Ry
     hartree contribution      =      74.46922295 Ry
     xc contribution           =     -95.22094488 Ry
     ewald contribution        =    -197.51530323 Ry

     convergence has been achieved in   5 iterations

     Writing all to output data dir ./beta-sn-scf/betatin.save/ :
     XML data file, charge density, pseudopotentials, collected wavefunctions

     init_run     :      0.38s CPU      0.42s WALL (       1 calls)
     electrons    :      0.20s CPU      0.25s WALL (       1 calls)

     Called by init_run:
     wfcinit      :      0.01s CPU      0.02s WALL (       1 calls)
     potinit      :      0.01s CPU      0.02s WALL (       1 calls)
     hinit0       :      0.33s CPU      0.34s WALL (       1 calls)

     Called by electrons:
     c_bands      :      0.13s CPU      0.14s WALL (       6 calls)
     sum_band     :      0.03s CPU      0.04s WALL (       6 calls)
     v_of_rho     :      0.03s CPU      0.03s WALL (       6 calls)
     newd         :      0.01s CPU      0.01s WALL (       6 calls)
     mix_rho      :      0.00s CPU      0.00s WALL (       6 calls)

     Called by c_bands:
     init_us_2    :      0.00s CPU      0.00s WALL (      26 calls)
     cegterg      :      0.11s CPU      0.12s WALL (      12 calls)

     Called by *egterg:
     cdiaghg      :      0.02s CPU      0.02s WALL (      49 calls)
     h_psi        :      0.09s CPU      0.10s WALL (      53 calls)
     s_psi        :      0.00s CPU      0.00s WALL (      53 calls)
     g_psi        :      0.00s CPU      0.00s WALL (      39 calls)

     Called by h_psi:
     h_psi:calbec :      0.00s CPU      0.01s WALL (      53 calls)
     vloc_psi     :      0.08s CPU      0.09s WALL (      53 calls)
     add_vuspsi   :      0.00s CPU      0.00s WALL (      53 calls)

     General routines
     calbec       :      0.00s CPU      0.01s WALL (      65 calls)
     fft          :      0.31s CPU      0.31s WALL (      67 calls)
     ffts         :      0.00s CPU      0.00s WALL (       6 calls)
     fftw         :      0.08s CPU      0.09s WALL (    1102 calls)

     Parallel routines

     PWSCF        :      0.81s CPU      1.03s WALL


   This run was terminated on:  15:49:46   5Feb2026            

=------------------------------------------------------------------------------=
   JOB DONE.
=------------------------------------------------------------------------------=
