
     Program PWSCF v.7.3.1 starts on  5Feb2026 at 15:49:53 

     This program is part of the open-source Quantum ESPRESSO suite
     for quantum simulation of materials; please cite
         "P. Giannozzi et al., J. Phys.:Condens. Matter 21 395502 (2009);
         "P. Giannozzi et al., J. Phys.:Condens. Matter 29 465901 (2017);
         "P. Giannozzi et al., J. Chem. Phys. 152 154105 (2020);
          URL http://www.quantum-espresso.org", 
     in publications or presentations arising from this work. More details at
     http://www.quantum-espresso.org/quote

     Parallel version (MPI), running on   128 processors

     MPI processes distributed on     1 nodes
     242465 MiB available memory on the printing compute node when the environment starts

     Waiting for input...
     Reading input from standard input

     Current dimensions of program PWSCF are:
     Max number of different atomic species (ntypx) = 10
     Max number of k-points (npk) =  40000
     Max angular momentum in pseudopotentials (lmaxx) =  4

     K-points division:     npool     =       8
     R & G space division:  proc/nbgrp/npool/nimage =      16
     Subspace diagonalization in iterative solution of the eigenvalue problem:
     a serial algorithm will be used


     Parallelization info
     --------------------
     sticks:   dense  smooth     PW     G-vecs:    dense   smooth      PW
     Min          74      74     25                 1224     1224     241
     Max          75      75     26                 1226     1226     242
     Sum        1193    1193    407                19599    19599    3869

     Using Slab Decomposition



     bravais-lattice index     =            7
     lattice parameter (alat)  =      11.0200  a.u.
     unit-cell volume          =     365.0809 (a.u.)^3
     number of atoms/cell      =            2
     number of atomic types    =            1
     number of electrons       =        28.00
     number of Kohn-Sham states=           14
     kinetic-energy cutoff     =      54.0000  Ry
     charge density cutoff     =     216.0000  Ry
     scf convergence threshold =      1.0E-07
     mixing beta               =       0.7000
     number of iterations used =            8  plain     mixing
     Exchange-correlation=  SLA  PW   GGX  GGC
                           (   1   4   2   2   0   0   0)

     celldm(1)=  11.020000  celldm(2)=   0.000000  celldm(3)=   0.545600
     celldm(4)=   0.000000  celldm(5)=   0.000000  celldm(6)=   0.000000

     crystal axes: (cart. coord. in units of alat)
               a(1) = (   0.500000  -0.500000   0.272800 )  
               a(2) = (   0.500000   0.500000   0.272800 )  
               a(3) = (  -0.500000  -0.500000   0.272800 )  

     reciprocal axes: (cart. coord. in units 2 pi/alat)
               b(1) = (  1.000000 -1.000000  0.000000 )  
               b(2) = (  0.000000  1.000000  1.832845 )  
               b(3) = ( -1.000000  0.000000  1.832845 )  


     PseudoPot. # 1 for Sn read from file:
     ./Sn.pw91-n-van.UPF
     MD5 check sum: a38d2a872edd1a4efd76c0a1a38f7031
     Pseudo is Ultrasoft + core correction, Zval = 14.0
     Generated by new atomic code, or converted to UPF format
     Using radial grid of  891 points,  6 beta functions with: 
                l(1) =   0
                l(2) =   0
                l(3) =   1
                l(4) =   1
                l(5) =   2
                l(6) =   2
     Q(r) pseudized with  8 coefficients,  rinner =    1.100   1.100   1.100
                                                       1.100   1.100

     atomic species   valence    mass     pseudopotential
     Sn               14.00   118.70000     Sn( 1.00)

     16 Sym. Ops., with inversion, found (12 have fractional translation)



   Cartesian axes

     site n.     atom                  positions (alat units)
         1        Sn     tau(   1) = (   0.0000000  -0.2500000   0.0682000  )
         2        Sn     tau(   2) = (   0.0000000   0.2500000  -0.0682000  )

     number of k points=    13
                       cart. coord. in units 2pi/alat
        k(    1) = (   0.0000000   0.0000000   0.0000000), wk =   0.0312500
        k(    2) = (  -0.2500000   0.0000000   0.4582111), wk =   0.2500000
        k(    3) = (   0.5000000   0.0000000  -0.9164223), wk =   0.1250000
        k(    4) = (  -0.2500000   0.2500000   0.9164223), wk =   0.2500000
        k(    5) = (   0.5000000   0.2500000  -0.4582111), wk =   0.5000000
        k(    6) = (   0.2500000   0.2500000   0.0000000), wk =   0.1250000
        k(    7) = (   0.5000000  -0.5000000  -1.8328446), wk =   0.0625000
        k(    8) = (   0.0000000   0.0000000   0.9164223), wk =   0.0625000
        k(    9) = (   0.7500000   0.0000000  -0.4582111), wk =   0.2500000
        k(   10) = (   0.5000000   0.0000000   0.0000000), wk =   0.1250000
        k(   11) = (   0.7500000  -0.7500000  -1.8328446), wk =   0.1250000
        k(   12) = (   0.5000000  -0.5000000  -0.9164223), wk =   0.0625000
        k(   13) = (   0.0000000   0.0000000  -1.8328446), wk =   0.0312500

     Dense  grid:    19599 G-vectors     FFT dimensions: (  40,  40,  40)

     Estimated max dynamical RAM per process >       2.66 MB

     Estimated total dynamical RAM >     306.39 MB

     Initial potential from superposition of free atoms

     starting charge      27.9964, renormalised to      28.0000
     Starting wfcs are   18 randomized atomic wfcs

     total cpu time spent up to now is        0.7 secs

     per-process dynamical memory:    10.1 Mb

     Self-consistent Calculation

     iteration #  1     ecut=    54.00 Ry     beta= 0.70
     Davidson diagonalization with overlap
     ethr =  1.00E-02,  avg # of iterations =  1.8

     Threshold (ethr) on eigenvalues was too large:
     Diagonalizing with lowered threshold

     Davidson diagonalization with overlap
     ethr =  2.47E-05,  avg # of iterations =  3.9

     total cpu time spent up to now is        0.8 secs

     total energy              =    -325.56211482 Ry
     estimated scf accuracy    <       0.00697862 Ry

     iteration #  2     ecut=    54.00 Ry     beta= 0.70
     Davidson diagonalization with overlap
     ethr =  2.49E-05,  avg # of iterations =  2.0

     negative rho (up, down):  1.414E-05 0.000E+00

     total cpu time spent up to now is        0.8 secs

     total energy              =    -325.56309591 Ry
     estimated scf accuracy    <       0.00056443 Ry

     iteration #  3     ecut=    54.00 Ry     beta= 0.70
     Davidson diagonalization with overlap
     ethr =  2.02E-06,  avg # of iterations =  2.2

     negative rho (up, down):  2.475E-05 0.000E+00

     total cpu time spent up to now is        0.9 secs

     total energy              =    -325.56316022 Ry
     estimated scf accuracy    <       0.00004255 Ry

     iteration #  4     ecut=    54.00 Ry     beta= 0.70
     Davidson diagonalization with overlap
     ethr =  1.52E-07,  avg # of iterations =  3.0

     negative rho (up, down):  2.483E-05 0.000E+00

     total cpu time spent up to now is        0.9 secs

     total energy              =    -325.56316557 Ry
     estimated scf accuracy    <       0.00000039 Ry

     iteration #  5     ecut=    54.00 Ry     beta= 0.70
     Davidson diagonalization with overlap
     ethr =  1.38E-09,  avg # of iterations =  3.8

     negative rho (up, down):  2.483E-05 0.000E+00

     total cpu time spent up to now is        0.9 secs

     End of self-consistent calculation

          k = 0.0000 0.0000 0.0000 (  2419 PWs)   bands (ev):

   -10.7991 -10.7162 -10.6733 -10.6610 -10.5112 -10.5112 -10.5002 -10.5002
   -10.4088 -10.2950  -0.3470   7.1604   8.8401   8.8401

          k =-0.2500 0.0000 0.4582 (  2454 PWs)   bands (ev):

   -10.7633 -10.6361 -10.6309 -10.5898 -10.5676 -10.5261 -10.5175 -10.4944
   -10.4298 -10.3298   0.8912   6.5833   9.0447  11.2834

          k = 0.5000 0.0000-0.9164 (  2456 PWs)   bands (ev):

   -10.7241 -10.6538 -10.6373 -10.5973 -10.5641 -10.5604 -10.4622 -10.4142
   -10.4106 -10.3636   3.8530   5.3959   8.4873   9.1147

          k =-0.2500 0.2500 0.9164 (  2453 PWs)   bands (ev):

   -10.7380 -10.6504 -10.6072 -10.5903 -10.5884 -10.5376 -10.4788 -10.4597
   -10.3827 -10.3546   3.7385   6.0507   7.1240   9.1089

          k = 0.5000 0.2500-0.4582 (  2451 PWs)   bands (ev):

   -10.7066 -10.6473 -10.6438 -10.5898 -10.5729 -10.5154 -10.4819 -10.4741
   -10.4567 -10.3919   2.0035   4.1409   9.3961  10.6289

          k = 0.2500 0.2500 0.0000 (  2430 PWs)   bands (ev):

   -10.7492 -10.7230 -10.6879 -10.6316 -10.5381 -10.4906 -10.4888 -10.4809
   -10.4380 -10.3441   0.2176   4.5876   9.5069  10.5382

          k = 0.5000-0.5000-1.8328 (  2458 PWs)   bands (ev):

   -10.7197 -10.7197 -10.6318 -10.6318 -10.5387 -10.5387 -10.4667 -10.4667
   -10.4276 -10.4276   1.9007   1.9007  11.4190  11.4190

          k = 0.0000 0.0000 0.9164 (  2427 PWs)   bands (ev):

   -10.7292 -10.6222 -10.6222 -10.6029 -10.5573 -10.5573 -10.5331 -10.4406
   -10.3849 -10.3386   3.2953   7.1427   7.9735   9.4597

          k = 0.7500 0.0000-0.4582 (  2440 PWs)   bands (ev):

   -10.6935 -10.6515 -10.5891 -10.5799 -10.5457 -10.5285 -10.5174 -10.4814
   -10.4742 -10.4179   3.0225   4.3594   7.2629   8.4581

          k = 0.5000 0.0000 0.0000 (  2435 PWs)   bands (ev):

   -10.7350 -10.7055 -10.6933 -10.6001 -10.5153 -10.5078 -10.5039 -10.4609
   -10.4590 -10.3892   0.7801   4.3540   7.0809  10.7934

          k = 0.7500-0.7500-1.8328 (  2426 PWs)   bands (ev):

   -10.7259 -10.7259 -10.5938 -10.5938 -10.5307 -10.5307 -10.4809 -10.4809
   -10.4520 -10.4520   2.4049   2.4049   7.9925   7.9925

          k = 0.5000-0.5000-0.9164 (  2468 PWs)   bands (ev):

   -10.7026 -10.7026 -10.6320 -10.6320 -10.5247 -10.5247 -10.4303 -10.4303
   -10.4036 -10.4036   4.8054   4.8054   7.2821   7.2821

          k = 0.0000 0.0000-1.8328 (  2440 PWs)   bands (ev):

   -10.7288 -10.7288 -10.5297 -10.5297 -10.5205 -10.5205 -10.5087 -10.5087
   -10.4959 -10.4959   3.2425   3.2425   6.0131   6.0131

     highest occupied level (ev):    11.4190

!    total energy              =    -325.56316577 Ry
     estimated scf accuracy    <          8.2E-09 Ry

     The total energy is the sum of the following terms:
     one-electron contribution =    -107.29666712 Ry
     hartree contribution      =      74.47021987 Ry
     xc contribution           =     -95.22141529 Ry
     ewald contribution        =    -197.51530323 Ry

     convergence has been achieved in   5 iterations

     Writing all to output data dir ./beta-sn-scf/betatin.save/ :
     XML data file, charge density, pseudopotentials, collected wavefunctions

     init_run     :      0.36s CPU      0.42s WALL (       1 calls)
     electrons    :      0.20s CPU      0.24s WALL (       1 calls)

     Called by init_run:
     wfcinit      :      0.02s CPU      0.02s WALL (       1 calls)
     potinit      :      0.01s CPU      0.02s WALL (       1 calls)
     hinit0       :      0.33s CPU      0.34s WALL (       1 calls)

     Called by electrons:
     c_bands      :      0.13s CPU      0.14s WALL (       6 calls)
     sum_band     :      0.03s CPU      0.04s WALL (       6 calls)
     v_of_rho     :      0.02s CPU      0.03s WALL (       6 calls)
     newd         :      0.01s CPU      0.01s WALL (       6 calls)
     mix_rho      :      0.00s CPU      0.00s WALL (       6 calls)

     Called by c_bands:
     init_us_2    :      0.00s CPU      0.00s WALL (      26 calls)
     cegterg      :      0.11s CPU      0.12s WALL (      12 calls)

     Called by *egterg:
     cdiaghg      :      0.02s CPU      0.02s WALL (      51 calls)
     h_psi        :      0.10s CPU      0.10s WALL (      55 calls)
     s_psi        :      0.00s CPU      0.00s WALL (      55 calls)
     g_psi        :      0.00s CPU      0.00s WALL (      41 calls)

     Called by h_psi:
     h_psi:calbec :      0.01s CPU      0.01s WALL (      55 calls)
     vloc_psi     :      0.09s CPU      0.09s WALL (      55 calls)
     add_vuspsi   :      0.00s CPU      0.00s WALL (      55 calls)

     General routines
     calbec       :      0.01s CPU      0.01s WALL (      67 calls)
     fft          :      0.31s CPU      0.31s WALL (      67 calls)
     ffts         :      0.00s CPU      0.00s WALL (       6 calls)
     fftw         :      0.09s CPU      0.10s WALL (    1094 calls)

     Parallel routines

     PWSCF        :      0.79s CPU      1.03s WALL


   This run was terminated on:  15:49:54   5Feb2026            

=------------------------------------------------------------------------------=
   JOB DONE.
=------------------------------------------------------------------------------=
