
     Program PWSCF v.7.3.1 starts on  5Feb2026 at 15:50: 2 

     This program is part of the open-source Quantum ESPRESSO suite
     for quantum simulation of materials; please cite
         "P. Giannozzi et al., J. Phys.:Condens. Matter 21 395502 (2009);
         "P. Giannozzi et al., J. Phys.:Condens. Matter 29 465901 (2017);
         "P. Giannozzi et al., J. Chem. Phys. 152 154105 (2020);
          URL http://www.quantum-espresso.org", 
     in publications or presentations arising from this work. More details at
     http://www.quantum-espresso.org/quote

     Parallel version (MPI), running on   128 processors

     MPI processes distributed on     1 nodes
     242452 MiB available memory on the printing compute node when the environment starts

     Waiting for input...
     Reading input from standard input

     Current dimensions of program PWSCF are:
     Max number of different atomic species (ntypx) = 10
     Max number of k-points (npk) =  40000
     Max angular momentum in pseudopotentials (lmaxx) =  4

     K-points division:     npool     =       8
     R & G space division:  proc/nbgrp/npool/nimage =      16
     Subspace diagonalization in iterative solution of the eigenvalue problem:
     a serial algorithm will be used


     Parallelization info
     --------------------
     sticks:   dense  smooth     PW     G-vecs:    dense   smooth      PW
     Min          76      76     26                 1290     1290     254
     Max          77      77     27                 1292     1292     255
     Sum        1231    1231    419                20651    20651    4077

     Using Slab Decomposition



     bravais-lattice index     =            7
     lattice parameter (alat)  =      11.0200  a.u.
     unit-cell volume          =     365.0809 (a.u.)^3
     number of atoms/cell      =            2
     number of atomic types    =            1
     number of electrons       =        28.00
     number of Kohn-Sham states=           14
     kinetic-energy cutoff     =      56.0000  Ry
     charge density cutoff     =     224.0000  Ry
     scf convergence threshold =      1.0E-07
     mixing beta               =       0.7000
     number of iterations used =            8  plain     mixing
     Exchange-correlation=  SLA  PW   GGX  GGC
                           (   1   4   2   2   0   0   0)

     celldm(1)=  11.020000  celldm(2)=   0.000000  celldm(3)=   0.545600
     celldm(4)=   0.000000  celldm(5)=   0.000000  celldm(6)=   0.000000

     crystal axes: (cart. coord. in units of alat)
               a(1) = (   0.500000  -0.500000   0.272800 )  
               a(2) = (   0.500000   0.500000   0.272800 )  
               a(3) = (  -0.500000  -0.500000   0.272800 )  

     reciprocal axes: (cart. coord. in units 2 pi/alat)
               b(1) = (  1.000000 -1.000000  0.000000 )  
               b(2) = (  0.000000  1.000000  1.832845 )  
               b(3) = ( -1.000000  0.000000  1.832845 )  


     PseudoPot. # 1 for Sn read from file:
     ./Sn.pw91-n-van.UPF
     MD5 check sum: a38d2a872edd1a4efd76c0a1a38f7031
     Pseudo is Ultrasoft + core correction, Zval = 14.0
     Generated by new atomic code, or converted to UPF format
     Using radial grid of  891 points,  6 beta functions with: 
                l(1) =   0
                l(2) =   0
                l(3) =   1
                l(4) =   1
                l(5) =   2
                l(6) =   2
     Q(r) pseudized with  8 coefficients,  rinner =    1.100   1.100   1.100
                                                       1.100   1.100

     atomic species   valence    mass     pseudopotential
     Sn               14.00   118.70000     Sn( 1.00)

     16 Sym. Ops., with inversion, found (12 have fractional translation)



   Cartesian axes

     site n.     atom                  positions (alat units)
         1        Sn     tau(   1) = (   0.0000000  -0.2500000   0.0682000  )
         2        Sn     tau(   2) = (   0.0000000   0.2500000  -0.0682000  )

     number of k points=    13
                       cart. coord. in units 2pi/alat
        k(    1) = (   0.0000000   0.0000000   0.0000000), wk =   0.0312500
        k(    2) = (  -0.2500000   0.0000000   0.4582111), wk =   0.2500000
        k(    3) = (   0.5000000   0.0000000  -0.9164223), wk =   0.1250000
        k(    4) = (  -0.2500000   0.2500000   0.9164223), wk =   0.2500000
        k(    5) = (   0.5000000   0.2500000  -0.4582111), wk =   0.5000000
        k(    6) = (   0.2500000   0.2500000   0.0000000), wk =   0.1250000
        k(    7) = (   0.5000000  -0.5000000  -1.8328446), wk =   0.0625000
        k(    8) = (   0.0000000   0.0000000   0.9164223), wk =   0.0625000
        k(    9) = (   0.7500000   0.0000000  -0.4582111), wk =   0.2500000
        k(   10) = (   0.5000000   0.0000000   0.0000000), wk =   0.1250000
        k(   11) = (   0.7500000  -0.7500000  -1.8328446), wk =   0.1250000
        k(   12) = (   0.5000000  -0.5000000  -0.9164223), wk =   0.0625000
        k(   13) = (   0.0000000   0.0000000  -1.8328446), wk =   0.0312500

     Dense  grid:    20651 G-vectors     FFT dimensions: (  40,  40,  40)

     Estimated max dynamical RAM per process >       2.74 MB

     Estimated total dynamical RAM >     315.26 MB

     Initial potential from superposition of free atoms

     starting charge      27.9964, renormalised to      28.0000
     Starting wfcs are   18 randomized atomic wfcs

     total cpu time spent up to now is        0.7 secs

     per-process dynamical memory:    10.1 Mb

     Self-consistent Calculation

     iteration #  1     ecut=    56.00 Ry     beta= 0.70
     Davidson diagonalization with overlap
     ethr =  1.00E-02,  avg # of iterations =  1.8

     Threshold (ethr) on eigenvalues was too large:
     Diagonalizing with lowered threshold

     Davidson diagonalization with overlap
     ethr =  2.45E-05,  avg # of iterations =  3.7

     total cpu time spent up to now is        0.8 secs

     total energy              =    -325.56373355 Ry
     estimated scf accuracy    <       0.00695835 Ry

     iteration #  2     ecut=    56.00 Ry     beta= 0.70
     Davidson diagonalization with overlap
     ethr =  2.49E-05,  avg # of iterations =  2.0

     total cpu time spent up to now is        0.8 secs

     total energy              =    -325.56472099 Ry
     estimated scf accuracy    <       0.00056527 Ry

     iteration #  3     ecut=    56.00 Ry     beta= 0.70
     Davidson diagonalization with overlap
     ethr =  2.02E-06,  avg # of iterations =  2.2

     total cpu time spent up to now is        0.9 secs

     total energy              =    -325.56478562 Ry
     estimated scf accuracy    <       0.00004380 Ry

     iteration #  4     ecut=    56.00 Ry     beta= 0.70
     Davidson diagonalization with overlap
     ethr =  1.56E-07,  avg # of iterations =  2.8

     total cpu time spent up to now is        0.9 secs

     total energy              =    -325.56479096 Ry
     estimated scf accuracy    <       0.00000037 Ry

     iteration #  5     ecut=    56.00 Ry     beta= 0.70
     Davidson diagonalization with overlap
     ethr =  1.31E-09,  avg # of iterations =  4.2

     total cpu time spent up to now is        0.9 secs

     End of self-consistent calculation

          k = 0.0000 0.0000 0.0000 (  2539 PWs)   bands (ev):

   -10.7991 -10.7171 -10.6739 -10.6616 -10.5123 -10.5123 -10.5004 -10.5004
   -10.4092 -10.2952  -0.3466   7.1608   8.8405   8.8405

          k =-0.2500 0.0000 0.4582 (  2579 PWs)   bands (ev):

   -10.7635 -10.6369 -10.6315 -10.5904 -10.5683 -10.5264 -10.5182 -10.4950
   -10.4306 -10.3305   0.8916   6.5837   9.0451  11.2838

          k = 0.5000 0.0000-0.9164 (  2586 PWs)   bands (ev):

   -10.7244 -10.6543 -10.6380 -10.5976 -10.5649 -10.5614 -10.4629 -10.4148
   -10.4112 -10.3645   3.8535   5.3963   8.4878   9.1151

          k =-0.2500 0.2500 0.9164 (  2588 PWs)   bands (ev):

   -10.7384 -10.6511 -10.6078 -10.5910 -10.5889 -10.5383 -10.4795 -10.4605
   -10.3833 -10.3551   3.7389   6.0511   7.1245   9.1093

          k = 0.5000 0.2500-0.4582 (  2586 PWs)   bands (ev):

   -10.7070 -10.6479 -10.6442 -10.5905 -10.5737 -10.5161 -10.4828 -10.4747
   -10.4574 -10.3925   2.0040   4.1413   9.3965  10.6293

          k = 0.2500 0.2500 0.0000 (  2579 PWs)   bands (ev):

   -10.7494 -10.7240 -10.6889 -10.6325 -10.5384 -10.4913 -10.4896 -10.4816
   -10.4388 -10.3448   0.2181   4.5880   9.5072  10.5388

          k = 0.5000-0.5000-1.8328 (  2598 PWs)   bands (ev):

   -10.7205 -10.7205 -10.6322 -10.6322 -10.5393 -10.5393 -10.4674 -10.4674
   -10.4283 -10.4283   1.9011   1.9011  11.4194  11.4194

          k = 0.0000 0.0000 0.9164 (  2615 PWs)   bands (ev):

   -10.7295 -10.6231 -10.6231 -10.6044 -10.5584 -10.5584 -10.5340 -10.4416
   -10.3859 -10.3398   3.2958   7.1431   7.9739   9.4602

          k = 0.7500 0.0000-0.4582 (  2589 PWs)   bands (ev):

   -10.6940 -10.6519 -10.5896 -10.5809 -10.5465 -10.5291 -10.5183 -10.4826
   -10.4750 -10.4186   3.0229   4.3598   7.2635   8.4586

          k = 0.5000 0.0000 0.0000 (  2585 PWs)   bands (ev):

   -10.7355 -10.7064 -10.6941 -10.6012 -10.5158 -10.5084 -10.5045 -10.4616
   -10.4598 -10.3897   0.7806   4.3544   7.0815  10.7939

          k = 0.7500-0.7500-1.8328 (  2588 PWs)   bands (ev):

   -10.7267 -10.7267 -10.5944 -10.5944 -10.5318 -10.5318 -10.4817 -10.4817
   -10.4528 -10.4528   2.4054   2.4054   7.9931   7.9931

          k = 0.5000-0.5000-0.9164 (  2576 PWs)   bands (ev):

   -10.7029 -10.7029 -10.6323 -10.6323 -10.5256 -10.5256 -10.4306 -10.4306
   -10.4041 -10.4041   4.8059   4.8059   7.2825   7.2825

          k = 0.0000 0.0000-1.8328 (  2572 PWs)   bands (ev):

   -10.7293 -10.7293 -10.5300 -10.5300 -10.5218 -10.5218 -10.5091 -10.5091
   -10.4963 -10.4963   3.2428   3.2428   6.0137   6.0137

     highest occupied level (ev):    11.4194

!    total energy              =    -325.56479127 Ry
     estimated scf accuracy    <       0.00000001 Ry

     The total energy is the sum of the following terms:
     one-electron contribution =    -107.29896317 Ry
     hartree contribution      =      74.47135272 Ry
     xc contribution           =     -95.22187758 Ry
     ewald contribution        =    -197.51530323 Ry

     convergence has been achieved in   5 iterations

     Writing all to output data dir ./beta-sn-scf/betatin.save/ :
     XML data file, charge density, pseudopotentials, collected wavefunctions

     init_run     :      0.38s CPU      0.42s WALL (       1 calls)
     electrons    :      0.19s CPU      0.25s WALL (       1 calls)

     Called by init_run:
     wfcinit      :      0.02s CPU      0.02s WALL (       1 calls)
     potinit      :      0.01s CPU      0.02s WALL (       1 calls)
     hinit0       :      0.32s CPU      0.34s WALL (       1 calls)

     Called by electrons:
     c_bands      :      0.12s CPU      0.14s WALL (       6 calls)
     sum_band     :      0.03s CPU      0.04s WALL (       6 calls)
     v_of_rho     :      0.02s CPU      0.03s WALL (       6 calls)
     newd         :      0.01s CPU      0.01s WALL (       6 calls)
     mix_rho      :      0.00s CPU      0.00s WALL (       6 calls)

     Called by c_bands:
     init_us_2    :      0.00s CPU      0.00s WALL (      26 calls)
     cegterg      :      0.10s CPU      0.11s WALL (      12 calls)

     Called by *egterg:
     cdiaghg      :      0.02s CPU      0.02s WALL (      48 calls)
     h_psi        :      0.09s CPU      0.10s WALL (      52 calls)
     s_psi        :      0.00s CPU      0.00s WALL (      52 calls)
     g_psi        :      0.00s CPU      0.00s WALL (      38 calls)

     Called by h_psi:
     h_psi:calbec :      0.00s CPU      0.01s WALL (      52 calls)
     vloc_psi     :      0.09s CPU      0.09s WALL (      52 calls)
     add_vuspsi   :      0.00s CPU      0.00s WALL (      52 calls)

     General routines
     calbec       :      0.00s CPU      0.01s WALL (      64 calls)
     fft          :      0.30s CPU      0.31s WALL (      67 calls)
     ffts         :      0.00s CPU      0.00s WALL (       6 calls)
     fftw         :      0.09s CPU      0.10s WALL (    1084 calls)

     Parallel routines

     PWSCF        :      0.89s CPU      1.17s WALL


   This run was terminated on:  15:50: 3   5Feb2026            

=------------------------------------------------------------------------------=
   JOB DONE.
=------------------------------------------------------------------------------=
