
     Program PWSCF v.7.3.1 starts on  5Feb2026 at 15:50:12 

     This program is part of the open-source Quantum ESPRESSO suite
     for quantum simulation of materials; please cite
         "P. Giannozzi et al., J. Phys.:Condens. Matter 21 395502 (2009);
         "P. Giannozzi et al., J. Phys.:Condens. Matter 29 465901 (2017);
         "P. Giannozzi et al., J. Chem. Phys. 152 154105 (2020);
          URL http://www.quantum-espresso.org", 
     in publications or presentations arising from this work. More details at
     http://www.quantum-espresso.org/quote

     Parallel version (MPI), running on   128 processors

     MPI processes distributed on     1 nodes
     242465 MiB available memory on the printing compute node when the environment starts

     Waiting for input...
     Reading input from standard input

     Current dimensions of program PWSCF are:
     Max number of different atomic species (ntypx) = 10
     Max number of k-points (npk) =  40000
     Max angular momentum in pseudopotentials (lmaxx) =  4

     K-points division:     npool     =       8
     R & G space division:  proc/nbgrp/npool/nimage =      16
     Subspace diagonalization in iterative solution of the eigenvalue problem:
     a serial algorithm will be used


     Parallelization info
     --------------------
     sticks:   dense  smooth     PW     G-vecs:    dense   smooth      PW
     Min          80      80     26                 1365     1365     265
     Max          81      81     27                 1367     1367     268
     Sum        1281    1281    427                21851    21851    4269

     Using Slab Decomposition



     bravais-lattice index     =            7
     lattice parameter (alat)  =      11.0200  a.u.
     unit-cell volume          =     365.0809 (a.u.)^3
     number of atoms/cell      =            2
     number of atomic types    =            1
     number of electrons       =        28.00
     number of Kohn-Sham states=           14
     kinetic-energy cutoff     =      58.0000  Ry
     charge density cutoff     =     232.0000  Ry
     scf convergence threshold =      1.0E-07
     mixing beta               =       0.7000
     number of iterations used =            8  plain     mixing
     Exchange-correlation=  SLA  PW   GGX  GGC
                           (   1   4   2   2   0   0   0)

     celldm(1)=  11.020000  celldm(2)=   0.000000  celldm(3)=   0.545600
     celldm(4)=   0.000000  celldm(5)=   0.000000  celldm(6)=   0.000000

     crystal axes: (cart. coord. in units of alat)
               a(1) = (   0.500000  -0.500000   0.272800 )  
               a(2) = (   0.500000   0.500000   0.272800 )  
               a(3) = (  -0.500000  -0.500000   0.272800 )  

     reciprocal axes: (cart. coord. in units 2 pi/alat)
               b(1) = (  1.000000 -1.000000  0.000000 )  
               b(2) = (  0.000000  1.000000  1.832845 )  
               b(3) = ( -1.000000  0.000000  1.832845 )  


     PseudoPot. # 1 for Sn read from file:
     ./Sn.pw91-n-van.UPF
     MD5 check sum: a38d2a872edd1a4efd76c0a1a38f7031
     Pseudo is Ultrasoft + core correction, Zval = 14.0
     Generated by new atomic code, or converted to UPF format
     Using radial grid of  891 points,  6 beta functions with: 
                l(1) =   0
                l(2) =   0
                l(3) =   1
                l(4) =   1
                l(5) =   2
                l(6) =   2
     Q(r) pseudized with  8 coefficients,  rinner =    1.100   1.100   1.100
                                                       1.100   1.100

     atomic species   valence    mass     pseudopotential
     Sn               14.00   118.70000     Sn( 1.00)

     16 Sym. Ops., with inversion, found (12 have fractional translation)



   Cartesian axes

     site n.     atom                  positions (alat units)
         1        Sn     tau(   1) = (   0.0000000  -0.2500000   0.0682000  )
         2        Sn     tau(   2) = (   0.0000000   0.2500000  -0.0682000  )

     number of k points=    13
                       cart. coord. in units 2pi/alat
        k(    1) = (   0.0000000   0.0000000   0.0000000), wk =   0.0312500
        k(    2) = (  -0.2500000   0.0000000   0.4582111), wk =   0.2500000
        k(    3) = (   0.5000000   0.0000000  -0.9164223), wk =   0.1250000
        k(    4) = (  -0.2500000   0.2500000   0.9164223), wk =   0.2500000
        k(    5) = (   0.5000000   0.2500000  -0.4582111), wk =   0.5000000
        k(    6) = (   0.2500000   0.2500000   0.0000000), wk =   0.1250000
        k(    7) = (   0.5000000  -0.5000000  -1.8328446), wk =   0.0625000
        k(    8) = (   0.0000000   0.0000000   0.9164223), wk =   0.0625000
        k(    9) = (   0.7500000   0.0000000  -0.4582111), wk =   0.2500000
        k(   10) = (   0.5000000   0.0000000   0.0000000), wk =   0.1250000
        k(   11) = (   0.7500000  -0.7500000  -1.8328446), wk =   0.1250000
        k(   12) = (   0.5000000  -0.5000000  -0.9164223), wk =   0.0625000
        k(   13) = (   0.0000000   0.0000000  -1.8328446), wk =   0.0312500

     Dense  grid:    21851 G-vectors     FFT dimensions: (  48,  48,  48)

     Estimated max dynamical RAM per process >       2.97 MB

     Estimated total dynamical RAM >     343.33 MB

     Initial potential from superposition of free atoms

     starting charge      27.9964, renormalised to      28.0000
     Starting wfcs are   18 randomized atomic wfcs

     total cpu time spent up to now is        0.8 secs

     per-process dynamical memory:    10.8 Mb

     Self-consistent Calculation

     iteration #  1     ecut=    58.00 Ry     beta= 0.70
     Davidson diagonalization with overlap
     ethr =  1.00E-02,  avg # of iterations =  1.8

     Threshold (ethr) on eigenvalues was too large:
     Diagonalizing with lowered threshold

     Davidson diagonalization with overlap
     ethr =  2.44E-05,  avg # of iterations =  3.8

     total cpu time spent up to now is        0.9 secs

     total energy              =    -325.56528931 Ry
     estimated scf accuracy    <       0.00696602 Ry

     iteration #  2     ecut=    58.00 Ry     beta= 0.70
     Davidson diagonalization with overlap
     ethr =  2.49E-05,  avg # of iterations =  2.0

     total cpu time spent up to now is        0.9 secs

     total energy              =    -325.56627747 Ry
     estimated scf accuracy    <       0.00056462 Ry

     iteration #  3     ecut=    58.00 Ry     beta= 0.70
     Davidson diagonalization with overlap
     ethr =  2.02E-06,  avg # of iterations =  2.2

     total cpu time spent up to now is        1.0 secs

     total energy              =    -325.56634264 Ry
     estimated scf accuracy    <       0.00004227 Ry

     iteration #  4     ecut=    58.00 Ry     beta= 0.70
     Davidson diagonalization with overlap
     ethr =  1.51E-07,  avg # of iterations =  2.7

     total cpu time spent up to now is        1.0 secs

     total energy              =    -325.56634846 Ry
     estimated scf accuracy    <       0.00000052 Ry

     iteration #  5     ecut=    58.00 Ry     beta= 0.70
     Davidson diagonalization with overlap
     ethr =  1.85E-09,  avg # of iterations =  4.2

     total cpu time spent up to now is        1.0 secs

     End of self-consistent calculation

          k = 0.0000 0.0000 0.0000 (  2731 PWs)   bands (ev):

   -10.7997 -10.7175 -10.6751 -10.6627 -10.5126 -10.5126 -10.5017 -10.5017
   -10.4097 -10.2971  -0.3462   7.1612   8.8408   8.8408

          k =-0.2500 0.0000 0.4582 (  2714 PWs)   bands (ev):

   -10.7638 -10.6375 -10.6316 -10.5907 -10.5687 -10.5271 -10.5187 -10.4955
   -10.4311 -10.3313   0.8920   6.5841   9.0454  11.2841

          k = 0.5000 0.0000-0.9164 (  2734 PWs)   bands (ev):

   -10.7249 -10.6550 -10.6387 -10.5985 -10.5654 -10.5618 -10.4636 -10.4151
   -10.4116 -10.3649   3.8538   5.3967   8.4882   9.1155

          k =-0.2500 0.2500 0.9164 (  2720 PWs)   bands (ev):

   -10.7387 -10.6517 -10.6083 -10.5915 -10.5895 -10.5390 -10.4796 -10.4611
   -10.3835 -10.3558   3.7393   6.0515   7.1249   9.1096

          k = 0.5000 0.2500-0.4582 (  2721 PWs)   bands (ev):

   -10.7073 -10.6483 -10.6445 -10.5910 -10.5743 -10.5167 -10.4833 -10.4753
   -10.4579 -10.3931   2.0043   4.1417   9.3968  10.6297

          k = 0.2500 0.2500 0.0000 (  2721 PWs)   bands (ev):

   -10.7497 -10.7244 -10.6891 -10.6330 -10.5393 -10.4919 -10.4904 -10.4823
   -10.4394 -10.3453   0.2184   4.5884   9.5075  10.5391

          k = 0.5000-0.5000-1.8328 (  2734 PWs)   bands (ev):

   -10.7209 -10.7209 -10.6326 -10.6326 -10.5400 -10.5400 -10.4682 -10.4682
   -10.4286 -10.4286   1.9015   1.9015  11.4197  11.4197

          k = 0.0000 0.0000 0.9164 (  2735 PWs)   bands (ev):

   -10.7301 -10.6237 -10.6237 -10.6044 -10.5589 -10.5589 -10.5341 -10.4420
   -10.3859 -10.3402   3.2961   7.1434   7.9744   9.4604

          k = 0.7500 0.0000-0.4582 (  2727 PWs)   bands (ev):

   -10.6944 -10.6523 -10.5901 -10.5815 -10.5471 -10.5299 -10.5189 -10.4829
   -10.4755 -10.4192   3.0233   4.3601   7.2638   8.4590

          k = 0.5000 0.0000 0.0000 (  2743 PWs)   bands (ev):

   -10.7361 -10.7067 -10.6944 -10.6017 -10.5167 -10.5092 -10.5053 -10.4623
   -10.4607 -10.3904   0.7809   4.3547   7.0818  10.7942

          k = 0.7500-0.7500-1.8328 (  2716 PWs)   bands (ev):

   -10.7271 -10.7271 -10.5948 -10.5948 -10.5322 -10.5322 -10.4822 -10.4822
   -10.4532 -10.4532   2.4057   2.4057   7.9934   7.9934

          k = 0.5000-0.5000-0.9164 (  2712 PWs)   bands (ev):

   -10.7032 -10.7032 -10.6331 -10.6331 -10.5260 -10.5260 -10.4315 -10.4315
   -10.4042 -10.4042   4.8062   4.8062   7.2829   7.2829

          k = 0.0000 0.0000-1.8328 (  2716 PWs)   bands (ev):

   -10.7298 -10.7298 -10.5310 -10.5310 -10.5219 -10.5219 -10.5098 -10.5098
   -10.4968 -10.4968   3.2432   3.2432   6.0141   6.0141

     highest occupied level (ev):    11.4197

!    total energy              =    -325.56634876 Ry
     estimated scf accuracy    <       0.00000002 Ry

     The total energy is the sum of the following terms:
     one-electron contribution =    -107.30096538 Ry
     hartree contribution      =      74.47204202 Ry
     xc contribution           =     -95.22212217 Ry
     ewald contribution        =    -197.51530324 Ry

     convergence has been achieved in   5 iterations

     Writing all to output data dir ./beta-sn-scf/betatin.save/ :
     XML data file, charge density, pseudopotentials, collected wavefunctions

     init_run     :      0.42s CPU      0.48s WALL (       1 calls)
     electrons    :      0.22s CPU      0.27s WALL (       1 calls)

     Called by init_run:
     wfcinit      :      0.01s CPU      0.02s WALL (       1 calls)
     potinit      :      0.01s CPU      0.03s WALL (       1 calls)
     hinit0       :      0.38s CPU      0.39s WALL (       1 calls)

     Called by electrons:
     c_bands      :      0.14s CPU      0.15s WALL (       6 calls)
     sum_band     :      0.03s CPU      0.05s WALL (       6 calls)
     v_of_rho     :      0.03s CPU      0.04s WALL (       6 calls)
     newd         :      0.01s CPU      0.01s WALL (       6 calls)
     mix_rho      :      0.00s CPU      0.00s WALL (       6 calls)

     Called by c_bands:
     init_us_2    :      0.00s CPU      0.00s WALL (      26 calls)
     cegterg      :      0.12s CPU      0.13s WALL (      12 calls)

     Called by *egterg:
     cdiaghg      :      0.02s CPU      0.02s WALL (      51 calls)
     h_psi        :      0.10s CPU      0.11s WALL (      55 calls)
     s_psi        :      0.00s CPU      0.00s WALL (      55 calls)
     g_psi        :      0.00s CPU      0.00s WALL (      41 calls)

     Called by h_psi:
     h_psi:calbec :      0.01s CPU      0.01s WALL (      55 calls)
     vloc_psi     :      0.09s CPU      0.11s WALL (      55 calls)
     add_vuspsi   :      0.00s CPU      0.00s WALL (      55 calls)

     General routines
     calbec       :      0.01s CPU      0.01s WALL (      67 calls)
     fft          :      0.36s CPU      0.37s WALL (      67 calls)
     ffts         :      0.00s CPU      0.00s WALL (       6 calls)
     fftw         :      0.10s CPU      0.11s WALL (    1096 calls)

     Parallel routines

     PWSCF        :      0.88s CPU      1.16s WALL


   This run was terminated on:  15:50:13   5Feb2026            

=------------------------------------------------------------------------------=
   JOB DONE.
=------------------------------------------------------------------------------=
