
     Program PWSCF v.7.3.1 starts on  5Feb2026 at 15:50:47 

     This program is part of the open-source Quantum ESPRESSO suite
     for quantum simulation of materials; please cite
         "P. Giannozzi et al., J. Phys.:Condens. Matter 21 395502 (2009);
         "P. Giannozzi et al., J. Phys.:Condens. Matter 29 465901 (2017);
         "P. Giannozzi et al., J. Chem. Phys. 152 154105 (2020);
          URL http://www.quantum-espresso.org", 
     in publications or presentations arising from this work. More details at
     http://www.quantum-espresso.org/quote

     Parallel version (MPI), running on   128 processors

     MPI processes distributed on     1 nodes
     242407 MiB available memory on the printing compute node when the environment starts

     Waiting for input...
     Reading input from standard input

     Current dimensions of program PWSCF are:
     Max number of different atomic species (ntypx) = 10
     Max number of k-points (npk) =  40000
     Max angular momentum in pseudopotentials (lmaxx) =  4

     K-points division:     npool     =       8
     R & G space division:  proc/nbgrp/npool/nimage =      16
     Subspace diagonalization in iterative solution of the eigenvalue problem:
     a serial algorithm will be used


     Parallelization info
     --------------------
     sticks:   dense  smooth     PW     G-vecs:    dense   smooth      PW
     Min          84      84     28                 1501     1501     288
     Max          85      85     29                 1503     1503     289
     Sum        1357    1357    449                24039    24039    4617

     Using Slab Decomposition



     bravais-lattice index     =            7
     lattice parameter (alat)  =      11.0200  a.u.
     unit-cell volume          =     365.0809 (a.u.)^3
     number of atoms/cell      =            2
     number of atomic types    =            1
     number of electrons       =        28.00
     number of Kohn-Sham states=           14
     kinetic-energy cutoff     =      62.0000  Ry
     charge density cutoff     =     248.0000  Ry
     scf convergence threshold =      1.0E-07
     mixing beta               =       0.7000
     number of iterations used =            8  plain     mixing
     Exchange-correlation=  SLA  PW   GGX  GGC
                           (   1   4   2   2   0   0   0)

     celldm(1)=  11.020000  celldm(2)=   0.000000  celldm(3)=   0.545600
     celldm(4)=   0.000000  celldm(5)=   0.000000  celldm(6)=   0.000000

     crystal axes: (cart. coord. in units of alat)
               a(1) = (   0.500000  -0.500000   0.272800 )  
               a(2) = (   0.500000   0.500000   0.272800 )  
               a(3) = (  -0.500000  -0.500000   0.272800 )  

     reciprocal axes: (cart. coord. in units 2 pi/alat)
               b(1) = (  1.000000 -1.000000  0.000000 )  
               b(2) = (  0.000000  1.000000  1.832845 )  
               b(3) = ( -1.000000  0.000000  1.832845 )  


     PseudoPot. # 1 for Sn read from file:
     ./Sn.pw91-n-van.UPF
     MD5 check sum: a38d2a872edd1a4efd76c0a1a38f7031
     Pseudo is Ultrasoft + core correction, Zval = 14.0
     Generated by new atomic code, or converted to UPF format
     Using radial grid of  891 points,  6 beta functions with: 
                l(1) =   0
                l(2) =   0
                l(3) =   1
                l(4) =   1
                l(5) =   2
                l(6) =   2
     Q(r) pseudized with  8 coefficients,  rinner =    1.100   1.100   1.100
                                                       1.100   1.100

     atomic species   valence    mass     pseudopotential
     Sn               14.00   118.70000     Sn( 1.00)

     16 Sym. Ops., with inversion, found (12 have fractional translation)



   Cartesian axes

     site n.     atom                  positions (alat units)
         1        Sn     tau(   1) = (   0.0000000  -0.2500000   0.0682000  )
         2        Sn     tau(   2) = (   0.0000000   0.2500000  -0.0682000  )

     number of k points=    13
                       cart. coord. in units 2pi/alat
        k(    1) = (   0.0000000   0.0000000   0.0000000), wk =   0.0312500
        k(    2) = (  -0.2500000   0.0000000   0.4582111), wk =   0.2500000
        k(    3) = (   0.5000000   0.0000000  -0.9164223), wk =   0.1250000
        k(    4) = (  -0.2500000   0.2500000   0.9164223), wk =   0.2500000
        k(    5) = (   0.5000000   0.2500000  -0.4582111), wk =   0.5000000
        k(    6) = (   0.2500000   0.2500000   0.0000000), wk =   0.1250000
        k(    7) = (   0.5000000  -0.5000000  -1.8328446), wk =   0.0625000
        k(    8) = (   0.0000000   0.0000000   0.9164223), wk =   0.0625000
        k(    9) = (   0.7500000   0.0000000  -0.4582111), wk =   0.2500000
        k(   10) = (   0.5000000   0.0000000   0.0000000), wk =   0.1250000
        k(   11) = (   0.7500000  -0.7500000  -1.8328446), wk =   0.1250000
        k(   12) = (   0.5000000  -0.5000000  -0.9164223), wk =   0.0625000
        k(   13) = (   0.0000000   0.0000000  -1.8328446), wk =   0.0312500

     Dense  grid:    24039 G-vectors     FFT dimensions: (  48,  48,  48)

     Estimated max dynamical RAM per process >       3.14 MB

     Estimated total dynamical RAM >     361.33 MB

     Initial potential from superposition of free atoms

     starting charge      27.9964, renormalised to      28.0000
     Starting wfcs are   18 randomized atomic wfcs

     total cpu time spent up to now is        0.8 secs

     per-process dynamical memory:    10.9 Mb

     Self-consistent Calculation

     iteration #  1     ecut=    62.00 Ry     beta= 0.70
     Davidson diagonalization with overlap
     ethr =  1.00E-02,  avg # of iterations =  1.8

     Threshold (ethr) on eigenvalues was too large:
     Diagonalizing with lowered threshold

     Davidson diagonalization with overlap
     ethr =  2.44E-05,  avg # of iterations =  3.9

     total cpu time spent up to now is        0.9 secs

     total energy              =    -325.56758372 Ry
     estimated scf accuracy    <       0.00695632 Ry

     iteration #  2     ecut=    62.00 Ry     beta= 0.70
     Davidson diagonalization with overlap
     ethr =  2.48E-05,  avg # of iterations =  2.0

     total cpu time spent up to now is        0.9 secs

     total energy              =    -325.56857324 Ry
     estimated scf accuracy    <       0.00056406 Ry

     iteration #  3     ecut=    62.00 Ry     beta= 0.70
     Davidson diagonalization with overlap
     ethr =  2.01E-06,  avg # of iterations =  2.0

     total cpu time spent up to now is        1.0 secs

     total energy              =    -325.56863560 Ry
     estimated scf accuracy    <       0.00004227 Ry

     iteration #  4     ecut=    62.00 Ry     beta= 0.70
     Davidson diagonalization with overlap
     ethr =  1.51E-07,  avg # of iterations =  2.9

     total cpu time spent up to now is        1.0 secs

     total energy              =    -325.56864261 Ry
     estimated scf accuracy    <       0.00000086 Ry

     iteration #  5     ecut=    62.00 Ry     beta= 0.70
     Davidson diagonalization with overlap
     ethr =  3.08E-09,  avg # of iterations =  3.8

     total cpu time spent up to now is        1.0 secs

     total energy              =    -325.56864290 Ry
     estimated scf accuracy    <       0.00000015 Ry

     iteration #  6     ecut=    62.00 Ry     beta= 0.70
     Davidson diagonalization with overlap
     ethr =  5.42E-10,  avg # of iterations =  2.2

     total cpu time spent up to now is        1.1 secs

     End of self-consistent calculation

          k = 0.0000 0.0000 0.0000 (  3035 PWs)   bands (ev):

   -10.8009 -10.7190 -10.6759 -10.6639 -10.5138 -10.5138 -10.5029 -10.5029
   -10.4114 -10.2978  -0.3463   7.1615   8.8407   8.8407

          k =-0.2500 0.0000 0.4582 (  3014 PWs)   bands (ev):

   -10.7651 -10.6385 -10.6331 -10.5920 -10.5697 -10.5284 -10.5199 -10.4967
   -10.4322 -10.3323   0.8919   6.5843   9.0452  11.2840

          k = 0.5000 0.0000-0.9164 (  2990 PWs)   bands (ev):

   -10.7259 -10.6558 -10.6396 -10.5995 -10.5660 -10.5628 -10.4644 -10.4164
   -10.4125 -10.3659   3.8539   5.3966   8.4882   9.1152

          k =-0.2500 0.2500 0.9164 (  3000 PWs)   bands (ev):

   -10.7399 -10.6527 -10.6093 -10.5927 -10.5906 -10.5399 -10.4808 -10.4619
   -10.3847 -10.3569   3.7394   6.0516   7.1246   9.1094

          k = 0.5000 0.2500-0.4582 (  3014 PWs)   bands (ev):

   -10.7086 -10.6495 -10.6459 -10.5921 -10.5752 -10.5177 -10.4843 -10.4763
   -10.4590 -10.3943   2.0043   4.1417   9.3967  10.6294

          k = 0.2500 0.2500 0.0000 (  3024 PWs)   bands (ev):

   -10.7510 -10.7258 -10.6905 -10.6341 -10.5404 -10.4932 -10.4913 -10.4833
   -10.4405 -10.3464   0.2184   4.5884   9.5074  10.5391

          k = 0.5000-0.5000-1.8328 (  3012 PWs)   bands (ev):

   -10.7222 -10.7222 -10.6340 -10.6340 -10.5408 -10.5408 -10.4690 -10.4690
   -10.4296 -10.4296   1.9014   1.9014  11.4195  11.4195

          k = 0.0000 0.0000 0.9164 (  3000 PWs)   bands (ev):

   -10.7311 -10.6246 -10.6246 -10.6054 -10.5598 -10.5598 -10.5350 -10.4428
   -10.3870 -10.3412   3.2962   7.1436   7.9741   9.4603

          k = 0.7500 0.0000-0.4582 (  2997 PWs)   bands (ev):

   -10.6957 -10.6536 -10.5912 -10.5823 -10.5477 -10.5308 -10.5198 -10.4836
   -10.4768 -10.4203   3.0233   4.3602   7.2635   8.4588

          k = 0.5000 0.0000 0.0000 (  3032 PWs)   bands (ev):

   -10.7374 -10.7081 -10.6958 -10.6025 -10.5179 -10.5101 -10.5064 -10.4632
   -10.4614 -10.3915   0.7809   4.3548   7.0815  10.7941

          k = 0.7500-0.7500-1.8328 (  3006 PWs)   bands (ev):

   -10.7285 -10.7285 -10.5961 -10.5961 -10.5329 -10.5329 -10.4834 -10.4834
   -10.4543 -10.4543   2.4057   2.4057   7.9932   7.9932

          k = 0.5000-0.5000-0.9164 (  3020 PWs)   bands (ev):

   -10.7044 -10.7044 -10.6342 -10.6342 -10.5272 -10.5272 -10.4328 -10.4328
   -10.4054 -10.4054   4.8063   4.8063   7.2826   7.2826

          k = 0.0000 0.0000-1.8328 (  3020 PWs)   bands (ev):

   -10.7314 -10.7314 -10.5324 -10.5324 -10.5226 -10.5226 -10.5109 -10.5109
   -10.4982 -10.4982   3.2432   3.2432   6.0138   6.0138

     highest occupied level (ev):    11.4195

!    total energy              =    -325.56864291 Ry
     estimated scf accuracy    <          2.8E-09 Ry

     The total energy is the sum of the following terms:
     one-electron contribution =    -107.30333983 Ry
     hartree contribution      =      74.47191008 Ry
     xc contribution           =     -95.22190994 Ry
     ewald contribution        =    -197.51530322 Ry

     convergence has been achieved in   6 iterations

     Writing all to output data dir ./beta-sn-scf/betatin.save/ :
     XML data file, charge density, pseudopotentials, collected wavefunctions

     init_run     :      0.45s CPU      0.49s WALL (       1 calls)
     electrons    :      0.26s CPU      0.32s WALL (       1 calls)

     Called by init_run:
     wfcinit      :      0.02s CPU      0.02s WALL (       1 calls)
     potinit      :      0.02s CPU      0.03s WALL (       1 calls)
     hinit0       :      0.38s CPU      0.39s WALL (       1 calls)

     Called by electrons:
     c_bands      :      0.15s CPU      0.18s WALL (       7 calls)
     sum_band     :      0.05s CPU      0.05s WALL (       7 calls)
     v_of_rho     :      0.04s CPU      0.05s WALL (       7 calls)
     newd         :      0.01s CPU      0.01s WALL (       7 calls)
     mix_rho      :      0.00s CPU      0.00s WALL (       7 calls)

     Called by c_bands:
     init_us_2    :      0.00s CPU      0.00s WALL (      30 calls)
     cegterg      :      0.14s CPU      0.16s WALL (      14 calls)

     Called by *egterg:
     cdiaghg      :      0.02s CPU      0.02s WALL (      59 calls)
     h_psi        :      0.12s CPU      0.13s WALL (      63 calls)
     s_psi        :      0.00s CPU      0.00s WALL (      63 calls)
     g_psi        :      0.00s CPU      0.00s WALL (      47 calls)

     Called by h_psi:
     h_psi:calbec :      0.00s CPU      0.01s WALL (      63 calls)
     vloc_psi     :      0.11s CPU      0.12s WALL (      63 calls)
     add_vuspsi   :      0.00s CPU      0.00s WALL (      63 calls)

     General routines
     calbec       :      0.01s CPU      0.01s WALL (      77 calls)
     fft          :      0.36s CPU      0.37s WALL (      78 calls)
     ffts         :      0.00s CPU      0.00s WALL (       7 calls)
     fftw         :      0.12s CPU      0.13s WALL (    1254 calls)

     Parallel routines

     PWSCF        :      0.94s CPU      1.18s WALL


   This run was terminated on:  15:50:49   5Feb2026            

=------------------------------------------------------------------------------=
   JOB DONE.
=------------------------------------------------------------------------------=
