
     Program PWSCF v.7.3.1 starts on  5Feb2026 at 15:50:56 

     This program is part of the open-source Quantum ESPRESSO suite
     for quantum simulation of materials; please cite
         "P. Giannozzi et al., J. Phys.:Condens. Matter 21 395502 (2009);
         "P. Giannozzi et al., J. Phys.:Condens. Matter 29 465901 (2017);
         "P. Giannozzi et al., J. Chem. Phys. 152 154105 (2020);
          URL http://www.quantum-espresso.org", 
     in publications or presentations arising from this work. More details at
     http://www.quantum-espresso.org/quote

     Parallel version (MPI), running on   128 processors

     MPI processes distributed on     1 nodes
     242350 MiB available memory on the printing compute node when the environment starts

     Waiting for input...
     Reading input from standard input

     Current dimensions of program PWSCF are:
     Max number of different atomic species (ntypx) = 10
     Max number of k-points (npk) =  40000
     Max angular momentum in pseudopotentials (lmaxx) =  4

     K-points division:     npool     =       8
     R & G space division:  proc/nbgrp/npool/nimage =      16
     Subspace diagonalization in iterative solution of the eigenvalue problem:
     a serial algorithm will be used


     Parallelization info
     --------------------
     sticks:   dense  smooth     PW     G-vecs:    dense   smooth      PW
     Min          87      87     29                 1573     1573     300
     Max          88      88     30                 1575     1575     302
     Sum        1407    1407    467                25187    25187    4805

     Using Slab Decomposition



     bravais-lattice index     =            7
     lattice parameter (alat)  =      11.0200  a.u.
     unit-cell volume          =     365.0809 (a.u.)^3
     number of atoms/cell      =            2
     number of atomic types    =            1
     number of electrons       =        28.00
     number of Kohn-Sham states=           14
     kinetic-energy cutoff     =      64.0000  Ry
     charge density cutoff     =     256.0000  Ry
     scf convergence threshold =      1.0E-07
     mixing beta               =       0.7000
     number of iterations used =            8  plain     mixing
     Exchange-correlation=  SLA  PW   GGX  GGC
                           (   1   4   2   2   0   0   0)

     celldm(1)=  11.020000  celldm(2)=   0.000000  celldm(3)=   0.545600
     celldm(4)=   0.000000  celldm(5)=   0.000000  celldm(6)=   0.000000

     crystal axes: (cart. coord. in units of alat)
               a(1) = (   0.500000  -0.500000   0.272800 )  
               a(2) = (   0.500000   0.500000   0.272800 )  
               a(3) = (  -0.500000  -0.500000   0.272800 )  

     reciprocal axes: (cart. coord. in units 2 pi/alat)
               b(1) = (  1.000000 -1.000000  0.000000 )  
               b(2) = (  0.000000  1.000000  1.832845 )  
               b(3) = ( -1.000000  0.000000  1.832845 )  


     PseudoPot. # 1 for Sn read from file:
     ./Sn.pw91-n-van.UPF
     MD5 check sum: a38d2a872edd1a4efd76c0a1a38f7031
     Pseudo is Ultrasoft + core correction, Zval = 14.0
     Generated by new atomic code, or converted to UPF format
     Using radial grid of  891 points,  6 beta functions with: 
                l(1) =   0
                l(2) =   0
                l(3) =   1
                l(4) =   1
                l(5) =   2
                l(6) =   2
     Q(r) pseudized with  8 coefficients,  rinner =    1.100   1.100   1.100
                                                       1.100   1.100

     atomic species   valence    mass     pseudopotential
     Sn               14.00   118.70000     Sn( 1.00)

     16 Sym. Ops., with inversion, found (12 have fractional translation)



   Cartesian axes

     site n.     atom                  positions (alat units)
         1        Sn     tau(   1) = (   0.0000000  -0.2500000   0.0682000  )
         2        Sn     tau(   2) = (   0.0000000   0.2500000  -0.0682000  )

     number of k points=    13
                       cart. coord. in units 2pi/alat
        k(    1) = (   0.0000000   0.0000000   0.0000000), wk =   0.0312500
        k(    2) = (  -0.2500000   0.0000000   0.4582111), wk =   0.2500000
        k(    3) = (   0.5000000   0.0000000  -0.9164223), wk =   0.1250000
        k(    4) = (  -0.2500000   0.2500000   0.9164223), wk =   0.2500000
        k(    5) = (   0.5000000   0.2500000  -0.4582111), wk =   0.5000000
        k(    6) = (   0.2500000   0.2500000   0.0000000), wk =   0.1250000
        k(    7) = (   0.5000000  -0.5000000  -1.8328446), wk =   0.0625000
        k(    8) = (   0.0000000   0.0000000   0.9164223), wk =   0.0625000
        k(    9) = (   0.7500000   0.0000000  -0.4582111), wk =   0.2500000
        k(   10) = (   0.5000000   0.0000000   0.0000000), wk =   0.1250000
        k(   11) = (   0.7500000  -0.7500000  -1.8328446), wk =   0.1250000
        k(   12) = (   0.5000000  -0.5000000  -0.9164223), wk =   0.0625000
        k(   13) = (   0.0000000   0.0000000  -1.8328446), wk =   0.0312500

     Dense  grid:    25187 G-vectors     FFT dimensions: (  48,  48,  48)

     Estimated max dynamical RAM per process >       3.23 MB

     Estimated total dynamical RAM >     370.63 MB

     Initial potential from superposition of free atoms

     starting charge      27.9964, renormalised to      28.0000
     Starting wfcs are   18 randomized atomic wfcs

     total cpu time spent up to now is        0.8 secs

     per-process dynamical memory:    10.8 Mb

     Self-consistent Calculation

     iteration #  1     ecut=    64.00 Ry     beta= 0.70
     Davidson diagonalization with overlap
     ethr =  1.00E-02,  avg # of iterations =  1.8

     Threshold (ethr) on eigenvalues was too large:
     Diagonalizing with lowered threshold

     Davidson diagonalization with overlap
     ethr =  2.43E-05,  avg # of iterations =  3.8

     total cpu time spent up to now is        0.9 secs

     total energy              =    -325.56814723 Ry
     estimated scf accuracy    <       0.00694336 Ry

     iteration #  2     ecut=    64.00 Ry     beta= 0.70
     Davidson diagonalization with overlap
     ethr =  2.48E-05,  avg # of iterations =  2.0

     total cpu time spent up to now is        0.9 secs

     total energy              =    -325.56912971 Ry
     estimated scf accuracy    <       0.00056263 Ry

     iteration #  3     ecut=    64.00 Ry     beta= 0.70
     Davidson diagonalization with overlap
     ethr =  2.01E-06,  avg # of iterations =  2.0

     total cpu time spent up to now is        1.0 secs

     total energy              =    -325.56919078 Ry
     estimated scf accuracy    <       0.00004234 Ry

     iteration #  4     ecut=    64.00 Ry     beta= 0.70
     Davidson diagonalization with overlap
     ethr =  1.51E-07,  avg # of iterations =  3.0

     total cpu time spent up to now is        1.0 secs

     total energy              =    -325.56919860 Ry
     estimated scf accuracy    <       0.00000103 Ry

     iteration #  5     ecut=    64.00 Ry     beta= 0.70
     Davidson diagonalization with overlap
     ethr =  3.68E-09,  avg # of iterations =  3.5

     total cpu time spent up to now is        1.1 secs

     total energy              =    -325.56919894 Ry
     estimated scf accuracy    <       0.00000021 Ry

     iteration #  6     ecut=    64.00 Ry     beta= 0.70
     Davidson diagonalization with overlap
     ethr =  7.40E-10,  avg # of iterations =  2.5

     total cpu time spent up to now is        1.1 secs

     End of self-consistent calculation

          k = 0.0000 0.0000 0.0000 (  3151 PWs)   bands (ev):

   -10.8018 -10.7198 -10.6763 -10.6646 -10.5142 -10.5142 -10.5032 -10.5032
   -10.4115 -10.2986  -0.3467   7.1614   8.8403   8.8403

          k =-0.2500 0.0000 0.4582 (  3172 PWs)   bands (ev):

   -10.7661 -10.6389 -10.6339 -10.5927 -10.5703 -10.5290 -10.5205 -10.4974
   -10.4325 -10.3332   0.8916   6.5842   9.0448  11.2837

          k = 0.5000 0.0000-0.9164 (  3148 PWs)   bands (ev):

   -10.7267 -10.6566 -10.6401 -10.6002 -10.5665 -10.5634 -10.4648 -10.4171
   -10.4134 -10.3667   3.8537   5.3963   8.4879   9.1149

          k =-0.2500 0.2500 0.9164 (  3152 PWs)   bands (ev):

   -10.7408 -10.6532 -10.6100 -10.5931 -10.5911 -10.5404 -10.4815 -10.4624
   -10.3855 -10.3577   3.7391   6.0514   7.1241   9.1090

          k = 0.5000 0.2500-0.4582 (  3156 PWs)   bands (ev):

   -10.7095 -10.6502 -10.6466 -10.5926 -10.5756 -10.5183 -10.4847 -10.4769
   -10.4596 -10.3951   2.0040   4.1415   9.3963  10.6290

          k = 0.2500 0.2500 0.0000 (  3162 PWs)   bands (ev):

   -10.7520 -10.7265 -10.6913 -10.6344 -10.5409 -10.4937 -10.4919 -10.4840
   -10.4407 -10.3472   0.2180   4.5882   9.5070  10.5386

          k = 0.5000-0.5000-1.8328 (  3168 PWs)   bands (ev):

   -10.7229 -10.7229 -10.6348 -10.6348 -10.5412 -10.5412 -10.4697 -10.4697
   -10.4303 -10.4303   1.9011   1.9011  11.4192  11.4192

          k = 0.0000 0.0000 0.9164 (  3144 PWs)   bands (ev):

   -10.7322 -10.6249 -10.6249 -10.6056 -10.5605 -10.5605 -10.5361 -10.4431
   -10.3879 -10.3420   3.2959   7.1435   7.9737   9.4598

          k = 0.7500 0.0000-0.4582 (  3151 PWs)   bands (ev):

   -10.6966 -10.6544 -10.5919 -10.5827 -10.5482 -10.5315 -10.5205 -10.4840
   -10.4774 -10.4211   3.0230   4.3601   7.2629   8.4583

          k = 0.5000 0.0000 0.0000 (  3172 PWs)   bands (ev):

   -10.7382 -10.7088 -10.6966 -10.6029 -10.5184 -10.5104 -10.5069 -10.4638
   -10.4618 -10.3922   0.7805   4.3546   7.0809  10.7936

          k = 0.7500-0.7500-1.8328 (  3156 PWs)   bands (ev):

   -10.7294 -10.7294 -10.5970 -10.5970 -10.5334 -10.5334 -10.4838 -10.4838
   -10.4549 -10.4549   2.4054   2.4054   7.9927   7.9927

          k = 0.5000-0.5000-0.9164 (  3152 PWs)   bands (ev):

   -10.7050 -10.7050 -10.6347 -10.6347 -10.5274 -10.5274 -10.4334 -10.4334
   -10.4063 -10.4063   4.8062   4.8062   7.2821   7.2821

          k = 0.0000 0.0000-1.8328 (  3108 PWs)   bands (ev):

   -10.7319 -10.7319 -10.5329 -10.5329 -10.5229 -10.5229 -10.5111 -10.5111
   -10.4987 -10.4987   3.2431   3.2431   6.0131   6.0131

     highest occupied level (ev):    11.4192

!    total energy              =    -325.56919896 Ry
     estimated scf accuracy    <          2.4E-09 Ry

     The total energy is the sum of the following terms:
     one-electron contribution =    -107.30366049 Ry
     hartree contribution      =      74.47131697 Ry
     xc contribution           =     -95.22155223 Ry
     ewald contribution        =    -197.51530321 Ry

     convergence has been achieved in   6 iterations

     Writing all to output data dir ./beta-sn-scf/betatin.save/ :
     XML data file, charge density, pseudopotentials, collected wavefunctions

     init_run     :      0.44s CPU      0.49s WALL (       1 calls)
     electrons    :      0.27s CPU      0.32s WALL (       1 calls)

     Called by init_run:
     wfcinit      :      0.02s CPU      0.03s WALL (       1 calls)
     potinit      :      0.01s CPU      0.03s WALL (       1 calls)
     hinit0       :      0.38s CPU      0.39s WALL (       1 calls)

     Called by electrons:
     c_bands      :      0.17s CPU      0.18s WALL (       7 calls)
     sum_band     :      0.04s CPU      0.05s WALL (       7 calls)
     v_of_rho     :      0.03s CPU      0.05s WALL (       7 calls)
     newd         :      0.01s CPU      0.01s WALL (       7 calls)
     mix_rho      :      0.00s CPU      0.00s WALL (       7 calls)

     Called by c_bands:
     init_us_2    :      0.00s CPU      0.00s WALL (      30 calls)
     cegterg      :      0.15s CPU      0.15s WALL (      14 calls)

     Called by *egterg:
     cdiaghg      :      0.02s CPU      0.02s WALL (      61 calls)
     h_psi        :      0.14s CPU      0.14s WALL (      65 calls)
     s_psi        :      0.00s CPU      0.00s WALL (      65 calls)
     g_psi        :      0.00s CPU      0.00s WALL (      49 calls)

     Called by h_psi:
     h_psi:calbec :      0.01s CPU      0.01s WALL (      65 calls)
     vloc_psi     :      0.13s CPU      0.13s WALL (      65 calls)
     add_vuspsi   :      0.00s CPU      0.00s WALL (      65 calls)

     General routines
     calbec       :      0.01s CPU      0.01s WALL (      79 calls)
     fft          :      0.36s CPU      0.37s WALL (      78 calls)
     ffts         :      0.00s CPU      0.00s WALL (       7 calls)
     fftw         :      0.13s CPU      0.14s WALL (    1256 calls)

     Parallel routines

     PWSCF        :      0.95s CPU      1.20s WALL


   This run was terminated on:  15:50:57   5Feb2026            

=------------------------------------------------------------------------------=
   JOB DONE.
=------------------------------------------------------------------------------=
