
     Program PWSCF v.7.3.1 starts on  5Feb2026 at 15:51: 4 

     This program is part of the open-source Quantum ESPRESSO suite
     for quantum simulation of materials; please cite
         "P. Giannozzi et al., J. Phys.:Condens. Matter 21 395502 (2009);
         "P. Giannozzi et al., J. Phys.:Condens. Matter 29 465901 (2017);
         "P. Giannozzi et al., J. Chem. Phys. 152 154105 (2020);
          URL http://www.quantum-espresso.org", 
     in publications or presentations arising from this work. More details at
     http://www.quantum-espresso.org/quote

     Parallel version (MPI), running on   128 processors

     MPI processes distributed on     1 nodes
     242331 MiB available memory on the printing compute node when the environment starts

     Waiting for input...
     Reading input from standard input

     Current dimensions of program PWSCF are:
     Max number of different atomic species (ntypx) = 10
     Max number of k-points (npk) =  40000
     Max angular momentum in pseudopotentials (lmaxx) =  4

     K-points division:     npool     =       8
     R & G space division:  proc/nbgrp/npool/nimage =      16
     Subspace diagonalization in iterative solution of the eigenvalue problem:
     a serial algorithm will be used


     Parallelization info
     --------------------
     sticks:   dense  smooth     PW     G-vecs:    dense   smooth      PW
     Min          90      90     30                 1654     1654     313
     Max          91      91     31                 1657     1657     314
     Sum        1453    1453    483                26487    26487    5013

     Using Slab Decomposition



     bravais-lattice index     =            7
     lattice parameter (alat)  =      11.0200  a.u.
     unit-cell volume          =     365.0809 (a.u.)^3
     number of atoms/cell      =            2
     number of atomic types    =            1
     number of electrons       =        28.00
     number of Kohn-Sham states=           14
     kinetic-energy cutoff     =      66.0000  Ry
     charge density cutoff     =     264.0000  Ry
     scf convergence threshold =      1.0E-07
     mixing beta               =       0.7000
     number of iterations used =            8  plain     mixing
     Exchange-correlation=  SLA  PW   GGX  GGC
                           (   1   4   2   2   0   0   0)

     celldm(1)=  11.020000  celldm(2)=   0.000000  celldm(3)=   0.545600
     celldm(4)=   0.000000  celldm(5)=   0.000000  celldm(6)=   0.000000

     crystal axes: (cart. coord. in units of alat)
               a(1) = (   0.500000  -0.500000   0.272800 )  
               a(2) = (   0.500000   0.500000   0.272800 )  
               a(3) = (  -0.500000  -0.500000   0.272800 )  

     reciprocal axes: (cart. coord. in units 2 pi/alat)
               b(1) = (  1.000000 -1.000000  0.000000 )  
               b(2) = (  0.000000  1.000000  1.832845 )  
               b(3) = ( -1.000000  0.000000  1.832845 )  


     PseudoPot. # 1 for Sn read from file:
     ./Sn.pw91-n-van.UPF
     MD5 check sum: a38d2a872edd1a4efd76c0a1a38f7031
     Pseudo is Ultrasoft + core correction, Zval = 14.0
     Generated by new atomic code, or converted to UPF format
     Using radial grid of  891 points,  6 beta functions with: 
                l(1) =   0
                l(2) =   0
                l(3) =   1
                l(4) =   1
                l(5) =   2
                l(6) =   2
     Q(r) pseudized with  8 coefficients,  rinner =    1.100   1.100   1.100
                                                       1.100   1.100

     atomic species   valence    mass     pseudopotential
     Sn               14.00   118.70000     Sn( 1.00)

     16 Sym. Ops., with inversion, found (12 have fractional translation)



   Cartesian axes

     site n.     atom                  positions (alat units)
         1        Sn     tau(   1) = (   0.0000000  -0.2500000   0.0682000  )
         2        Sn     tau(   2) = (   0.0000000   0.2500000  -0.0682000  )

     number of k points=    13
                       cart. coord. in units 2pi/alat
        k(    1) = (   0.0000000   0.0000000   0.0000000), wk =   0.0312500
        k(    2) = (  -0.2500000   0.0000000   0.4582111), wk =   0.2500000
        k(    3) = (   0.5000000   0.0000000  -0.9164223), wk =   0.1250000
        k(    4) = (  -0.2500000   0.2500000   0.9164223), wk =   0.2500000
        k(    5) = (   0.5000000   0.2500000  -0.4582111), wk =   0.5000000
        k(    6) = (   0.2500000   0.2500000   0.0000000), wk =   0.1250000
        k(    7) = (   0.5000000  -0.5000000  -1.8328446), wk =   0.0625000
        k(    8) = (   0.0000000   0.0000000   0.9164223), wk =   0.0625000
        k(    9) = (   0.7500000   0.0000000  -0.4582111), wk =   0.2500000
        k(   10) = (   0.5000000   0.0000000   0.0000000), wk =   0.1250000
        k(   11) = (   0.7500000  -0.7500000  -1.8328446), wk =   0.1250000
        k(   12) = (   0.5000000  -0.5000000  -0.9164223), wk =   0.0625000
        k(   13) = (   0.0000000   0.0000000  -1.8328446), wk =   0.0312500

     Dense  grid:    26487 G-vectors     FFT dimensions: (  48,  48,  48)

     Estimated max dynamical RAM per process >       3.33 MB

     Estimated total dynamical RAM >     380.76 MB

     Initial potential from superposition of free atoms

     starting charge      27.9964, renormalised to      28.0000
     Starting wfcs are   18 randomized atomic wfcs

     total cpu time spent up to now is        0.8 secs

     per-process dynamical memory:    11.0 Mb

     Self-consistent Calculation

     iteration #  1     ecut=    66.00 Ry     beta= 0.70
     Davidson diagonalization with overlap
     ethr =  1.00E-02,  avg # of iterations =  1.8

     Threshold (ethr) on eigenvalues was too large:
     Diagonalizing with lowered threshold

     Davidson diagonalization with overlap
     ethr =  2.43E-05,  avg # of iterations =  3.9

     total cpu time spent up to now is        0.9 secs

     total energy              =    -325.56842179 Ry
     estimated scf accuracy    <       0.00695535 Ry

     iteration #  2     ecut=    66.00 Ry     beta= 0.70
     Davidson diagonalization with overlap
     ethr =  2.48E-05,  avg # of iterations =  2.0

     total cpu time spent up to now is        0.9 secs

     total energy              =    -325.56940410 Ry
     estimated scf accuracy    <       0.00056263 Ry

     iteration #  3     ecut=    66.00 Ry     beta= 0.70
     Davidson diagonalization with overlap
     ethr =  2.01E-06,  avg # of iterations =  2.3

     total cpu time spent up to now is        0.9 secs

     total energy              =    -325.56947223 Ry
     estimated scf accuracy    <       0.00004372 Ry

     iteration #  4     ecut=    66.00 Ry     beta= 0.70
     Davidson diagonalization with overlap
     ethr =  1.56E-07,  avg # of iterations =  2.9

     total cpu time spent up to now is        1.0 secs

     total energy              =    -325.56947785 Ry
     estimated scf accuracy    <       0.00000045 Ry

     iteration #  5     ecut=    66.00 Ry     beta= 0.70
     Davidson diagonalization with overlap
     ethr =  1.62E-09,  avg # of iterations =  3.7

     total cpu time spent up to now is        1.0 secs

     End of self-consistent calculation

          k = 0.0000 0.0000 0.0000 (  3331 PWs)   bands (ev):

   -10.8031 -10.7204 -10.6770 -10.6652 -10.5151 -10.5151 -10.5041 -10.5041
   -10.4121 -10.2996  -0.3470   7.1613   8.8399   8.8399

          k =-0.2500 0.0000 0.4582 (  3298 PWs)   bands (ev):

   -10.7672 -10.6396 -10.6345 -10.5934 -10.5710 -10.5296 -10.5212 -10.4981
   -10.4332 -10.3341   0.8912   6.5840   9.0443  11.2835

          k = 0.5000 0.0000-0.9164 (  3308 PWs)   bands (ev):

   -10.7279 -10.6574 -10.6407 -10.6011 -10.5672 -10.5642 -10.4656 -10.4180
   -10.4142 -10.3676   3.8534   5.3959   8.4877   9.1147

          k =-0.2500 0.2500 0.9164 (  3305 PWs)   bands (ev):

   -10.7417 -10.6540 -10.6108 -10.5938 -10.5919 -10.5413 -10.4823 -10.4631
   -10.3864 -10.3586   3.7388   6.0511   7.1237   9.1087

          k = 0.5000 0.2500-0.4582 (  3298 PWs)   bands (ev):

   -10.7104 -10.6510 -10.6473 -10.5934 -10.5764 -10.5190 -10.4855 -10.4776
   -10.4604 -10.3959   2.0036   4.1412   9.3958  10.6286

          k = 0.2500 0.2500 0.0000 (  3300 PWs)   bands (ev):

   -10.7531 -10.7272 -10.6920 -10.6351 -10.5417 -10.4944 -10.4926 -10.4846
   -10.4415 -10.3482   0.2176   4.5879   9.5066  10.5382

          k = 0.5000-0.5000-1.8328 (  3312 PWs)   bands (ev):

   -10.7237 -10.7237 -10.6357 -10.6357 -10.5419 -10.5419 -10.4703 -10.4703
   -10.4311 -10.4311   1.9008   1.9008  11.4188  11.4188

          k = 0.0000 0.0000 0.9164 (  3316 PWs)   bands (ev):

   -10.7333 -10.6257 -10.6257 -10.6064 -10.5612 -10.5612 -10.5370 -10.4439
   -10.3888 -10.3430   3.2956   7.1432   7.9735   9.4593

          k = 0.7500 0.0000-0.4582 (  3317 PWs)   bands (ev):

   -10.6976 -10.6553 -10.5927 -10.5835 -10.5490 -10.5322 -10.5212 -10.4848
   -10.4783 -10.4220   3.0227   4.3599   7.2623   8.4578

          k = 0.5000 0.0000 0.0000 (  3310 PWs)   bands (ev):

   -10.7391 -10.7095 -10.6975 -10.6035 -10.5192 -10.5112 -10.5075 -10.4646
   -10.4625 -10.3932   0.7802   4.3544   7.0804  10.7931

          k = 0.7500-0.7500-1.8328 (  3298 PWs)   bands (ev):

   -10.7301 -10.7301 -10.5978 -10.5978 -10.5341 -10.5341 -10.4846 -10.4846
   -10.4557 -10.4557   2.4051   2.4051   7.9922   7.9922

          k = 0.5000-0.5000-0.9164 (  3292 PWs)   bands (ev):

   -10.7060 -10.7060 -10.6355 -10.6355 -10.5281 -10.5281 -10.4342 -10.4342
   -10.4070 -10.4070   4.8059   4.8059   7.2817   7.2817

          k = 0.0000 0.0000-1.8328 (  3300 PWs)   bands (ev):

   -10.7329 -10.7329 -10.5340 -10.5340 -10.5238 -10.5238 -10.5120 -10.5120
   -10.4994 -10.4994   3.2428   3.2428   6.0125   6.0125

     highest occupied level (ev):    11.4188

!    total energy              =    -325.56947807 Ry
     estimated scf accuracy    <       0.00000002 Ry

     The total energy is the sum of the following terms:
     one-electron contribution =    -107.30395480 Ry
     hartree contribution      =      74.47106791 Ry
     xc contribution           =     -95.22128799 Ry
     ewald contribution        =    -197.51530320 Ry

     convergence has been achieved in   5 iterations

     Writing all to output data dir ./beta-sn-scf/betatin.save/ :
     XML data file, charge density, pseudopotentials, collected wavefunctions

     init_run     :      0.43s CPU      0.48s WALL (       1 calls)
     electrons    :      0.23s CPU      0.54s WALL (       1 calls)

     Called by init_run:
     wfcinit      :      0.02s CPU      0.03s WALL (       1 calls)
     potinit      :      0.02s CPU      0.02s WALL (       1 calls)
     hinit0       :      0.38s CPU      0.39s WALL (       1 calls)

     Called by electrons:
     c_bands      :      0.13s CPU      0.16s WALL (       6 calls)
     sum_band     :      0.04s CPU      0.05s WALL (       6 calls)
     v_of_rho     :      0.03s CPU      0.04s WALL (       6 calls)
     newd         :      0.01s CPU      0.01s WALL (       6 calls)
     mix_rho      :      0.00s CPU      0.00s WALL (       6 calls)

     Called by c_bands:
     init_us_2    :      0.00s CPU      0.00s WALL (      26 calls)
     cegterg      :      0.12s CPU      0.13s WALL (      12 calls)

     Called by *egterg:
     cdiaghg      :      0.01s CPU      0.02s WALL (      50 calls)
     h_psi        :      0.10s CPU      0.12s WALL (      54 calls)
     s_psi        :      0.00s CPU      0.00s WALL (      54 calls)
     g_psi        :      0.00s CPU      0.00s WALL (      40 calls)

     Called by h_psi:
     h_psi:calbec :      0.00s CPU      0.01s WALL (      54 calls)
     vloc_psi     :      0.10s CPU      0.11s WALL (      54 calls)
     add_vuspsi   :      0.00s CPU      0.00s WALL (      54 calls)

     General routines
     calbec       :      0.00s CPU      0.01s WALL (      66 calls)
     fft          :      0.36s CPU      0.37s WALL (      67 calls)
     ffts         :      0.00s CPU      0.00s WALL (       6 calls)
     fftw         :      0.10s CPU      0.12s WALL (    1090 calls)

     Parallel routines

     PWSCF        :      3.10s CPU      3.61s WALL


   This run was terminated on:  15:51: 7   5Feb2026            

=------------------------------------------------------------------------------=
   JOB DONE.
=------------------------------------------------------------------------------=
