
     Program PWSCF v.7.3.1 starts on  5Feb2026 at 15:51:16 

     This program is part of the open-source Quantum ESPRESSO suite
     for quantum simulation of materials; please cite
         "P. Giannozzi et al., J. Phys.:Condens. Matter 21 395502 (2009);
         "P. Giannozzi et al., J. Phys.:Condens. Matter 29 465901 (2017);
         "P. Giannozzi et al., J. Chem. Phys. 152 154105 (2020);
          URL http://www.quantum-espresso.org", 
     in publications or presentations arising from this work. More details at
     http://www.quantum-espresso.org/quote

     Parallel version (MPI), running on   128 processors

     MPI processes distributed on     1 nodes
     242506 MiB available memory on the printing compute node when the environment starts

     Waiting for input...
     Reading input from standard input

     Current dimensions of program PWSCF are:
     Max number of different atomic species (ntypx) = 10
     Max number of k-points (npk) =  40000
     Max angular momentum in pseudopotentials (lmaxx) =  4

     K-points division:     npool     =       8
     R & G space division:  proc/nbgrp/npool/nimage =      16
     Subspace diagonalization in iterative solution of the eigenvalue problem:
     a serial algorithm will be used


     Parallelization info
     --------------------
     sticks:   dense  smooth     PW     G-vecs:    dense   smooth      PW
     Min          92      92     30                 1724     1724     326
     Max          93      93     31                 1727     1727     328
     Sum        1485    1485    495                27615    27615    5237

     Using Slab Decomposition



     bravais-lattice index     =            7
     lattice parameter (alat)  =      11.0200  a.u.
     unit-cell volume          =     365.0809 (a.u.)^3
     number of atoms/cell      =            2
     number of atomic types    =            1
     number of electrons       =        28.00
     number of Kohn-Sham states=           14
     kinetic-energy cutoff     =      68.0000  Ry
     charge density cutoff     =     272.0000  Ry
     scf convergence threshold =      1.0E-07
     mixing beta               =       0.7000
     number of iterations used =            8  plain     mixing
     Exchange-correlation=  SLA  PW   GGX  GGC
                           (   1   4   2   2   0   0   0)

     celldm(1)=  11.020000  celldm(2)=   0.000000  celldm(3)=   0.545600
     celldm(4)=   0.000000  celldm(5)=   0.000000  celldm(6)=   0.000000

     crystal axes: (cart. coord. in units of alat)
               a(1) = (   0.500000  -0.500000   0.272800 )  
               a(2) = (   0.500000   0.500000   0.272800 )  
               a(3) = (  -0.500000  -0.500000   0.272800 )  

     reciprocal axes: (cart. coord. in units 2 pi/alat)
               b(1) = (  1.000000 -1.000000  0.000000 )  
               b(2) = (  0.000000  1.000000  1.832845 )  
               b(3) = ( -1.000000  0.000000  1.832845 )  


     PseudoPot. # 1 for Sn read from file:
     ./Sn.pw91-n-van.UPF
     MD5 check sum: a38d2a872edd1a4efd76c0a1a38f7031
     Pseudo is Ultrasoft + core correction, Zval = 14.0
     Generated by new atomic code, or converted to UPF format
     Using radial grid of  891 points,  6 beta functions with: 
                l(1) =   0
                l(2) =   0
                l(3) =   1
                l(4) =   1
                l(5) =   2
                l(6) =   2
     Q(r) pseudized with  8 coefficients,  rinner =    1.100   1.100   1.100
                                                       1.100   1.100

     atomic species   valence    mass     pseudopotential
     Sn               14.00   118.70000     Sn( 1.00)

     16 Sym. Ops., with inversion, found (12 have fractional translation)



   Cartesian axes

     site n.     atom                  positions (alat units)
         1        Sn     tau(   1) = (   0.0000000  -0.2500000   0.0682000  )
         2        Sn     tau(   2) = (   0.0000000   0.2500000  -0.0682000  )

     number of k points=    13
                       cart. coord. in units 2pi/alat
        k(    1) = (   0.0000000   0.0000000   0.0000000), wk =   0.0312500
        k(    2) = (  -0.2500000   0.0000000   0.4582111), wk =   0.2500000
        k(    3) = (   0.5000000   0.0000000  -0.9164223), wk =   0.1250000
        k(    4) = (  -0.2500000   0.2500000   0.9164223), wk =   0.2500000
        k(    5) = (   0.5000000   0.2500000  -0.4582111), wk =   0.5000000
        k(    6) = (   0.2500000   0.2500000   0.0000000), wk =   0.1250000
        k(    7) = (   0.5000000  -0.5000000  -1.8328446), wk =   0.0625000
        k(    8) = (   0.0000000   0.0000000   0.9164223), wk =   0.0625000
        k(    9) = (   0.7500000   0.0000000  -0.4582111), wk =   0.2500000
        k(   10) = (   0.5000000   0.0000000   0.0000000), wk =   0.1250000
        k(   11) = (   0.7500000  -0.7500000  -1.8328446), wk =   0.1250000
        k(   12) = (   0.5000000  -0.5000000  -0.9164223), wk =   0.0625000
        k(   13) = (   0.0000000   0.0000000  -1.8328446), wk =   0.0312500

     Dense  grid:    27615 G-vectors     FFT dimensions: (  48,  48,  48)

     Estimated max dynamical RAM per process >       3.41 MB

     Estimated total dynamical RAM >     389.74 MB

     Initial potential from superposition of free atoms

     starting charge      27.9964, renormalised to      28.0000
     Starting wfcs are   18 randomized atomic wfcs

     total cpu time spent up to now is        0.8 secs

     per-process dynamical memory:    11.0 Mb

     Self-consistent Calculation

     iteration #  1     ecut=    68.00 Ry     beta= 0.70
     Davidson diagonalization with overlap
     ethr =  1.00E-02,  avg # of iterations =  1.8

     Threshold (ethr) on eigenvalues was too large:
     Diagonalizing with lowered threshold

     Davidson diagonalization with overlap
     ethr =  2.42E-05,  avg # of iterations =  3.8

     total cpu time spent up to now is        0.9 secs

     total energy              =    -325.56858290 Ry
     estimated scf accuracy    <       0.00694923 Ry

     iteration #  2     ecut=    68.00 Ry     beta= 0.70
     Davidson diagonalization with overlap
     ethr =  2.48E-05,  avg # of iterations =  2.0

     total cpu time spent up to now is        0.9 secs

     total energy              =    -325.56955664 Ry
     estimated scf accuracy    <       0.00056183 Ry

     iteration #  3     ecut=    68.00 Ry     beta= 0.70
     Davidson diagonalization with overlap
     ethr =  2.01E-06,  avg # of iterations =  2.4

     total cpu time spent up to now is        1.0 secs

     total energy              =    -325.56962432 Ry
     estimated scf accuracy    <       0.00004417 Ry

     iteration #  4     ecut=    68.00 Ry     beta= 0.70
     Davidson diagonalization with overlap
     ethr =  1.58E-07,  avg # of iterations =  2.8

     total cpu time spent up to now is        1.0 secs

     total energy              =    -325.56962929 Ry
     estimated scf accuracy    <       0.00000021 Ry

     iteration #  5     ecut=    68.00 Ry     beta= 0.70
     Davidson diagonalization with overlap
     ethr =  7.48E-10,  avg # of iterations =  4.0

     total cpu time spent up to now is        1.0 secs

     End of self-consistent calculation

          k = 0.0000 0.0000 0.0000 (  3459 PWs)   bands (ev):

   -10.8032 -10.7206 -10.6768 -10.6654 -10.5152 -10.5152 -10.5042 -10.5042
   -10.4120 -10.2997  -0.3472   7.1613   8.8398   8.8398

          k =-0.2500 0.0000 0.4582 (  3446 PWs)   bands (ev):

   -10.7673 -10.6395 -10.6348 -10.5935 -10.5711 -10.5298 -10.5213 -10.4983
   -10.4330 -10.3342   0.8911   6.5839   9.0442  11.2833

          k = 0.5000 0.0000-0.9164 (  3450 PWs)   bands (ev):

   -10.7280 -10.6575 -10.6408 -10.6013 -10.5672 -10.5643 -10.4654 -10.4182
   -10.4144 -10.3678   3.8534   5.3958   8.4875   9.1144

          k =-0.2500 0.2500 0.9164 (  3461 PWs)   bands (ev):

   -10.7419 -10.6542 -10.6109 -10.5938 -10.5920 -10.5414 -10.4825 -10.4631
   -10.3866 -10.3587   3.7388   6.0511   7.1234   9.1085

          k = 0.5000 0.2500-0.4582 (  3453 PWs)   bands (ev):

   -10.7106 -10.6511 -10.6475 -10.5935 -10.5763 -10.5191 -10.4854 -10.4778
   -10.4606 -10.3960   2.0035   4.1411   9.3958  10.6284

          k = 0.2500 0.2500 0.0000 (  3462 PWs)   bands (ev):

   -10.7532 -10.7275 -10.6922 -10.6350 -10.5419 -10.4945 -10.4927 -10.4848
   -10.4414 -10.3483   0.2175   4.5878   9.5065  10.5381

          k = 0.5000-0.5000-1.8328 (  3444 PWs)   bands (ev):

   -10.7239 -10.7239 -10.6358 -10.6358 -10.5418 -10.5418 -10.4705 -10.4705
   -10.4312 -10.4312   1.9007   1.9007  11.4187  11.4187

          k = 0.0000 0.0000 0.9164 (  3468 PWs)   bands (ev):

   -10.7334 -10.6258 -10.6258 -10.6063 -10.5613 -10.5613 -10.5373 -10.4438
   -10.3890 -10.3432   3.2955   7.1432   7.9732   9.4592

          k = 0.7500 0.0000-0.4582 (  3471 PWs)   bands (ev):

   -10.6978 -10.6555 -10.5929 -10.5835 -10.5490 -10.5323 -10.5214 -10.4847
   -10.4785 -10.4221   3.0226   4.3598   7.2621   8.4577

          k = 0.5000 0.0000 0.0000 (  3434 PWs)   bands (ev):

   -10.7392 -10.7097 -10.6975 -10.6035 -10.5193 -10.5114 -10.5076 -10.4647
   -10.4624 -10.3932   0.7800   4.3543   7.0802  10.7930

          k = 0.7500-0.7500-1.8328 (  3454 PWs)   bands (ev):

   -10.7303 -10.7303 -10.5980 -10.5980 -10.5340 -10.5340 -10.4847 -10.4847
   -10.4559 -10.4559   2.4050   2.4050   7.9920   7.9920

          k = 0.5000-0.5000-0.9164 (  3452 PWs)   bands (ev):

   -10.7061 -10.7061 -10.6357 -10.6357 -10.5280 -10.5280 -10.4343 -10.4343
   -10.4072 -10.4072   4.8059   4.8059   7.2814   7.2814

          k = 0.0000 0.0000-1.8328 (  3468 PWs)   bands (ev):

   -10.7331 -10.7331 -10.5342 -10.5342 -10.5238 -10.5238 -10.5122 -10.5122
   -10.4995 -10.4995   3.2428   3.2428   6.0123   6.0123

     highest occupied level (ev):    11.4187

!    total energy              =    -325.56962949 Ry
     estimated scf accuracy    <          6.7E-09 Ry

     The total energy is the sum of the following terms:
     one-electron contribution =    -107.30374934 Ry
     hartree contribution      =      74.47043881 Ry
     xc contribution           =     -95.22101576 Ry
     ewald contribution        =    -197.51530320 Ry

     convergence has been achieved in   5 iterations

     Writing all to output data dir ./beta-sn-scf/betatin.save/ :
     XML data file, charge density, pseudopotentials, collected wavefunctions

     init_run     :      0.43s CPU      0.49s WALL (       1 calls)
     electrons    :      0.24s CPU      0.29s WALL (       1 calls)

     Called by init_run:
     wfcinit      :      0.01s CPU      0.03s WALL (       1 calls)
     potinit      :      0.01s CPU      0.02s WALL (       1 calls)
     hinit0       :      0.38s CPU      0.40s WALL (       1 calls)

     Called by electrons:
     c_bands      :      0.14s CPU      0.16s WALL (       6 calls)
     sum_band     :      0.04s CPU      0.05s WALL (       6 calls)
     v_of_rho     :      0.03s CPU      0.04s WALL (       6 calls)
     newd         :      0.01s CPU      0.01s WALL (       6 calls)
     mix_rho      :      0.00s CPU      0.00s WALL (       6 calls)

     Called by c_bands:
     init_us_2    :      0.00s CPU      0.00s WALL (      26 calls)
     cegterg      :      0.13s CPU      0.14s WALL (      12 calls)

     Called by *egterg:
     cdiaghg      :      0.02s CPU      0.02s WALL (      52 calls)
     h_psi        :      0.10s CPU      0.12s WALL (      56 calls)
     s_psi        :      0.00s CPU      0.00s WALL (      56 calls)
     g_psi        :      0.00s CPU      0.00s WALL (      42 calls)

     Called by h_psi:
     h_psi:calbec :      0.00s CPU      0.01s WALL (      56 calls)
     vloc_psi     :      0.10s CPU      0.11s WALL (      56 calls)
     add_vuspsi   :      0.00s CPU      0.00s WALL (      56 calls)

     General routines
     calbec       :      0.01s CPU      0.01s WALL (      68 calls)
     fft          :      0.36s CPU      0.37s WALL (      67 calls)
     ffts         :      0.00s CPU      0.00s WALL (       6 calls)
     fftw         :      0.11s CPU      0.12s WALL (    1122 calls)

     Parallel routines

     PWSCF        :      0.89s CPU      1.15s WALL


   This run was terminated on:  15:51:17   5Feb2026            

=------------------------------------------------------------------------------=
   JOB DONE.
=------------------------------------------------------------------------------=
