
     Program PWSCF v.7.3.1 starts on  5Feb2026 at 15:51:49 

     This program is part of the open-source Quantum ESPRESSO suite
     for quantum simulation of materials; please cite
         "P. Giannozzi et al., J. Phys.:Condens. Matter 21 395502 (2009);
         "P. Giannozzi et al., J. Phys.:Condens. Matter 29 465901 (2017);
         "P. Giannozzi et al., J. Chem. Phys. 152 154105 (2020);
          URL http://www.quantum-espresso.org", 
     in publications or presentations arising from this work. More details at
     http://www.quantum-espresso.org/quote

     Parallel version (MPI), running on   128 processors

     MPI processes distributed on     1 nodes
     242381 MiB available memory on the printing compute node when the environment starts

     Waiting for input...
     Reading input from standard input

     Current dimensions of program PWSCF are:
     Max number of different atomic species (ntypx) = 10
     Max number of k-points (npk) =  40000
     Max angular momentum in pseudopotentials (lmaxx) =  4

     K-points division:     npool     =       8
     R & G space division:  proc/nbgrp/npool/nimage =      16
     Subspace diagonalization in iterative solution of the eigenvalue problem:
     a serial algorithm will be used


     Parallelization info
     --------------------
     sticks:   dense  smooth     PW     G-vecs:    dense   smooth      PW
     Min         101     101     32                 1963     1963     363
     Max         102     102     33                 1965     1965     365
     Sum        1629    1629    527                31425    31425    5825

     Using Slab Decomposition



     bravais-lattice index     =            7
     lattice parameter (alat)  =      11.0200  a.u.
     unit-cell volume          =     365.0809 (a.u.)^3
     number of atoms/cell      =            2
     number of atomic types    =            1
     number of electrons       =        28.00
     number of Kohn-Sham states=           14
     kinetic-energy cutoff     =      74.0000  Ry
     charge density cutoff     =     296.0000  Ry
     scf convergence threshold =      1.0E-07
     mixing beta               =       0.7000
     number of iterations used =            8  plain     mixing
     Exchange-correlation=  SLA  PW   GGX  GGC
                           (   1   4   2   2   0   0   0)

     celldm(1)=  11.020000  celldm(2)=   0.000000  celldm(3)=   0.545600
     celldm(4)=   0.000000  celldm(5)=   0.000000  celldm(6)=   0.000000

     crystal axes: (cart. coord. in units of alat)
               a(1) = (   0.500000  -0.500000   0.272800 )  
               a(2) = (   0.500000   0.500000   0.272800 )  
               a(3) = (  -0.500000  -0.500000   0.272800 )  

     reciprocal axes: (cart. coord. in units 2 pi/alat)
               b(1) = (  1.000000 -1.000000  0.000000 )  
               b(2) = (  0.000000  1.000000  1.832845 )  
               b(3) = ( -1.000000  0.000000  1.832845 )  


     PseudoPot. # 1 for Sn read from file:
     ./Sn.pw91-n-van.UPF
     MD5 check sum: a38d2a872edd1a4efd76c0a1a38f7031
     Pseudo is Ultrasoft + core correction, Zval = 14.0
     Generated by new atomic code, or converted to UPF format
     Using radial grid of  891 points,  6 beta functions with: 
                l(1) =   0
                l(2) =   0
                l(3) =   1
                l(4) =   1
                l(5) =   2
                l(6) =   2
     Q(r) pseudized with  8 coefficients,  rinner =    1.100   1.100   1.100
                                                       1.100   1.100

     atomic species   valence    mass     pseudopotential
     Sn               14.00   118.70000     Sn( 1.00)

     16 Sym. Ops., with inversion, found (12 have fractional translation)



   Cartesian axes

     site n.     atom                  positions (alat units)
         1        Sn     tau(   1) = (   0.0000000  -0.2500000   0.0682000  )
         2        Sn     tau(   2) = (   0.0000000   0.2500000  -0.0682000  )

     number of k points=    13
                       cart. coord. in units 2pi/alat
        k(    1) = (   0.0000000   0.0000000   0.0000000), wk =   0.0312500
        k(    2) = (  -0.2500000   0.0000000   0.4582111), wk =   0.2500000
        k(    3) = (   0.5000000   0.0000000  -0.9164223), wk =   0.1250000
        k(    4) = (  -0.2500000   0.2500000   0.9164223), wk =   0.2500000
        k(    5) = (   0.5000000   0.2500000  -0.4582111), wk =   0.5000000
        k(    6) = (   0.2500000   0.2500000   0.0000000), wk =   0.1250000
        k(    7) = (   0.5000000  -0.5000000  -1.8328446), wk =   0.0625000
        k(    8) = (   0.0000000   0.0000000   0.9164223), wk =   0.0625000
        k(    9) = (   0.7500000   0.0000000  -0.4582111), wk =   0.2500000
        k(   10) = (   0.5000000   0.0000000   0.0000000), wk =   0.1250000
        k(   11) = (   0.7500000  -0.7500000  -1.8328446), wk =   0.1250000
        k(   12) = (   0.5000000  -0.5000000  -0.9164223), wk =   0.0625000
        k(   13) = (   0.0000000   0.0000000  -1.8328446), wk =   0.0312500

     Dense  grid:    31425 G-vectors     FFT dimensions: (  48,  48,  48)

     Estimated max dynamical RAM per process >       3.69 MB

     Estimated total dynamical RAM >     419.00 MB

     Initial potential from superposition of free atoms

     starting charge      27.9964, renormalised to      28.0000
     Starting wfcs are   18 randomized atomic wfcs

     total cpu time spent up to now is        0.8 secs

     per-process dynamical memory:    11.2 Mb

     Self-consistent Calculation

     iteration #  1     ecut=    74.00 Ry     beta= 0.70
     Davidson diagonalization with overlap
     ethr =  1.00E-02,  avg # of iterations =  1.8

     Threshold (ethr) on eigenvalues was too large:
     Diagonalizing with lowered threshold

     Davidson diagonalization with overlap
     ethr =  2.41E-05,  avg # of iterations =  3.9

     total cpu time spent up to now is        0.9 secs

     total energy              =    -325.56882291 Ry
     estimated scf accuracy    <       0.00695135 Ry

     iteration #  2     ecut=    74.00 Ry     beta= 0.70
     Davidson diagonalization with overlap
     ethr =  2.48E-05,  avg # of iterations =  2.0

     total cpu time spent up to now is        1.0 secs

     total energy              =    -325.56980186 Ry
     estimated scf accuracy    <       0.00056283 Ry

     iteration #  3     ecut=    74.00 Ry     beta= 0.70
     Davidson diagonalization with overlap
     ethr =  2.01E-06,  avg # of iterations =  2.2

     total cpu time spent up to now is        1.0 secs

     total energy              =    -325.56986521 Ry
     estimated scf accuracy    <       0.00004225 Ry

     iteration #  4     ecut=    74.00 Ry     beta= 0.70
     Davidson diagonalization with overlap
     ethr =  1.51E-07,  avg # of iterations =  2.8

     total cpu time spent up to now is        1.0 secs

     total energy              =    -325.56987132 Ry
     estimated scf accuracy    <       0.00000078 Ry

     iteration #  5     ecut=    74.00 Ry     beta= 0.70
     Davidson diagonalization with overlap
     ethr =  2.79E-09,  avg # of iterations =  4.1

     total cpu time spent up to now is        1.1 secs

     total energy              =    -325.56987167 Ry
     estimated scf accuracy    <       0.00000011 Ry

     iteration #  6     ecut=    74.00 Ry     beta= 0.70
     Davidson diagonalization with overlap
     ethr =  4.04E-10,  avg # of iterations =  2.2

     total cpu time spent up to now is        1.1 secs

     End of self-consistent calculation

          k = 0.0000 0.0000 0.0000 (  3941 PWs)   bands (ev):

   -10.8030 -10.7204 -10.6770 -10.6652 -10.5153 -10.5153 -10.5042 -10.5042
   -10.4122 -10.2995  -0.3468   7.1615   8.8401   8.8401

          k =-0.2500 0.0000 0.4582 (  3934 PWs)   bands (ev):

   -10.7671 -10.6396 -10.6347 -10.5935 -10.5712 -10.5298 -10.5213 -10.4982
   -10.4332 -10.3340   0.8914   6.5842   9.0445  11.2836

          k = 0.5000 0.0000-0.9164 (  3934 PWs)   bands (ev):

   -10.7278 -10.6575 -10.6409 -10.6012 -10.5674 -10.5643 -10.4656 -10.4180
   -10.4143 -10.3676   3.8536   5.3961   8.4878   9.1147

          k =-0.2500 0.2500 0.9164 (  3917 PWs)   bands (ev):

   -10.7417 -10.6542 -10.6109 -10.5939 -10.5921 -10.5414 -10.4824 -10.4632
   -10.3864 -10.3586   3.7390   6.0513   7.1238   9.1088

          k = 0.5000 0.2500-0.4582 (  3924 PWs)   bands (ev):

   -10.7104 -10.6511 -10.6474 -10.5935 -10.5764 -10.5192 -10.4855 -10.4778
   -10.4605 -10.3959   2.0038   4.1414   9.3960  10.6287

          k = 0.2500 0.2500 0.0000 (  3939 PWs)   bands (ev):

   -10.7530 -10.7273 -10.6920 -10.6351 -10.5419 -10.4945 -10.4928 -10.4848
   -10.4415 -10.3481   0.2178   4.5881   9.5068  10.5384

          k = 0.5000-0.5000-1.8328 (  3934 PWs)   bands (ev):

   -10.7237 -10.7237 -10.6357 -10.6357 -10.5420 -10.5420 -10.4705 -10.4705
   -10.4312 -10.4312   1.9010   1.9010  11.4189  11.4189

          k = 0.0000 0.0000 0.9164 (  3944 PWs)   bands (ev):

   -10.7332 -10.6259 -10.6259 -10.6064 -10.5614 -10.5614 -10.5370 -10.4439
   -10.3888 -10.3429   3.2958   7.1434   7.9735   9.4595

          k = 0.7500 0.0000-0.4582 (  3916 PWs)   bands (ev):

   -10.6976 -10.6553 -10.5928 -10.5836 -10.5491 -10.5324 -10.5214 -10.4848
   -10.4783 -10.4220   3.0229   4.3600   7.2625   8.4580

          k = 0.5000 0.0000 0.0000 (  3925 PWs)   bands (ev):

   -10.7390 -10.7095 -10.6974 -10.6036 -10.5192 -10.5115 -10.5077 -10.4647
   -10.4625 -10.3931   0.7803   4.3546   7.0805  10.7933

          k = 0.7500-0.7500-1.8328 (  3916 PWs)   bands (ev):

   -10.7301 -10.7301 -10.5979 -10.5979 -10.5342 -10.5342 -10.4848 -10.4848
   -10.4559 -10.4559   2.4053   2.4053   7.9923   7.9923

          k = 0.5000-0.5000-0.9164 (  3916 PWs)   bands (ev):

   -10.7061 -10.7061 -10.6357 -10.6357 -10.5282 -10.5282 -10.4342 -10.4342
   -10.4071 -10.4071   4.8061   4.8061   7.2817   7.2817

          k = 0.0000 0.0000-1.8328 (  3880 PWs)   bands (ev):

   -10.7329 -10.7329 -10.5340 -10.5340 -10.5239 -10.5239 -10.5123 -10.5123
   -10.4996 -10.4996   3.2430   3.2430   6.0127   6.0127

     highest occupied level (ev):    11.4189

!    total energy              =    -325.56987168 Ry
     estimated scf accuracy    <          2.2E-09 Ry

     The total energy is the sum of the following terms:
     one-electron contribution =    -107.30400981 Ry
     hartree contribution      =      74.47054503 Ry
     xc contribution           =     -95.22110371 Ry
     ewald contribution        =    -197.51530320 Ry

     convergence has been achieved in   6 iterations

     Writing all to output data dir ./beta-sn-scf/betatin.save/ :
     XML data file, charge density, pseudopotentials, collected wavefunctions

     init_run     :      0.43s CPU      0.49s WALL (       1 calls)
     electrons    :      0.29s CPU      0.34s WALL (       1 calls)

     Called by init_run:
     wfcinit      :      0.01s CPU      0.02s WALL (       1 calls)
     potinit      :      0.02s CPU      0.03s WALL (       1 calls)
     hinit0       :      0.38s CPU      0.39s WALL (       1 calls)

     Called by electrons:
     c_bands      :      0.18s CPU      0.19s WALL (       7 calls)
     sum_band     :      0.04s CPU      0.06s WALL (       7 calls)
     v_of_rho     :      0.04s CPU      0.05s WALL (       7 calls)
     newd         :      0.02s CPU      0.02s WALL (       7 calls)
     mix_rho      :      0.00s CPU      0.00s WALL (       7 calls)

     Called by c_bands:
     init_us_2    :      0.00s CPU      0.00s WALL (      30 calls)
     cegterg      :      0.15s CPU      0.16s WALL (      14 calls)

     Called by *egterg:
     cdiaghg      :      0.02s CPU      0.02s WALL (      59 calls)
     h_psi        :      0.12s CPU      0.14s WALL (      63 calls)
     s_psi        :      0.00s CPU      0.00s WALL (      63 calls)
     g_psi        :      0.00s CPU      0.00s WALL (      47 calls)

     Called by h_psi:
     h_psi:calbec :      0.01s CPU      0.01s WALL (      63 calls)
     vloc_psi     :      0.11s CPU      0.12s WALL (      63 calls)
     add_vuspsi   :      0.00s CPU      0.00s WALL (      63 calls)

     General routines
     calbec       :      0.01s CPU      0.01s WALL (      77 calls)
     fft          :      0.36s CPU      0.37s WALL (      78 calls)
     ffts         :      0.00s CPU      0.00s WALL (       7 calls)
     fftw         :      0.12s CPU      0.13s WALL (    1254 calls)

     Parallel routines

     PWSCF        :      0.96s CPU      1.25s WALL


   This run was terminated on:  15:51:50   5Feb2026            

=------------------------------------------------------------------------------=
   JOB DONE.
=------------------------------------------------------------------------------=
