
     Program PWSCF v.7.3.1 starts on  5Feb2026 at 15:51:57 

     This program is part of the open-source Quantum ESPRESSO suite
     for quantum simulation of materials; please cite
         "P. Giannozzi et al., J. Phys.:Condens. Matter 21 395502 (2009);
         "P. Giannozzi et al., J. Phys.:Condens. Matter 29 465901 (2017);
         "P. Giannozzi et al., J. Chem. Phys. 152 154105 (2020);
          URL http://www.quantum-espresso.org", 
     in publications or presentations arising from this work. More details at
     http://www.quantum-espresso.org/quote

     Parallel version (MPI), running on   128 processors

     MPI processes distributed on     1 nodes
     242474 MiB available memory on the printing compute node when the environment starts

     Waiting for input...
     Reading input from standard input

     Current dimensions of program PWSCF are:
     Max number of different atomic species (ntypx) = 10
     Max number of k-points (npk) =  40000
     Max angular momentum in pseudopotentials (lmaxx) =  4

     K-points division:     npool     =       8
     R & G space division:  proc/nbgrp/npool/nimage =      16
     Subspace diagonalization in iterative solution of the eigenvalue problem:
     a serial algorithm will be used


     Parallelization info
     --------------------
     sticks:   dense  smooth     PW     G-vecs:    dense   smooth      PW
     Min         104     104     33                 2040     2040     374
     Max         105     105     34                 2042     2042     375
     Sum        1673    1673    539                32657    32657    5993

     Using Slab Decomposition



     bravais-lattice index     =            7
     lattice parameter (alat)  =      11.0200  a.u.
     unit-cell volume          =     365.0809 (a.u.)^3
     number of atoms/cell      =            2
     number of atomic types    =            1
     number of electrons       =        28.00
     number of Kohn-Sham states=           14
     kinetic-energy cutoff     =      76.0000  Ry
     charge density cutoff     =     304.0000  Ry
     scf convergence threshold =      1.0E-07
     mixing beta               =       0.7000
     number of iterations used =            8  plain     mixing
     Exchange-correlation=  SLA  PW   GGX  GGC
                           (   1   4   2   2   0   0   0)

     celldm(1)=  11.020000  celldm(2)=   0.000000  celldm(3)=   0.545600
     celldm(4)=   0.000000  celldm(5)=   0.000000  celldm(6)=   0.000000

     crystal axes: (cart. coord. in units of alat)
               a(1) = (   0.500000  -0.500000   0.272800 )  
               a(2) = (   0.500000   0.500000   0.272800 )  
               a(3) = (  -0.500000  -0.500000   0.272800 )  

     reciprocal axes: (cart. coord. in units 2 pi/alat)
               b(1) = (  1.000000 -1.000000  0.000000 )  
               b(2) = (  0.000000  1.000000  1.832845 )  
               b(3) = ( -1.000000  0.000000  1.832845 )  


     PseudoPot. # 1 for Sn read from file:
     ./Sn.pw91-n-van.UPF
     MD5 check sum: a38d2a872edd1a4efd76c0a1a38f7031
     Pseudo is Ultrasoft + core correction, Zval = 14.0
     Generated by new atomic code, or converted to UPF format
     Using radial grid of  891 points,  6 beta functions with: 
                l(1) =   0
                l(2) =   0
                l(3) =   1
                l(4) =   1
                l(5) =   2
                l(6) =   2
     Q(r) pseudized with  8 coefficients,  rinner =    1.100   1.100   1.100
                                                       1.100   1.100

     atomic species   valence    mass     pseudopotential
     Sn               14.00   118.70000     Sn( 1.00)

     16 Sym. Ops., with inversion, found (12 have fractional translation)



   Cartesian axes

     site n.     atom                  positions (alat units)
         1        Sn     tau(   1) = (   0.0000000  -0.2500000   0.0682000  )
         2        Sn     tau(   2) = (   0.0000000   0.2500000  -0.0682000  )

     number of k points=    13
                       cart. coord. in units 2pi/alat
        k(    1) = (   0.0000000   0.0000000   0.0000000), wk =   0.0312500
        k(    2) = (  -0.2500000   0.0000000   0.4582111), wk =   0.2500000
        k(    3) = (   0.5000000   0.0000000  -0.9164223), wk =   0.1250000
        k(    4) = (  -0.2500000   0.2500000   0.9164223), wk =   0.2500000
        k(    5) = (   0.5000000   0.2500000  -0.4582111), wk =   0.5000000
        k(    6) = (   0.2500000   0.2500000   0.0000000), wk =   0.1250000
        k(    7) = (   0.5000000  -0.5000000  -1.8328446), wk =   0.0625000
        k(    8) = (   0.0000000   0.0000000   0.9164223), wk =   0.0625000
        k(    9) = (   0.7500000   0.0000000  -0.4582111), wk =   0.2500000
        k(   10) = (   0.5000000   0.0000000   0.0000000), wk =   0.1250000
        k(   11) = (   0.7500000  -0.7500000  -1.8328446), wk =   0.1250000
        k(   12) = (   0.5000000  -0.5000000  -0.9164223), wk =   0.0625000
        k(   13) = (   0.0000000   0.0000000  -1.8328446), wk =   0.0312500

     Dense  grid:    32657 G-vectors     FFT dimensions: (  48,  48,  48)

     Estimated max dynamical RAM per process >       3.79 MB

     Estimated total dynamical RAM >     428.67 MB

     Initial potential from superposition of free atoms

     starting charge      27.9964, renormalised to      28.0000
     Starting wfcs are   18 randomized atomic wfcs

     total cpu time spent up to now is        0.8 secs

     per-process dynamical memory:    11.2 Mb

     Self-consistent Calculation

     iteration #  1     ecut=    76.00 Ry     beta= 0.70
     Davidson diagonalization with overlap
     ethr =  1.00E-02,  avg # of iterations =  1.8

     Threshold (ethr) on eigenvalues was too large:
     Diagonalizing with lowered threshold

     Davidson diagonalization with overlap
     ethr =  2.43E-05,  avg # of iterations =  3.8

     total cpu time spent up to now is        0.9 secs

     total energy              =    -325.56893631 Ry
     estimated scf accuracy    <       0.00693200 Ry

     iteration #  2     ecut=    76.00 Ry     beta= 0.70
     Davidson diagonalization with overlap
     ethr =  2.48E-05,  avg # of iterations =  2.0

     total cpu time spent up to now is        0.9 secs

     total energy              =    -325.56991590 Ry
     estimated scf accuracy    <       0.00056270 Ry

     iteration #  3     ecut=    76.00 Ry     beta= 0.70
     Davidson diagonalization with overlap
     ethr =  2.01E-06,  avg # of iterations =  2.5

     total cpu time spent up to now is        1.0 secs

     total energy              =    -325.56998333 Ry
     estimated scf accuracy    <       0.00004370 Ry

     iteration #  4     ecut=    76.00 Ry     beta= 0.70
     Davidson diagonalization with overlap
     ethr =  1.56E-07,  avg # of iterations =  2.3

     total cpu time spent up to now is        1.0 secs

     total energy              =    -325.56998735 Ry
     estimated scf accuracy    <       0.00000021 Ry

     iteration #  5     ecut=    76.00 Ry     beta= 0.70
     Davidson diagonalization with overlap
     ethr =  7.54E-10,  avg # of iterations =  4.6

     total cpu time spent up to now is        1.1 secs

     End of self-consistent calculation

          k = 0.0000 0.0000 0.0000 (  4133 PWs)   bands (ev):

   -10.8029 -10.7206 -10.6772 -10.6654 -10.5154 -10.5154 -10.5044 -10.5044
   -10.4125 -10.2994  -0.3468   7.1615   8.8402   8.8402

          k =-0.2500 0.0000 0.4582 (  4085 PWs)   bands (ev):

   -10.7670 -10.6399 -10.6348 -10.5937 -10.5713 -10.5300 -10.5215 -10.4984
   -10.4335 -10.3340   0.8915   6.5841   9.0446  11.2836

          k = 0.5000 0.0000-0.9164 (  4076 PWs)   bands (ev):

   -10.7278 -10.6576 -10.6411 -10.6013 -10.5676 -10.5645 -10.4659 -10.4181
   -10.4145 -10.3676   3.8537   5.3961   8.4878   9.1147

          k =-0.2500 0.2500 0.9164 (  4089 PWs)   bands (ev):

   -10.7417 -10.6543 -10.6111 -10.5941 -10.5923 -10.5415 -10.4825 -10.4635
   -10.3866 -10.3586   3.7391   6.0513   7.1239   9.1088

          k = 0.5000 0.2500-0.4582 (  4085 PWs)   bands (ev):

   -10.7104 -10.6512 -10.6476 -10.5937 -10.5767 -10.5193 -10.4858 -10.4780
   -10.4607 -10.3959   2.0039   4.1414   9.3961  10.6288

          k = 0.2500 0.2500 0.0000 (  4092 PWs)   bands (ev):

   -10.7529 -10.7275 -10.6922 -10.6354 -10.5420 -10.4947 -10.4930 -10.4850
   -10.4418 -10.3481   0.2179   4.5881   9.5069  10.5385

          k = 0.5000-0.5000-1.8328 (  4078 PWs)   bands (ev):

   -10.7239 -10.7239 -10.6356 -10.6356 -10.5422 -10.5422 -10.4707 -10.4707
   -10.4313 -10.4313   1.9010   1.9010  11.4190  11.4190

          k = 0.0000 0.0000 0.9164 (  4084 PWs)   bands (ev):

   -10.7331 -10.6261 -10.6261 -10.6067 -10.5616 -10.5616 -10.5372 -10.4442
   -10.3890 -10.3429   3.2958   7.1434   7.9735   9.4597

          k = 0.7500 0.0000-0.4582 (  4087 PWs)   bands (ev):

   -10.6975 -10.6555 -10.5930 -10.5839 -10.5493 -10.5326 -10.5215 -10.4851
   -10.4784 -10.4220   3.0230   4.3600   7.2626   8.4581

          k = 0.5000 0.0000 0.0000 (  4087 PWs)   bands (ev):

   -10.7391 -10.7097 -10.6974 -10.6039 -10.5194 -10.5116 -10.5079 -10.4649
   -10.4628 -10.3931   0.7804   4.3546   7.0807  10.7934

          k = 0.7500-0.7500-1.8328 (  4072 PWs)   bands (ev):

   -10.7303 -10.7303 -10.5979 -10.5979 -10.5345 -10.5345 -10.4849 -10.4849
   -10.4560 -10.4560   2.4053   2.4053   7.9925   7.9925

          k = 0.5000-0.5000-0.9164 (  4100 PWs)   bands (ev):

   -10.7061 -10.7061 -10.6359 -10.6359 -10.5284 -10.5284 -10.4343 -10.4343
   -10.4073 -10.4073   4.8061   4.8061   7.2818   7.2818

          k = 0.0000 0.0000-1.8328 (  4064 PWs)   bands (ev):

   -10.7330 -10.7330 -10.5339 -10.5339 -10.5242 -10.5242 -10.5124 -10.5124
   -10.4998 -10.4998   3.2430   3.2430   6.0129   6.0129

     highest occupied level (ev):    11.4190

!    total energy              =    -325.56998773 Ry
     estimated scf accuracy    <          7.5E-09 Ry

     The total energy is the sum of the following terms:
     one-electron contribution =    -107.30438290 Ry
     hartree contribution      =      74.47097043 Ry
     xc contribution           =     -95.22127207 Ry
     ewald contribution        =    -197.51530320 Ry

     convergence has been achieved in   5 iterations

     Writing all to output data dir ./beta-sn-scf/betatin.save/ :
     XML data file, charge density, pseudopotentials, collected wavefunctions

     init_run     :      0.44s CPU      0.49s WALL (       1 calls)
     electrons    :      0.26s CPU      0.33s WALL (       1 calls)

     Called by init_run:
     wfcinit      :      0.02s CPU      0.03s WALL (       1 calls)
     potinit      :      0.01s CPU      0.02s WALL (       1 calls)
     hinit0       :      0.39s CPU      0.40s WALL (       1 calls)

     Called by electrons:
     c_bands      :      0.16s CPU      0.17s WALL (       6 calls)
     sum_band     :      0.04s CPU      0.05s WALL (       6 calls)
     v_of_rho     :      0.03s CPU      0.04s WALL (       6 calls)
     newd         :      0.01s CPU      0.01s WALL (       6 calls)
     mix_rho      :      0.00s CPU      0.00s WALL (       6 calls)

     Called by c_bands:
     init_us_2    :      0.00s CPU      0.00s WALL (      26 calls)
     cegterg      :      0.14s CPU      0.15s WALL (      12 calls)

     Called by *egterg:
     cdiaghg      :      0.02s CPU      0.02s WALL (      52 calls)
     h_psi        :      0.12s CPU      0.13s WALL (      56 calls)
     s_psi        :      0.00s CPU      0.00s WALL (      56 calls)
     g_psi        :      0.00s CPU      0.00s WALL (      42 calls)

     Called by h_psi:
     h_psi:calbec :      0.01s CPU      0.01s WALL (      56 calls)
     vloc_psi     :      0.11s CPU      0.12s WALL (      56 calls)
     add_vuspsi   :      0.00s CPU      0.00s WALL (      56 calls)

     General routines
     calbec       :      0.01s CPU      0.01s WALL (      68 calls)
     fft          :      0.36s CPU      0.37s WALL (      67 calls)
     ffts         :      0.00s CPU      0.00s WALL (       6 calls)
     fftw         :      0.12s CPU      0.13s WALL (    1122 calls)

     Parallel routines

     PWSCF        :      1.13s CPU      1.40s WALL


   This run was terminated on:  15:51:58   5Feb2026            

=------------------------------------------------------------------------------=
   JOB DONE.
=------------------------------------------------------------------------------=
