
     Program PWSCF v.7.3.1 starts on  5Feb2026 at 15:52: 6 

     This program is part of the open-source Quantum ESPRESSO suite
     for quantum simulation of materials; please cite
         "P. Giannozzi et al., J. Phys.:Condens. Matter 21 395502 (2009);
         "P. Giannozzi et al., J. Phys.:Condens. Matter 29 465901 (2017);
         "P. Giannozzi et al., J. Chem. Phys. 152 154105 (2020);
          URL http://www.quantum-espresso.org", 
     in publications or presentations arising from this work. More details at
     http://www.quantum-espresso.org/quote

     Parallel version (MPI), running on   128 processors

     MPI processes distributed on     1 nodes
     242351 MiB available memory on the printing compute node when the environment starts

     Waiting for input...
     Reading input from standard input

     Current dimensions of program PWSCF are:
     Max number of different atomic species (ntypx) = 10
     Max number of k-points (npk) =  40000
     Max angular momentum in pseudopotentials (lmaxx) =  4

     K-points division:     npool     =       8
     R & G space division:  proc/nbgrp/npool/nimage =      16
     Subspace diagonalization in iterative solution of the eigenvalue problem:
     a serial algorithm will be used


     Parallelization info
     --------------------
     sticks:   dense  smooth     PW     G-vecs:    dense   smooth      PW
     Min         107     107     35                 2123     2123     392
     Max         108     108     36                 2126     2126     393
     Sum        1717    1717    561                33985    33985    6273

     Using Slab Decomposition



     bravais-lattice index     =            7
     lattice parameter (alat)  =      11.0200  a.u.
     unit-cell volume          =     365.0809 (a.u.)^3
     number of atoms/cell      =            2
     number of atomic types    =            1
     number of electrons       =        28.00
     number of Kohn-Sham states=           14
     kinetic-energy cutoff     =      78.0000  Ry
     charge density cutoff     =     312.0000  Ry
     scf convergence threshold =      1.0E-07
     mixing beta               =       0.7000
     number of iterations used =            8  plain     mixing
     Exchange-correlation=  SLA  PW   GGX  GGC
                           (   1   4   2   2   0   0   0)

     celldm(1)=  11.020000  celldm(2)=   0.000000  celldm(3)=   0.545600
     celldm(4)=   0.000000  celldm(5)=   0.000000  celldm(6)=   0.000000

     crystal axes: (cart. coord. in units of alat)
               a(1) = (   0.500000  -0.500000   0.272800 )  
               a(2) = (   0.500000   0.500000   0.272800 )  
               a(3) = (  -0.500000  -0.500000   0.272800 )  

     reciprocal axes: (cart. coord. in units 2 pi/alat)
               b(1) = (  1.000000 -1.000000  0.000000 )  
               b(2) = (  0.000000  1.000000  1.832845 )  
               b(3) = ( -1.000000  0.000000  1.832845 )  


     PseudoPot. # 1 for Sn read from file:
     ./Sn.pw91-n-van.UPF
     MD5 check sum: a38d2a872edd1a4efd76c0a1a38f7031
     Pseudo is Ultrasoft + core correction, Zval = 14.0
     Generated by new atomic code, or converted to UPF format
     Using radial grid of  891 points,  6 beta functions with: 
                l(1) =   0
                l(2) =   0
                l(3) =   1
                l(4) =   1
                l(5) =   2
                l(6) =   2
     Q(r) pseudized with  8 coefficients,  rinner =    1.100   1.100   1.100
                                                       1.100   1.100

     atomic species   valence    mass     pseudopotential
     Sn               14.00   118.70000     Sn( 1.00)

     16 Sym. Ops., with inversion, found (12 have fractional translation)



   Cartesian axes

     site n.     atom                  positions (alat units)
         1        Sn     tau(   1) = (   0.0000000  -0.2500000   0.0682000  )
         2        Sn     tau(   2) = (   0.0000000   0.2500000  -0.0682000  )

     number of k points=    13
                       cart. coord. in units 2pi/alat
        k(    1) = (   0.0000000   0.0000000   0.0000000), wk =   0.0312500
        k(    2) = (  -0.2500000   0.0000000   0.4582111), wk =   0.2500000
        k(    3) = (   0.5000000   0.0000000  -0.9164223), wk =   0.1250000
        k(    4) = (  -0.2500000   0.2500000   0.9164223), wk =   0.2500000
        k(    5) = (   0.5000000   0.2500000  -0.4582111), wk =   0.5000000
        k(    6) = (   0.2500000   0.2500000   0.0000000), wk =   0.1250000
        k(    7) = (   0.5000000  -0.5000000  -1.8328446), wk =   0.0625000
        k(    8) = (   0.0000000   0.0000000   0.9164223), wk =   0.0625000
        k(    9) = (   0.7500000   0.0000000  -0.4582111), wk =   0.2500000
        k(   10) = (   0.5000000   0.0000000   0.0000000), wk =   0.1250000
        k(   11) = (   0.7500000  -0.7500000  -1.8328446), wk =   0.1250000
        k(   12) = (   0.5000000  -0.5000000  -0.9164223), wk =   0.0625000
        k(   13) = (   0.0000000   0.0000000  -1.8328446), wk =   0.0312500

     Dense  grid:    33985 G-vectors     FFT dimensions: (  48,  48,  48)

     Estimated max dynamical RAM per process >       3.88 MB

     Estimated total dynamical RAM >     438.52 MB

     Initial potential from superposition of free atoms

     starting charge      27.9964, renormalised to      28.0000
     Starting wfcs are   18 randomized atomic wfcs

     total cpu time spent up to now is        0.8 secs

     per-process dynamical memory:    11.2 Mb

     Self-consistent Calculation

     iteration #  1     ecut=    78.00 Ry     beta= 0.70
     Davidson diagonalization with overlap
     ethr =  1.00E-02,  avg # of iterations =  1.8

     Threshold (ethr) on eigenvalues was too large:
     Diagonalizing with lowered threshold

     Davidson diagonalization with overlap
     ethr =  2.42E-05,  avg # of iterations =  3.8

     total cpu time spent up to now is        0.9 secs

     total energy              =    -325.56910816 Ry
     estimated scf accuracy    <       0.00694044 Ry

     iteration #  2     ecut=    78.00 Ry     beta= 0.70
     Davidson diagonalization with overlap
     ethr =  2.48E-05,  avg # of iterations =  2.0

     total cpu time spent up to now is        1.0 secs

     total energy              =    -325.57008384 Ry
     estimated scf accuracy    <       0.00056160 Ry

     iteration #  3     ecut=    78.00 Ry     beta= 0.70
     Davidson diagonalization with overlap
     ethr =  2.01E-06,  avg # of iterations =  2.4

     total cpu time spent up to now is        1.0 secs

     total energy              =    -325.57015093 Ry
     estimated scf accuracy    <       0.00004390 Ry

     iteration #  4     ecut=    78.00 Ry     beta= 0.70
     Davidson diagonalization with overlap
     ethr =  1.57E-07,  avg # of iterations =  2.7

     total cpu time spent up to now is        1.0 secs

     total energy              =    -325.57015602 Ry
     estimated scf accuracy    <       0.00000023 Ry

     iteration #  5     ecut=    78.00 Ry     beta= 0.70
     Davidson diagonalization with overlap
     ethr =  8.20E-10,  avg # of iterations =  4.2

     total cpu time spent up to now is        1.1 secs

     End of self-consistent calculation

          k = 0.0000 0.0000 0.0000 (  4269 PWs)   bands (ev):

   -10.8028 -10.7204 -10.6772 -10.6651 -10.5154 -10.5154 -10.5043 -10.5043
   -10.4125 -10.2992  -0.3467   7.1615   8.8402   8.8402

          k =-0.2500 0.0000 0.4582 (  4260 PWs)   bands (ev):

   -10.7669 -10.6399 -10.6346 -10.5936 -10.5713 -10.5300 -10.5214 -10.4983
   -10.4335 -10.3338   0.8915   6.5842   9.0447  11.2837

          k = 0.5000 0.0000-0.9164 (  4246 PWs)   bands (ev):

   -10.7277 -10.6575 -10.6411 -10.6012 -10.5677 -10.5645 -10.4659 -10.4180
   -10.4142 -10.3674   3.8537   5.3962   8.4879   9.1148

          k =-0.2500 0.2500 0.9164 (  4231 PWs)   bands (ev):

   -10.7416 -10.6542 -10.6110 -10.5941 -10.5922 -10.5415 -10.4824 -10.4635
   -10.3863 -10.3584   3.7391   6.0513   7.1240   9.1089

          k = 0.5000 0.2500-0.4582 (  4239 PWs)   bands (ev):

   -10.7103 -10.6511 -10.6474 -10.5936 -10.5767 -10.5193 -10.4857 -10.4779
   -10.4605 -10.3958   2.0039   4.1414   9.3962  10.6288

          k = 0.2500 0.2500 0.0000 (  4252 PWs)   bands (ev):

   -10.7528 -10.7272 -10.6920 -10.6354 -10.5419 -10.4947 -10.4929 -10.4849
   -10.4418 -10.3479   0.2179   4.5881   9.5069  10.5385

          k = 0.5000-0.5000-1.8328 (  4230 PWs)   bands (ev):

   -10.7237 -10.7237 -10.6355 -10.6355 -10.5422 -10.5422 -10.4706 -10.4706
   -10.4312 -10.4312   1.9010   1.9010  11.4190  11.4190

          k = 0.0000 0.0000 0.9164 (  4232 PWs)   bands (ev):

   -10.7329 -10.6260 -10.6260 -10.6067 -10.5615 -10.5615 -10.5369 -10.4442
   -10.3887 -10.3427   3.2958   7.1434   7.9736   9.4597

          k = 0.7500 0.0000-0.4582 (  4248 PWs)   bands (ev):

   -10.6974 -10.6553 -10.5929 -10.5838 -10.5494 -10.5325 -10.5214 -10.4851
   -10.4782 -10.4218   3.0230   4.3601   7.2627   8.4582

          k = 0.5000 0.0000 0.0000 (  4227 PWs)   bands (ev):

   -10.7389 -10.7095 -10.6972 -10.6040 -10.5192 -10.5116 -10.5078 -10.4648
   -10.4628 -10.3930   0.7804   4.3546   7.0807  10.7935

          k = 0.7500-0.7500-1.8328 (  4268 PWs)   bands (ev):

   -10.7301 -10.7301 -10.5978 -10.5978 -10.5345 -10.5345 -10.4849 -10.4849
   -10.4559 -10.4559   2.4054   2.4054   7.9925   7.9925

          k = 0.5000-0.5000-0.9164 (  4228 PWs)   bands (ev):

   -10.7060 -10.7060 -10.6358 -10.6358 -10.5284 -10.5284 -10.4342 -10.4342
   -10.4070 -10.4070   4.8061   4.8061   7.2819   7.2819

          k = 0.0000 0.0000-1.8328 (  4272 PWs)   bands (ev):

   -10.7328 -10.7328 -10.5338 -10.5338 -10.5243 -10.5243 -10.5124 -10.5124
   -10.4997 -10.4997   3.2430   3.2430   6.0129   6.0129

     highest occupied level (ev):    11.4190

!    total energy              =    -325.57015623 Ry
     estimated scf accuracy    <          7.1E-09 Ry

     The total energy is the sum of the following terms:
     one-electron contribution =    -107.30464443 Ry
     hartree contribution      =      74.47115394 Ry
     xc contribution           =     -95.22136254 Ry
     ewald contribution        =    -197.51530320 Ry

     convergence has been achieved in   5 iterations

     Writing all to output data dir ./beta-sn-scf/betatin.save/ :
     XML data file, charge density, pseudopotentials, collected wavefunctions

     init_run     :      0.43s CPU      0.49s WALL (       1 calls)
     electrons    :      0.26s CPU      0.31s WALL (       1 calls)

     Called by init_run:
     wfcinit      :      0.01s CPU      0.02s WALL (       1 calls)
     potinit      :      0.01s CPU      0.02s WALL (       1 calls)
     hinit0       :      0.38s CPU      0.40s WALL (       1 calls)

     Called by electrons:
     c_bands      :      0.16s CPU      0.17s WALL (       6 calls)
     sum_band     :      0.04s CPU      0.05s WALL (       6 calls)
     v_of_rho     :      0.04s CPU      0.04s WALL (       6 calls)
     newd         :      0.01s CPU      0.02s WALL (       6 calls)
     mix_rho      :      0.00s CPU      0.00s WALL (       6 calls)

     Called by c_bands:
     init_us_2    :      0.00s CPU      0.00s WALL (      26 calls)
     cegterg      :      0.14s CPU      0.15s WALL (      12 calls)

     Called by *egterg:
     cdiaghg      :      0.02s CPU      0.02s WALL (      52 calls)
     h_psi        :      0.11s CPU      0.12s WALL (      56 calls)
     s_psi        :      0.00s CPU      0.00s WALL (      56 calls)
     g_psi        :      0.00s CPU      0.00s WALL (      42 calls)

     Called by h_psi:
     h_psi:calbec :      0.01s CPU      0.01s WALL (      56 calls)
     vloc_psi     :      0.11s CPU      0.11s WALL (      56 calls)
     add_vuspsi   :      0.00s CPU      0.00s WALL (      56 calls)

     General routines
     calbec       :      0.01s CPU      0.01s WALL (      68 calls)
     fft          :      0.37s CPU      0.37s WALL (      67 calls)
     ffts         :      0.00s CPU      0.00s WALL (       6 calls)
     fftw         :      0.11s CPU      0.12s WALL (    1112 calls)

     Parallel routines

     PWSCF        :      1.14s CPU      1.37s WALL


   This run was terminated on:  15:52: 7   5Feb2026            

=------------------------------------------------------------------------------=
   JOB DONE.
=------------------------------------------------------------------------------=
