
     Program PWSCF v.7.3.1 starts on  5Feb2026 at 15:52:57 

     This program is part of the open-source Quantum ESPRESSO suite
     for quantum simulation of materials; please cite
         "P. Giannozzi et al., J. Phys.:Condens. Matter 21 395502 (2009);
         "P. Giannozzi et al., J. Phys.:Condens. Matter 29 465901 (2017);
         "P. Giannozzi et al., J. Chem. Phys. 152 154105 (2020);
          URL http://www.quantum-espresso.org", 
     in publications or presentations arising from this work. More details at
     http://www.quantum-espresso.org/quote

     Parallel version (MPI), running on   128 processors

     MPI processes distributed on     1 nodes
     242337 MiB available memory on the printing compute node when the environment starts

     Waiting for input...
     Reading input from standard input

     Current dimensions of program PWSCF are:
     Max number of different atomic species (ntypx) = 10
     Max number of k-points (npk) =  40000
     Max angular momentum in pseudopotentials (lmaxx) =  4

     K-points division:     npool     =       8
     R & G space division:  proc/nbgrp/npool/nimage =      16
     Subspace diagonalization in iterative solution of the eigenvalue problem:
     a serial algorithm will be used


     Parallelization info
     --------------------
     sticks:   dense  smooth     PW     G-vecs:    dense   smooth      PW
     Min         118     118     37                 2455     2455     441
     Max         119     119     38                 2457     2457     443
     Sum        1893    1893    599                39301    39301    7071

     Using Slab Decomposition



     bravais-lattice index     =            7
     lattice parameter (alat)  =      11.0200  a.u.
     unit-cell volume          =     365.0809 (a.u.)^3
     number of atoms/cell      =            2
     number of atomic types    =            1
     number of electrons       =        28.00
     number of Kohn-Sham states=           14
     kinetic-energy cutoff     =      86.0000  Ry
     charge density cutoff     =     344.0000  Ry
     scf convergence threshold =      1.0E-07
     mixing beta               =       0.7000
     number of iterations used =            8  plain     mixing
     Exchange-correlation=  SLA  PW   GGX  GGC
                           (   1   4   2   2   0   0   0)

     celldm(1)=  11.020000  celldm(2)=   0.000000  celldm(3)=   0.545600
     celldm(4)=   0.000000  celldm(5)=   0.000000  celldm(6)=   0.000000

     crystal axes: (cart. coord. in units of alat)
               a(1) = (   0.500000  -0.500000   0.272800 )  
               a(2) = (   0.500000   0.500000   0.272800 )  
               a(3) = (  -0.500000  -0.500000   0.272800 )  

     reciprocal axes: (cart. coord. in units 2 pi/alat)
               b(1) = (  1.000000 -1.000000  0.000000 )  
               b(2) = (  0.000000  1.000000  1.832845 )  
               b(3) = ( -1.000000  0.000000  1.832845 )  


     PseudoPot. # 1 for Sn read from file:
     ./Sn.pw91-n-van.UPF
     MD5 check sum: a38d2a872edd1a4efd76c0a1a38f7031
     Pseudo is Ultrasoft + core correction, Zval = 14.0
     Generated by new atomic code, or converted to UPF format
     Using radial grid of  891 points,  6 beta functions with: 
                l(1) =   0
                l(2) =   0
                l(3) =   1
                l(4) =   1
                l(5) =   2
                l(6) =   2
     Q(r) pseudized with  8 coefficients,  rinner =    1.100   1.100   1.100
                                                       1.100   1.100

     atomic species   valence    mass     pseudopotential
     Sn               14.00   118.70000     Sn( 1.00)

     16 Sym. Ops., with inversion, found (12 have fractional translation)



   Cartesian axes

     site n.     atom                  positions (alat units)
         1        Sn     tau(   1) = (   0.0000000  -0.2500000   0.0682000  )
         2        Sn     tau(   2) = (   0.0000000   0.2500000  -0.0682000  )

     number of k points=    13
                       cart. coord. in units 2pi/alat
        k(    1) = (   0.0000000   0.0000000   0.0000000), wk =   0.0312500
        k(    2) = (  -0.2500000   0.0000000   0.4582111), wk =   0.2500000
        k(    3) = (   0.5000000   0.0000000  -0.9164223), wk =   0.1250000
        k(    4) = (  -0.2500000   0.2500000   0.9164223), wk =   0.2500000
        k(    5) = (   0.5000000   0.2500000  -0.4582111), wk =   0.5000000
        k(    6) = (   0.2500000   0.2500000   0.0000000), wk =   0.1250000
        k(    7) = (   0.5000000  -0.5000000  -1.8328446), wk =   0.0625000
        k(    8) = (   0.0000000   0.0000000   0.9164223), wk =   0.0625000
        k(    9) = (   0.7500000   0.0000000  -0.4582111), wk =   0.2500000
        k(   10) = (   0.5000000   0.0000000   0.0000000), wk =   0.1250000
        k(   11) = (   0.7500000  -0.7500000  -1.8328446), wk =   0.1250000
        k(   12) = (   0.5000000  -0.5000000  -0.9164223), wk =   0.0625000
        k(   13) = (   0.0000000   0.0000000  -1.8328446), wk =   0.0312500

     Dense  grid:    39301 G-vectors     FFT dimensions: (  50,  50,  50)

     Estimated max dynamical RAM per process >       4.48 MB

     Estimated total dynamical RAM >     505.66 MB

     Initial potential from superposition of free atoms

     starting charge      27.9964, renormalised to      28.0000
     Starting wfcs are   18 randomized atomic wfcs

     total cpu time spent up to now is        0.6 secs

     per-process dynamical memory:    12.2 Mb

     Self-consistent Calculation

     iteration #  1     ecut=    86.00 Ry     beta= 0.70
     Davidson diagonalization with overlap
     ethr =  1.00E-02,  avg # of iterations =  1.8

     Threshold (ethr) on eigenvalues was too large:
     Diagonalizing with lowered threshold

     Davidson diagonalization with overlap
     ethr =  2.42E-05,  avg # of iterations =  3.8

     total cpu time spent up to now is        0.8 secs

     total energy              =    -325.57033497 Ry
     estimated scf accuracy    <       0.00692973 Ry

     iteration #  2     ecut=    86.00 Ry     beta= 0.70
     Davidson diagonalization with overlap
     ethr =  2.47E-05,  avg # of iterations =  2.0

     total cpu time spent up to now is        0.8 secs

     total energy              =    -325.57130122 Ry
     estimated scf accuracy    <       0.00055954 Ry

     iteration #  3     ecut=    86.00 Ry     beta= 0.70
     Davidson diagonalization with overlap
     ethr =  2.00E-06,  avg # of iterations =  2.5

     total cpu time spent up to now is        0.9 secs

     total energy              =    -325.57137000 Ry
     estimated scf accuracy    <       0.00004394 Ry

     iteration #  4     ecut=    86.00 Ry     beta= 0.70
     Davidson diagonalization with overlap
     ethr =  1.57E-07,  avg # of iterations =  2.5

     total cpu time spent up to now is        0.9 secs

     total energy              =    -325.57137417 Ry
     estimated scf accuracy    <       0.00000018 Ry

     iteration #  5     ecut=    86.00 Ry     beta= 0.70
     Davidson diagonalization with overlap
     ethr =  6.29E-10,  avg # of iterations =  4.6

     total cpu time spent up to now is        1.0 secs

     End of self-consistent calculation

          k = 0.0000 0.0000 0.0000 (  4901 PWs)   bands (ev):

   -10.8038 -10.7210 -10.6775 -10.6655 -10.5159 -10.5159 -10.5046 -10.5046
   -10.4129 -10.2998  -0.3471   7.1612   8.8399   8.8399

          k =-0.2500 0.0000 0.4582 (  4916 PWs)   bands (ev):

   -10.7678 -10.6402 -10.6352 -10.5941 -10.5718 -10.5304 -10.5219 -10.4988
   -10.4338 -10.3344   0.8911   6.5839   9.0443  11.2834

          k = 0.5000 0.0000-0.9164 (  4926 PWs)   bands (ev):

   -10.7285 -10.6582 -10.6415 -10.6019 -10.5680 -10.5649 -10.4662 -10.4186
   -10.4149 -10.3681   3.8534   5.3958   8.4875   9.1144

          k =-0.2500 0.2500 0.9164 (  4922 PWs)   bands (ev):

   -10.7424 -10.6548 -10.6116 -10.5944 -10.5926 -10.5419 -10.4830 -10.4638
   -10.3870 -10.3590   3.7387   6.0510   7.1235   9.1085

          k = 0.5000 0.2500-0.4582 (  4916 PWs)   bands (ev):

   -10.7111 -10.6517 -10.6480 -10.5941 -10.5770 -10.5197 -10.4861 -10.4783
   -10.4610 -10.3964   2.0035   4.1411   9.3958  10.6284

          k = 0.2500 0.2500 0.0000 (  4915 PWs)   bands (ev):

   -10.7537 -10.7278 -10.6924 -10.6357 -10.5426 -10.4951 -10.4934 -10.4853
   -10.4421 -10.3486   0.2175   4.5878   9.5066  10.5381

          k = 0.5000-0.5000-1.8328 (  4888 PWs)   bands (ev):

   -10.7242 -10.7242 -10.6362 -10.6362 -10.5424 -10.5424 -10.4711 -10.4711
   -10.4317 -10.4317   1.9007   1.9007  11.4188  11.4188

          k = 0.0000 0.0000 0.9164 (  4901 PWs)   bands (ev):

   -10.7338 -10.6265 -10.6265 -10.6068 -10.5619 -10.5619 -10.5377 -10.4445
   -10.3894 -10.3433   3.2955   7.1431   7.9732   9.4593

          k = 0.7500 0.0000-0.4582 (  4923 PWs)   bands (ev):

   -10.6982 -10.6560 -10.5934 -10.5843 -10.5497 -10.5330 -10.5219 -10.4854
   -10.4788 -10.4225   3.0226   4.3598   7.2622   8.4577

          k = 0.5000 0.0000 0.0000 (  4904 PWs)   bands (ev):

   -10.7396 -10.7100 -10.6979 -10.6042 -10.5197 -10.5122 -10.5082 -10.4653
   -10.4631 -10.3936   0.7801   4.3543   7.0803  10.7930

          k = 0.7500-0.7500-1.8328 (  4904 PWs)   bands (ev):

   -10.7306 -10.7306 -10.5984 -10.5984 -10.5347 -10.5347 -10.4853 -10.4853
   -10.4564 -10.4564   2.4050   2.4050   7.9921   7.9921

          k = 0.5000-0.5000-0.9164 (  4952 PWs)   bands (ev):

   -10.7068 -10.7068 -10.6364 -10.6364 -10.5287 -10.5287 -10.4347 -10.4347
   -10.4078 -10.4078   4.8058   4.8058   7.2814   7.2814

          k = 0.0000 0.0000-1.8328 (  4920 PWs)   bands (ev):

   -10.7334 -10.7334 -10.5345 -10.5345 -10.5245 -10.5245 -10.5130 -10.5130
   -10.5000 -10.5000   3.2427   3.2427   6.0124   6.0124

     highest occupied level (ev):    11.4188

!    total energy              =    -325.57137439 Ry
     estimated scf accuracy    <          7.8E-09 Ry

     The total energy is the sum of the following terms:
     one-electron contribution =    -107.30621153 Ry
     hartree contribution      =      74.47144491 Ry
     xc contribution           =     -95.22130458 Ry
     ewald contribution        =    -197.51530320 Ry

     convergence has been achieved in   5 iterations

     Writing all to output data dir ./beta-sn-scf/betatin.save/ :
     XML data file, charge density, pseudopotentials, collected wavefunctions

     init_run     :      0.29s CPU      0.33s WALL (       1 calls)
     electrons    :      0.35s CPU      0.40s WALL (       1 calls)

     Called by init_run:
     wfcinit      :      0.02s CPU      0.03s WALL (       1 calls)
     potinit      :      0.03s CPU      0.03s WALL (       1 calls)
     hinit0       :      0.20s CPU      0.22s WALL (       1 calls)

     Called by electrons:
     c_bands      :      0.22s CPU      0.23s WALL (       6 calls)
     sum_band     :      0.05s CPU      0.07s WALL (       6 calls)
     v_of_rho     :      0.05s CPU      0.06s WALL (       6 calls)
     newd         :      0.02s CPU      0.02s WALL (       6 calls)
     mix_rho      :      0.00s CPU      0.01s WALL (       6 calls)

     Called by c_bands:
     init_us_2    :      0.00s CPU      0.00s WALL (      26 calls)
     cegterg      :      0.20s CPU      0.21s WALL (      12 calls)

     Called by *egterg:
     cdiaghg      :      0.02s CPU      0.02s WALL (      53 calls)
     h_psi        :      0.18s CPU      0.19s WALL (      57 calls)
     s_psi        :      0.00s CPU      0.00s WALL (      57 calls)
     g_psi        :      0.00s CPU      0.00s WALL (      43 calls)

     Called by h_psi:
     h_psi:calbec :      0.01s CPU      0.01s WALL (      57 calls)
     vloc_psi     :      0.17s CPU      0.17s WALL (      57 calls)
     add_vuspsi   :      0.00s CPU      0.00s WALL (      57 calls)

     General routines
     calbec       :      0.01s CPU      0.01s WALL (      69 calls)
     fft          :      0.19s CPU      0.20s WALL (      67 calls)
     ffts         :      0.00s CPU      0.00s WALL (       6 calls)
     fftw         :      0.18s CPU      0.19s WALL (    1122 calls)

     Parallel routines

     PWSCF        :      0.86s CPU      1.11s WALL


   This run was terminated on:  15:52:59   5Feb2026            

=------------------------------------------------------------------------------=
   JOB DONE.
=------------------------------------------------------------------------------=
