
     Program PWSCF v.7.3.1 starts on  5Feb2026 at 15:53: 6 

     This program is part of the open-source Quantum ESPRESSO suite
     for quantum simulation of materials; please cite
         "P. Giannozzi et al., J. Phys.:Condens. Matter 21 395502 (2009);
         "P. Giannozzi et al., J. Phys.:Condens. Matter 29 465901 (2017);
         "P. Giannozzi et al., J. Chem. Phys. 152 154105 (2020);
          URL http://www.quantum-espresso.org", 
     in publications or presentations arising from this work. More details at
     http://www.quantum-espresso.org/quote

     Parallel version (MPI), running on   128 processors

     MPI processes distributed on     1 nodes
     242334 MiB available memory on the printing compute node when the environment starts

     Waiting for input...
     Reading input from standard input

     Current dimensions of program PWSCF are:
     Max number of different atomic species (ntypx) = 10
     Max number of k-points (npk) =  40000
     Max angular momentum in pseudopotentials (lmaxx) =  4

     K-points division:     npool     =       8
     R & G space division:  proc/nbgrp/npool/nimage =      16
     Subspace diagonalization in iterative solution of the eigenvalue problem:
     a serial algorithm will be used


     Parallelization info
     --------------------
     sticks:   dense  smooth     PW     G-vecs:    dense   smooth      PW
     Min         120     120     38                 2543     2543     453
     Max         121     121     39                 2546     2546     454
     Sum        1925    1925    615                40709    40709    7251

     Using Slab Decomposition



     bravais-lattice index     =            7
     lattice parameter (alat)  =      11.0200  a.u.
     unit-cell volume          =     365.0809 (a.u.)^3
     number of atoms/cell      =            2
     number of atomic types    =            1
     number of electrons       =        28.00
     number of Kohn-Sham states=           14
     kinetic-energy cutoff     =      88.0000  Ry
     charge density cutoff     =     352.0000  Ry
     scf convergence threshold =      1.0E-07
     mixing beta               =       0.7000
     number of iterations used =            8  plain     mixing
     Exchange-correlation=  SLA  PW   GGX  GGC
                           (   1   4   2   2   0   0   0)

     celldm(1)=  11.020000  celldm(2)=   0.000000  celldm(3)=   0.545600
     celldm(4)=   0.000000  celldm(5)=   0.000000  celldm(6)=   0.000000

     crystal axes: (cart. coord. in units of alat)
               a(1) = (   0.500000  -0.500000   0.272800 )  
               a(2) = (   0.500000   0.500000   0.272800 )  
               a(3) = (  -0.500000  -0.500000   0.272800 )  

     reciprocal axes: (cart. coord. in units 2 pi/alat)
               b(1) = (  1.000000 -1.000000  0.000000 )  
               b(2) = (  0.000000  1.000000  1.832845 )  
               b(3) = ( -1.000000  0.000000  1.832845 )  


     PseudoPot. # 1 for Sn read from file:
     ./Sn.pw91-n-van.UPF
     MD5 check sum: a38d2a872edd1a4efd76c0a1a38f7031
     Pseudo is Ultrasoft + core correction, Zval = 14.0
     Generated by new atomic code, or converted to UPF format
     Using radial grid of  891 points,  6 beta functions with: 
                l(1) =   0
                l(2) =   0
                l(3) =   1
                l(4) =   1
                l(5) =   2
                l(6) =   2
     Q(r) pseudized with  8 coefficients,  rinner =    1.100   1.100   1.100
                                                       1.100   1.100

     atomic species   valence    mass     pseudopotential
     Sn               14.00   118.70000     Sn( 1.00)

     16 Sym. Ops., with inversion, found (12 have fractional translation)



   Cartesian axes

     site n.     atom                  positions (alat units)
         1        Sn     tau(   1) = (   0.0000000  -0.2500000   0.0682000  )
         2        Sn     tau(   2) = (   0.0000000   0.2500000  -0.0682000  )

     number of k points=    13
                       cart. coord. in units 2pi/alat
        k(    1) = (   0.0000000   0.0000000   0.0000000), wk =   0.0312500
        k(    2) = (  -0.2500000   0.0000000   0.4582111), wk =   0.2500000
        k(    3) = (   0.5000000   0.0000000  -0.9164223), wk =   0.1250000
        k(    4) = (  -0.2500000   0.2500000   0.9164223), wk =   0.2500000
        k(    5) = (   0.5000000   0.2500000  -0.4582111), wk =   0.5000000
        k(    6) = (   0.2500000   0.2500000   0.0000000), wk =   0.1250000
        k(    7) = (   0.5000000  -0.5000000  -1.8328446), wk =   0.0625000
        k(    8) = (   0.0000000   0.0000000   0.9164223), wk =   0.0625000
        k(    9) = (   0.7500000   0.0000000  -0.4582111), wk =   0.2500000
        k(   10) = (   0.5000000   0.0000000   0.0000000), wk =   0.1250000
        k(   11) = (   0.7500000  -0.7500000  -1.8328446), wk =   0.1250000
        k(   12) = (   0.5000000  -0.5000000  -0.9164223), wk =   0.0625000
        k(   13) = (   0.0000000   0.0000000  -1.8328446), wk =   0.0312500

     Dense  grid:    40709 G-vectors     FFT dimensions: (  50,  50,  50)

     Estimated max dynamical RAM per process >       4.58 MB

     Estimated total dynamical RAM >     516.06 MB

     Initial potential from superposition of free atoms

     starting charge      27.9964, renormalised to      28.0000
     Starting wfcs are   18 randomized atomic wfcs

     total cpu time spent up to now is        0.6 secs

     per-process dynamical memory:    12.3 Mb

     Self-consistent Calculation

     iteration #  1     ecut=    88.00 Ry     beta= 0.70
     Davidson diagonalization with overlap
     ethr =  1.00E-02,  avg # of iterations =  1.8

     Threshold (ethr) on eigenvalues was too large:
     Diagonalizing with lowered threshold

     Davidson diagonalization with overlap
     ethr =  2.41E-05,  avg # of iterations =  3.9

     total cpu time spent up to now is        0.8 secs

     total energy              =    -325.57069524 Ry
     estimated scf accuracy    <       0.00693654 Ry

     iteration #  2     ecut=    88.00 Ry     beta= 0.70
     Davidson diagonalization with overlap
     ethr =  2.48E-05,  avg # of iterations =  2.0

     total cpu time spent up to now is        0.8 secs

     total energy              =    -325.57166632 Ry
     estimated scf accuracy    <       0.00056015 Ry

     iteration #  3     ecut=    88.00 Ry     beta= 0.70
     Davidson diagonalization with overlap
     ethr =  2.00E-06,  avg # of iterations =  2.5

     total cpu time spent up to now is        0.9 secs

     total energy              =    -325.57173231 Ry
     estimated scf accuracy    <       0.00004359 Ry

     iteration #  4     ecut=    88.00 Ry     beta= 0.70
     Davidson diagonalization with overlap
     ethr =  1.56E-07,  avg # of iterations =  2.4

     total cpu time spent up to now is        0.9 secs

     total energy              =    -325.57173707 Ry
     estimated scf accuracy    <       0.00000032 Ry

     iteration #  5     ecut=    88.00 Ry     beta= 0.70
     Davidson diagonalization with overlap
     ethr =  1.14E-09,  avg # of iterations =  3.9

     total cpu time spent up to now is        1.0 secs

     End of self-consistent calculation

          k = 0.0000 0.0000 0.0000 (  5101 PWs)   bands (ev):

   -10.8044 -10.7215 -10.6779 -10.6661 -10.5163 -10.5163 -10.5051 -10.5051
   -10.4134 -10.3004  -0.3473   7.1611   8.8398   8.8398

          k =-0.2500 0.0000 0.4582 (  5097 PWs)   bands (ev):

   -10.7684 -10.6407 -10.6358 -10.5945 -10.5721 -10.5307 -10.5223 -10.4993
   -10.4343 -10.3350   0.8910   6.5838   9.0441  11.2833

          k = 0.5000 0.0000-0.9164 (  5098 PWs)   bands (ev):

   -10.7290 -10.6585 -10.6419 -10.6023 -10.5683 -10.5652 -10.4666 -10.4191
   -10.4154 -10.3687   3.8532   5.3957   8.4874   9.1144

          k =-0.2500 0.2500 0.9164 (  5093 PWs)   bands (ev):

   -10.7429 -10.6552 -10.6119 -10.5950 -10.5930 -10.5423 -10.4835 -10.4642
   -10.3876 -10.3596   3.7386   6.0509   7.1234   9.1085

          k = 0.5000 0.2500-0.4582 (  5089 PWs)   bands (ev):

   -10.7116 -10.6522 -10.6485 -10.5945 -10.5775 -10.5201 -10.4866 -10.4788
   -10.4615 -10.3969   2.0034   4.1410   9.3956  10.6283

          k = 0.2500 0.2500 0.0000 (  5087 PWs)   bands (ev):

   -10.7543 -10.7283 -10.6930 -10.6362 -10.5428 -10.4954 -10.4938 -10.4857
   -10.4426 -10.3492   0.2174   4.5877   9.5065  10.5379

          k = 0.5000-0.5000-1.8328 (  5068 PWs)   bands (ev):

   -10.7247 -10.7247 -10.6367 -10.6367 -10.5430 -10.5430 -10.4714 -10.4714
   -10.4322 -10.4322   1.9005   1.9005  11.4186  11.4186

          k = 0.0000 0.0000 0.9164 (  5101 PWs)   bands (ev):

   -10.7344 -10.6268 -10.6268 -10.6075 -10.5622 -10.5622 -10.5383 -10.4449
   -10.3900 -10.3441   3.2954   7.1430   7.9732   9.4591

          k = 0.7500 0.0000-0.4582 (  5071 PWs)   bands (ev):

   -10.6988 -10.6565 -10.5938 -10.5846 -10.5500 -10.5332 -10.5223 -10.4858
   -10.4793 -10.4230   3.0225   4.3597   7.2620   8.4575

          k = 0.5000 0.0000 0.0000 (  5076 PWs)   bands (ev):

   -10.7401 -10.7105 -10.6984 -10.6047 -10.5201 -10.5124 -10.5086 -10.4656
   -10.4636 -10.3941   0.7799   4.3542   7.0801  10.7929

          k = 0.7500-0.7500-1.8328 (  5080 PWs)   bands (ev):

   -10.7312 -10.7312 -10.5989 -10.5989 -10.5352 -10.5352 -10.4857 -10.4857
   -10.4569 -10.4569   2.4049   2.4049   7.9919   7.9919

          k = 0.5000-0.5000-0.9164 (  5096 PWs)   bands (ev):

   -10.7072 -10.7072 -10.6367 -10.6367 -10.5292 -10.5292 -10.4352 -10.4352
   -10.4083 -10.4083   4.8057   4.8057   7.2813   7.2813

          k = 0.0000 0.0000-1.8328 (  5080 PWs)   bands (ev):

   -10.7339 -10.7339 -10.5351 -10.5351 -10.5249 -10.5249 -10.5132 -10.5132
   -10.5005 -10.5005   3.2426   3.2426   6.0122   6.0122

     highest occupied level (ev):    11.4186

!    total energy              =    -325.57173738 Ry
     estimated scf accuracy    <       0.00000001 Ry

     The total energy is the sum of the following terms:
     one-electron contribution =    -107.30683516 Ry
     hartree contribution      =      74.47170863 Ry
     xc contribution           =     -95.22130766 Ry
     ewald contribution        =    -197.51530320 Ry

     convergence has been achieved in   5 iterations

     Writing all to output data dir ./beta-sn-scf/betatin.save/ :
     XML data file, charge density, pseudopotentials, collected wavefunctions

     init_run     :      0.27s CPU      0.33s WALL (       1 calls)
     electrons    :      0.34s CPU      0.40s WALL (       1 calls)

     Called by init_run:
     wfcinit      :      0.01s CPU      0.03s WALL (       1 calls)
     potinit      :      0.01s CPU      0.03s WALL (       1 calls)
     hinit0       :      0.21s CPU      0.22s WALL (       1 calls)

     Called by electrons:
     c_bands      :      0.21s CPU      0.23s WALL (       6 calls)
     sum_band     :      0.05s CPU      0.07s WALL (       6 calls)
     v_of_rho     :      0.05s CPU      0.06s WALL (       6 calls)
     newd         :      0.02s CPU      0.02s WALL (       6 calls)
     mix_rho      :      0.00s CPU      0.01s WALL (       6 calls)

     Called by c_bands:
     init_us_2    :      0.00s CPU      0.00s WALL (      26 calls)
     cegterg      :      0.18s CPU      0.20s WALL (      12 calls)

     Called by *egterg:
     cdiaghg      :      0.02s CPU      0.02s WALL (      49 calls)
     h_psi        :      0.16s CPU      0.18s WALL (      53 calls)
     s_psi        :      0.00s CPU      0.00s WALL (      53 calls)
     g_psi        :      0.00s CPU      0.00s WALL (      39 calls)

     Called by h_psi:
     h_psi:calbec :      0.01s CPU      0.01s WALL (      53 calls)
     vloc_psi     :      0.15s CPU      0.17s WALL (      53 calls)
     add_vuspsi   :      0.00s CPU      0.00s WALL (      53 calls)

     General routines
     calbec       :      0.01s CPU      0.01s WALL (      65 calls)
     fft          :      0.19s CPU      0.20s WALL (      67 calls)
     ffts         :      0.00s CPU      0.00s WALL (       6 calls)
     fftw         :      0.16s CPU      0.18s WALL (    1104 calls)

     Parallel routines

     PWSCF        :      0.84s CPU      1.10s WALL


   This run was terminated on:  15:53: 7   5Feb2026            

=------------------------------------------------------------------------------=
   JOB DONE.
=------------------------------------------------------------------------------=
