
     Program PWSCF v.7.3.1 starts on  5Feb2026 at 15:53:27 

     This program is part of the open-source Quantum ESPRESSO suite
     for quantum simulation of materials; please cite
         "P. Giannozzi et al., J. Phys.:Condens. Matter 21 395502 (2009);
         "P. Giannozzi et al., J. Phys.:Condens. Matter 29 465901 (2017);
         "P. Giannozzi et al., J. Chem. Phys. 152 154105 (2020);
          URL http://www.quantum-espresso.org", 
     in publications or presentations arising from this work. More details at
     http://www.quantum-espresso.org/quote

     Parallel version (MPI), running on   128 processors

     MPI processes distributed on     1 nodes
     242305 MiB available memory on the printing compute node when the environment starts

     Waiting for input...
     Reading input from standard input

     Current dimensions of program PWSCF are:
     Max number of different atomic species (ntypx) = 10
     Max number of k-points (npk) =  40000
     Max angular momentum in pseudopotentials (lmaxx) =  4

     K-points division:     npool     =       8
     R & G space division:  proc/nbgrp/npool/nimage =      16
     Subspace diagonalization in iterative solution of the eigenvalue problem:
     a serial algorithm will be used


     Parallelization info
     --------------------
     sticks:   dense  smooth     PW     G-vecs:    dense   smooth      PW
     Min         126     126     40                 2723     2723     487
     Max         127     127     41                 2725     2725     488
     Sum        2027    2027    643                43583    43583    7795

     Using Slab Decomposition



     bravais-lattice index     =            7
     lattice parameter (alat)  =      11.0200  a.u.
     unit-cell volume          =     365.0809 (a.u.)^3
     number of atoms/cell      =            2
     number of atomic types    =            1
     number of electrons       =        28.00
     number of Kohn-Sham states=           14
     kinetic-energy cutoff     =      92.0000  Ry
     charge density cutoff     =     368.0000  Ry
     scf convergence threshold =      1.0E-07
     mixing beta               =       0.7000
     number of iterations used =            8  plain     mixing
     Exchange-correlation=  SLA  PW   GGX  GGC
                           (   1   4   2   2   0   0   0)

     celldm(1)=  11.020000  celldm(2)=   0.000000  celldm(3)=   0.545600
     celldm(4)=   0.000000  celldm(5)=   0.000000  celldm(6)=   0.000000

     crystal axes: (cart. coord. in units of alat)
               a(1) = (   0.500000  -0.500000   0.272800 )  
               a(2) = (   0.500000   0.500000   0.272800 )  
               a(3) = (  -0.500000  -0.500000   0.272800 )  

     reciprocal axes: (cart. coord. in units 2 pi/alat)
               b(1) = (  1.000000 -1.000000  0.000000 )  
               b(2) = (  0.000000  1.000000  1.832845 )  
               b(3) = ( -1.000000  0.000000  1.832845 )  


     PseudoPot. # 1 for Sn read from file:
     ./Sn.pw91-n-van.UPF
     MD5 check sum: a38d2a872edd1a4efd76c0a1a38f7031
     Pseudo is Ultrasoft + core correction, Zval = 14.0
     Generated by new atomic code, or converted to UPF format
     Using radial grid of  891 points,  6 beta functions with: 
                l(1) =   0
                l(2) =   0
                l(3) =   1
                l(4) =   1
                l(5) =   2
                l(6) =   2
     Q(r) pseudized with  8 coefficients,  rinner =    1.100   1.100   1.100
                                                       1.100   1.100

     atomic species   valence    mass     pseudopotential
     Sn               14.00   118.70000     Sn( 1.00)

     16 Sym. Ops., with inversion, found (12 have fractional translation)



   Cartesian axes

     site n.     atom                  positions (alat units)
         1        Sn     tau(   1) = (   0.0000000  -0.2500000   0.0682000  )
         2        Sn     tau(   2) = (   0.0000000   0.2500000  -0.0682000  )

     number of k points=    13
                       cart. coord. in units 2pi/alat
        k(    1) = (   0.0000000   0.0000000   0.0000000), wk =   0.0312500
        k(    2) = (  -0.2500000   0.0000000   0.4582111), wk =   0.2500000
        k(    3) = (   0.5000000   0.0000000  -0.9164223), wk =   0.1250000
        k(    4) = (  -0.2500000   0.2500000   0.9164223), wk =   0.2500000
        k(    5) = (   0.5000000   0.2500000  -0.4582111), wk =   0.5000000
        k(    6) = (   0.2500000   0.2500000   0.0000000), wk =   0.1250000
        k(    7) = (   0.5000000  -0.5000000  -1.8328446), wk =   0.0625000
        k(    8) = (   0.0000000   0.0000000   0.9164223), wk =   0.0625000
        k(    9) = (   0.7500000   0.0000000  -0.4582111), wk =   0.2500000
        k(   10) = (   0.5000000   0.0000000   0.0000000), wk =   0.1250000
        k(   11) = (   0.7500000  -0.7500000  -1.8328446), wk =   0.1250000
        k(   12) = (   0.5000000  -0.5000000  -0.9164223), wk =   0.0625000
        k(   13) = (   0.0000000   0.0000000  -1.8328446), wk =   0.0312500

     Dense  grid:    43583 G-vectors     FFT dimensions: (  54,  54,  54)

     Estimated max dynamical RAM per process >       4.89 MB

     Estimated total dynamical RAM >     551.41 MB

     Initial potential from superposition of free atoms

     starting charge      27.9964, renormalised to      28.0000
     Starting wfcs are   18 randomized atomic wfcs

     total cpu time spent up to now is        0.7 secs

     per-process dynamical memory:    12.7 Mb

     Self-consistent Calculation

     iteration #  1     ecut=    92.00 Ry     beta= 0.70
     Davidson diagonalization with overlap
     ethr =  1.00E-02,  avg # of iterations =  1.8

     Threshold (ethr) on eigenvalues was too large:
     Diagonalizing with lowered threshold

     Davidson diagonalization with overlap
     ethr =  2.40E-05,  avg # of iterations =  3.8

     total cpu time spent up to now is        0.8 secs

     total energy              =    -325.57131720 Ry
     estimated scf accuracy    <       0.00693983 Ry

     iteration #  2     ecut=    92.00 Ry     beta= 0.70
     Davidson diagonalization with overlap
     ethr =  2.48E-05,  avg # of iterations =  2.0

     total cpu time spent up to now is        0.9 secs

     total energy              =    -325.57228968 Ry
     estimated scf accuracy    <       0.00055843 Ry

     iteration #  3     ecut=    92.00 Ry     beta= 0.70
     Davidson diagonalization with overlap
     ethr =  1.99E-06,  avg # of iterations =  2.4

     total cpu time spent up to now is        1.0 secs

     total energy              =    -325.57235762 Ry
     estimated scf accuracy    <       0.00004335 Ry

     iteration #  4     ecut=    92.00 Ry     beta= 0.70
     Davidson diagonalization with overlap
     ethr =  1.55E-07,  avg # of iterations =  2.8

     total cpu time spent up to now is        1.0 secs

     total energy              =    -325.57236242 Ry
     estimated scf accuracy    <       0.00000024 Ry

     iteration #  5     ecut=    92.00 Ry     beta= 0.70
     Davidson diagonalization with overlap
     ethr =  8.42E-10,  avg # of iterations =  4.4

     total cpu time spent up to now is        1.1 secs

     End of self-consistent calculation

          k = 0.0000 0.0000 0.0000 (  5421 PWs)   bands (ev):

   -10.8045 -10.7218 -10.6779 -10.6665 -10.5163 -10.5163 -10.5052 -10.5052
   -10.4131 -10.3009  -0.3473   7.1611   8.8398   8.8398

          k =-0.2500 0.0000 0.4582 (  5437 PWs)   bands (ev):

   -10.7686 -10.6405 -10.6360 -10.5947 -10.5722 -10.5309 -10.5224 -10.4995
   -10.4341 -10.3355   0.8909   6.5838   9.0441  11.2832

          k = 0.5000 0.0000-0.9164 (  5452 PWs)   bands (ev):

   -10.7292 -10.6587 -10.6419 -10.6025 -10.5683 -10.5654 -10.4665 -10.4195
   -10.4157 -10.3691   3.8532   5.3956   8.4873   9.1143

          k =-0.2500 0.2500 0.9164 (  5440 PWs)   bands (ev):

   -10.7431 -10.6553 -10.6120 -10.5949 -10.5931 -10.5425 -10.4837 -10.4642
   -10.3879 -10.3600   3.7386   6.0509   7.1233   9.1084

          k = 0.5000 0.2500-0.4582 (  5438 PWs)   bands (ev):

   -10.7118 -10.6523 -10.6487 -10.5946 -10.5774 -10.5202 -10.4865 -10.4789
   -10.4617 -10.3972   2.0033   4.1409   9.3956  10.6282

          k = 0.2500 0.2500 0.0000 (  5436 PWs)   bands (ev):

   -10.7545 -10.7286 -10.6933 -10.6360 -10.5430 -10.4955 -10.4938 -10.4858
   -10.4425 -10.3495   0.2173   4.5876   9.5064  10.5378

          k = 0.5000-0.5000-1.8328 (  5436 PWs)   bands (ev):

   -10.7250 -10.7250 -10.6370 -10.6370 -10.5429 -10.5429 -10.4716 -10.4716
   -10.4324 -10.4324   1.9005   1.9005  11.4185  11.4185

          k = 0.0000 0.0000 0.9164 (  5449 PWs)   bands (ev):

   -10.7348 -10.6269 -10.6269 -10.6073 -10.5624 -10.5624 -10.5386 -10.4449
   -10.3904 -10.3444   3.2953   7.1430   7.9730   9.4591

          k = 0.7500 0.0000-0.4582 (  5435 PWs)   bands (ev):

   -10.6990 -10.6567 -10.5940 -10.5845 -10.5500 -10.5334 -10.5225 -10.4857
   -10.4796 -10.4233   3.0225   4.3596   7.2619   8.4575

          k = 0.5000 0.0000 0.0000 (  5437 PWs)   bands (ev):

   -10.7405 -10.7109 -10.6988 -10.6045 -10.5204 -10.5125 -10.5087 -10.4658
   -10.4635 -10.3945   0.7799   4.3542   7.0800  10.7928

          k = 0.7500-0.7500-1.8328 (  5426 PWs)   bands (ev):

   -10.7315 -10.7315 -10.5992 -10.5992 -10.5351 -10.5351 -10.4858 -10.4858
   -10.4570 -10.4570   2.4048   2.4048   7.9918   7.9918

          k = 0.5000-0.5000-0.9164 (  5436 PWs)   bands (ev):

   -10.7073 -10.7073 -10.6368 -10.6368 -10.5291 -10.5291 -10.4355 -10.4355
   -10.4086 -10.4086   4.8057   4.8057   7.2812   7.2812

          k = 0.0000 0.0000-1.8328 (  5482 PWs)   bands (ev):

   -10.7344 -10.7344 -10.5354 -10.5354 -10.5249 -10.5249 -10.5133 -10.5133
   -10.5006 -10.5006   3.2426   3.2426   6.0121   6.0121

     highest occupied level (ev):    11.4185

!    total energy              =    -325.57236263 Ry
     estimated scf accuracy    <          5.6E-09 Ry

     The total energy is the sum of the following terms:
     one-electron contribution =    -107.30735001 Ry
     hartree contribution      =      74.47146847 Ry
     xc contribution           =     -95.22117789 Ry
     ewald contribution        =    -197.51530320 Ry

     convergence has been achieved in   5 iterations

     Writing all to output data dir ./beta-sn-scf/betatin.save/ :
     XML data file, charge density, pseudopotentials, collected wavefunctions

     init_run     :      0.32s CPU      0.36s WALL (       1 calls)
     electrons    :      0.38s CPU      0.44s WALL (       1 calls)

     Called by init_run:
     wfcinit      :      0.02s CPU      0.03s WALL (       1 calls)
     potinit      :      0.02s CPU      0.03s WALL (       1 calls)
     hinit0       :      0.24s CPU      0.25s WALL (       1 calls)

     Called by electrons:
     c_bands      :      0.23s CPU      0.26s WALL (       6 calls)
     sum_band     :      0.07s CPU      0.07s WALL (       6 calls)
     v_of_rho     :      0.05s CPU      0.07s WALL (       6 calls)
     newd         :      0.01s CPU      0.02s WALL (       6 calls)
     mix_rho      :      0.01s CPU      0.01s WALL (       6 calls)

     Called by c_bands:
     init_us_2    :      0.00s CPU      0.00s WALL (      26 calls)
     cegterg      :      0.21s CPU      0.23s WALL (      12 calls)

     Called by *egterg:
     cdiaghg      :      0.02s CPU      0.02s WALL (      56 calls)
     h_psi        :      0.19s CPU      0.21s WALL (      60 calls)
     s_psi        :      0.00s CPU      0.00s WALL (      60 calls)
     g_psi        :      0.00s CPU      0.00s WALL (      46 calls)

     Called by h_psi:
     h_psi:calbec :      0.01s CPU      0.01s WALL (      60 calls)
     vloc_psi     :      0.18s CPU      0.20s WALL (      60 calls)
     add_vuspsi   :      0.00s CPU      0.00s WALL (      60 calls)

     General routines
     calbec       :      0.01s CPU      0.01s WALL (      72 calls)
     fft          :      0.22s CPU      0.23s WALL (      67 calls)
     ffts         :      0.00s CPU      0.00s WALL (       6 calls)
     fftw         :      0.19s CPU      0.21s WALL (    1120 calls)

     Parallel routines

     PWSCF        :      0.95s CPU      1.21s WALL


   This run was terminated on:  15:53:29   5Feb2026            

=------------------------------------------------------------------------------=
   JOB DONE.
=------------------------------------------------------------------------------=
