
     Program BANDS v.7.3.1 starts on 24Feb2026 at 15:54:20 

     This program is part of the open-source Quantum ESPRESSO suite
     for quantum simulation of materials; please cite
         "P. Giannozzi et al., J. Phys.:Condens. Matter 21 395502 (2009);
         "P. Giannozzi et al., J. Phys.:Condens. Matter 29 465901 (2017);
         "P. Giannozzi et al., J. Chem. Phys. 152 154105 (2020);
          URL http://www.quantum-espresso.org", 
     in publications or presentations arising from this work. More details at
     http://www.quantum-espresso.org/quote

     Parallel version (MPI), running on     1 processors

     MPI processes distributed on     1 nodes
     225571 MiB available memory on the printing compute node when the environment starts


     Reading xml data from directory:

     ./alpha-bands/alpha.save/

     IMPORTANT: XC functional enforced from input :
     Exchange-correlation= PW91
                           (   1   4   2   2   0   0   0)
     Any further DFT definition will be discarded
     Please, verify this is what you really want


     G-vector sticks info
     --------------------
     sticks:   dense  smooth     PW     G-vecs:    dense   smooth      PW
     Sum        7603    7603   2029               439479   439479   60039

     Using Slab Decomposition

     Reading collected, re-writing distributed wavefunctions
     high-symmetry point:  0.0000 0.0000 0.0000   x coordinate   0.0000
     high-symmetry point: -1.0000 0.0000 0.0000   x coordinate   1.0000
     high-symmetry point: -1.0000 0.5000 0.0000   x coordinate   1.5000
     high-symmetry point: -0.7500 0.7500 0.0000   x coordinate   1.8536
     high-symmetry point:  0.0000 0.0000 0.0000   x coordinate   2.9142
     high-symmetry point: -0.5000 0.5000 0.5000   x coordinate   3.7802

     Plottable bands (eV) written to file alpha-bands.dat.gnu
     Bands written to file alpha-bands.dat

 **************************************************************************

                    xk=(   0.00000,   0.00000,   0.00000  )

     point group O_h (m-3m) 
     there are 10 classes
     the character table:

       E     8C3   3C2   6C4   6C2'  i     8S6   3s_h  6S4   6s_d 
A_1g   1.00  1.00  1.00  1.00  1.00  1.00  1.00  1.00  1.00  1.00
A_2g   1.00  1.00  1.00 -1.00 -1.00  1.00  1.00  1.00 -1.00 -1.00
E_g    2.00 -1.00  2.00  0.00  0.00  2.00 -1.00  2.00  0.00  0.00
T_1g   3.00  0.00 -1.00  1.00 -1.00  3.00  0.00 -1.00  1.00 -1.00
T_2g   3.00  0.00 -1.00 -1.00  1.00  3.00  0.00 -1.00 -1.00  1.00
A_1u   1.00  1.00  1.00  1.00  1.00 -1.00 -1.00 -1.00 -1.00 -1.00
A_2u   1.00  1.00  1.00 -1.00 -1.00 -1.00 -1.00 -1.00  1.00  1.00
E_u    2.00 -1.00  2.00  0.00  0.00 -2.00  1.00 -2.00  0.00  0.00
T_1u   3.00  0.00 -1.00  1.00 -1.00 -3.00  0.00  1.00 -1.00  1.00
T_2u   3.00  0.00 -1.00 -1.00  1.00 -3.00  0.00  1.00  1.00 -1.00

     the symmetry operations in each class and the name of the first element:

     E        1
                                                                 
     8C3     17   19   20   18   24   21   22   23
                                                                 
     3C2      2    4    3
                                                                 
     6C4      7    8   15   16   12   11
                                                                 
     6C2'     5    6   14   13   10    9
                                                                 
     i       25
                                                                 
     8S6     41   43   44   42   48   45   46   47
                                                                 
     3s_h    26   28   27
                                                                 
     6S4     31   32   39   40   36   35
                                                                 
     6s_d    29   30   38   37   34   33
                                                                 

     Band symmetry, O_h (m-3m)  point group:

     e(  1 -  3) =    -13.77232  eV     3   --> T_2g G_25' G_5+
     e(  4 -  5) =    -13.71175  eV     2   --> E_u  G_12' G_3-
     e(  6 -  8) =    -13.39546  eV     3   --> T_1u G_15  G_4-
     e(  9 - 10) =    -13.38631  eV     2   --> E_g  G_12  G_3+
     e( 11 - 11) =     -2.73790  eV     1   --> A_1g G_1   G_1+
     e( 12 - 12) =      7.29309  eV     1   --> A_2u G_2'  G_2-
     e( 13 - 15) =      8.02457  eV     3   --> T_2g G_25' G_5+
     e( 16 - 18) =     10.10091  eV     3   --> T_1u G_15  G_4-
     e( 19 - 19) =     12.97433  eV     1   --> A_1g G_1   G_1+
     e( 20 - 21) =     15.94156  eV     2   --> E_u  G_12' G_3-
     e( 22 - 24) =     16.34028  eV     3   --> T_2g G_25' G_5+
     e( 25 - 25) =     18.82316  eV     1   --> A_2u G_2'  G_2-
     e( 26 - 28) =     26.60888  eV     3   --> T_2u G_25  G_5-
     e( 29 - 31) =     28.57156  eV     3   --> T_1u G_15  G_4-
     e( 32 - 34) =     29.66448  eV     3   --> T_2g G_25' G_5+
     e( 35 - 36) =     29.76720  eV     2   --> E_g  G_12  G_3+

 **************************************************************************

 **************************************************************************

                    xk=(  -0.02000,   0.00000,   0.00000  )

     point group C_4v (4mm) 
     there are  5 classes
     the character table:

       E     2C4   C2    2s_v  2s_d 
A_1    1.00  1.00  1.00  1.00  1.00
A_2    1.00  1.00  1.00 -1.00 -1.00
B_1    1.00 -1.00  1.00  1.00 -1.00
B_2    1.00 -1.00  1.00 -1.00  1.00
E      2.00  0.00 -2.00  0.00  0.00

     the symmetry operations in each class and the name of the first element:

     E        1
                                                                 
     2C4      3    4
                                                                 
     C2       2
                                                                 
     2s_v     5    6
                                                                 
     2s_d     7    8
                                                                 

     Band symmetry, C_4v (4mm)  point group:

     e(  1 -  3) =    -13.77242  eV     3   --> B_2  G_4 D_2'  
     e(  1 -  3) =    -13.77242  eV     3   --> E    G_5 D_5   
     e(  4 -  4) =    -13.71167  eV     1   --> A_2  G_2 D_1'  
     e(  5 -  5) =    -13.71150  eV     1   --> B_2  G_4 D_2'  
     e(  6 -  6) =    -13.39682  eV     1   --> A_1  G_1 D_1   
     e(  7 -  8) =    -13.39537  eV     2   --> E    G_5 D_5   
     e(  9 -  9) =    -13.38639  eV     1   --> B_1  G_3 D_2   
     e( 10 - 10) =    -13.38514  eV     1   --> A_1  G_1 D_1   
     e( 11 - 11) =     -2.73659  eV     1   --> A_1  G_1 D_1   
     e( 12 - 12) =      7.26065  eV     1   --> B_2  G_4 D_2'  
     e( 13 - 14) =      8.01749  eV     2   --> E    G_5 D_5   
     e( 15 - 15) =      8.05648  eV     1   --> B_2  G_4 D_2'  
     e( 16 - 16) =     10.09633  eV     1   --> A_1  G_1 D_1   
     e( 17 - 18) =     10.10962  eV     2   --> E    G_5 D_5   
     e( 19 - 19) =     12.98196  eV     1   --> A_1  G_1 D_1   
     e( 20 - 20) =     15.87585  eV     1   --> B_2  G_4 D_2'  
     e( 21 - 21) =     15.94270  eV     1   --> A_2  G_2 D_1'  
     e( 22 - 23) =     16.34288  eV     2   --> E    G_5 D_5   
     e( 24 - 24) =     16.40170  eV     1   --> B_2  G_4 D_2'  
     e( 25 - 25) =     18.83461  eV     1   --> B_2  G_4 D_2'  
     e( 26 - 26) =     26.59074  eV     1   --> B_1  G_3 D_2   
     e( 27 - 28) =     26.60092  eV     2   --> E    G_5 D_5   
     e( 29 - 30) =     28.53088  eV     2   --> E    G_5 D_5   
     e( 31 - 31) =     28.53562  eV     1   --> A_1  G_1 D_1   
     e( 32 - 32) =     29.66532  eV     1   --> B_2  G_4 D_2'  
     e( 33 - 34) =     29.71635  eV     2   --> E    G_5 D_5   
     e( 35 - 35) =     29.78764  eV     1   --> B_1  G_3 D_2   
     e( 36 - 36) =     29.79743  eV     1   --> A_1  G_1 D_1   

 **************************************************************************

 **************************************************************************

                    xk=(  -0.04000,   0.00000,   0.00000  )

     Band symmetry, C_4v (4mm)  point group:

     e(  1 -  1) =    -13.77271  eV     1   --> B_2  G_4 D_2'  
     e(  2 -  3) =    -13.77256  eV     2   --> E    G_5 D_5   
     e(  4 -  4) =    -13.71142  eV     1   --> A_2  G_2 D_1'  
     e(  5 -  5) =    -13.71073  eV     1   --> B_2  G_4 D_2'  
     e(  6 -  6) =    -13.39986  eV     1   --> A_1  G_1 D_1   
     e(  7 -  8) =    -13.39512  eV     2   --> E    G_5 D_5   
     e(  9 -  9) =    -13.38663  eV     1   --> B_1  G_3 D_2   
     e( 10 - 10) =    -13.38267  eV     1   --> A_1  G_1 D_1   
     e( 11 - 11) =     -2.73267  eV     1   --> A_1  G_1 D_1   
     e( 12 - 12) =      7.17616  eV     1   --> B_2  G_4 D_2'  
     e( 13 - 14) =      7.99662  eV     2   --> E    G_5 D_5   
     e( 15 - 15) =      8.13936  eV     1   --> B_2  G_4 D_2'  
     e( 16 - 16) =     10.08276  eV     1   --> A_1  G_1 D_1   
     e( 17 - 18) =     10.13537  eV     2   --> E    G_5 D_5   
     e( 19 - 19) =     13.00468  eV     1   --> A_1  G_1 D_1   
     e( 20 - 20) =     15.73718  eV     1   --> B_2  G_4 D_2'  
     e( 21 - 21) =     15.94613  eV     1   --> A_2  G_2 D_1'  
     e( 22 - 23) =     16.35068  eV     2   --> E    G_5 D_5   
     e( 24 - 24) =     16.52743  eV     1   --> B_2  G_4 D_2'  
     e( 25 - 25) =     18.86906  eV     1   --> B_2  G_4 D_2'  
     e( 26 - 26) =     26.53767  eV     1   --> B_1  G_3 D_2   
     e( 27 - 28) =     26.57645  eV     2   --> E    G_5 D_5   
     e( 29 - 30) =     28.42851  eV     2   --> E    G_5 D_5   
     e( 31 - 31) =     28.43723  eV     1   --> A_1  G_1 D_1   
     e( 32 - 32) =     29.66786  eV     1   --> B_2  G_4 D_2'  
     e( 33 - 33) =     29.84760  eV     1   --> B_1  G_3 D_2   
     e( 34 - 35) =     29.85288  eV     2   --> E    G_5 D_5   
     e( 36 - 36) =     29.87872  eV     1   --> A_1  G_1 D_1   

 **************************************************************************

 **************************************************************************

                    xk=(  -0.06000,   0.00000,   0.00000  )

     Band symmetry, C_4v (4mm)  point group:

     e(  1 -  1) =    -13.77318  eV     1   --> B_2  G_4 D_2'  
     e(  2 -  3) =    -13.77286  eV     2   --> E    G_5 D_5   
     e(  4 -  4) =    -13.71101  eV     1   --> A_2  G_2 D_1'  
     e(  5 -  5) =    -13.70948  eV     1   --> B_2  G_4 D_2'  
     e(  6 -  6) =    -13.40356  eV     1   --> A_1  G_1 D_1   
     e(  7 -  8) =    -13.39469  eV     2   --> E    G_5 D_5   
     e(  9 -  9) =    -13.38702  eV     1   --> B_1  G_3 D_2   
     e( 10 - 10) =    -13.37991  eV     1   --> A_1  G_1 D_1   
     e( 11 - 11) =     -2.72613  eV     1   --> A_1  G_1 D_1   
     e( 12 - 12) =      7.06118  eV     1   --> B_2  G_4 D_2'  
     e( 13 - 14) =      7.96297  eV     2   --> E    G_5 D_5   
     e( 15 - 15) =      8.25158  eV     1   --> B_2  G_4 D_2'  
     e( 16 - 16) =     10.06064  eV     1   --> A_1  G_1 D_1   
     e( 17 - 18) =     10.17716  eV     2   --> E    G_5 D_5   
     e( 19 - 19) =     13.04206  eV     1   --> A_1  G_1 D_1   
     e( 20 - 20) =     15.57613  eV     1   --> B_2  G_4 D_2'  
     e( 21 - 21) =     15.95184  eV     1   --> A_2  G_2 D_1'  
     e( 22 - 23) =     16.36370  eV     2   --> E    G_5 D_5   
     e( 24 - 24) =     16.66676  eV     1   --> B_2  G_4 D_2'  
     e( 25 - 25) =     18.92672  eV     1   --> B_2  G_4 D_2'  
     e( 26 - 26) =     26.45332  eV     1   --> B_1  G_3 D_2   
     e( 27 - 28) =     26.53384  eV     2   --> E    G_5 D_5   
     e( 29 - 29) =     28.29513  eV     1   --> A_1  G_1 D_1   
     e( 30 - 31) =     28.29862  eV     2   --> E    G_5 D_5   
     e( 32 - 32) =     29.67208  eV     1   --> B_2  G_4 D_2'  
     e( 33 - 33) =     29.94344  eV     1   --> B_1  G_3 D_2   
     e( 34 - 34) =     29.99239  eV     1   --> A_1  G_1 D_1   
     e( 35 - 36) =     30.04148  eV     2   --> E    G_5 D_5   

 **************************************************************************

 **************************************************************************

                    xk=(  -0.08000,   0.00000,   0.00000  )

     Band symmetry, C_4v (4mm)  point group:

     e(  1 -  1) =    -13.77380  eV     1   --> B_2  G_4 D_2'  
     e(  2 -  3) =    -13.77328  eV     2   --> E    G_5 D_5   
     e(  4 -  4) =    -13.71044  eV     1   --> A_2  G_2 D_1'  
     e(  5 -  5) =    -13.70777  eV     1   --> B_2  G_4 D_2'  
     e(  6 -  6) =    -13.40762  eV     1   --> A_1  G_1 D_1   
     e(  7 -  8) =    -13.39409  eV     2   --> E    G_5 D_5   
     e(  9 -  9) =    -13.38756  eV     1   --> B_1  G_3 D_2   
     e( 10 - 10) =    -13.37718  eV     1   --> A_1  G_1 D_1   
     e( 11 - 11) =     -2.71698  eV     1   --> A_1  G_1 D_1   
     e( 12 - 12) =      6.92994  eV     1   --> B_2  G_4 D_2'  
     e( 13 - 14) =      7.91801  eV     2   --> E    G_5 D_5   
     e( 15 - 15) =      8.37876  eV     1   --> B_2  G_4 D_2'  
     e( 16 - 16) =     10.03066  eV     1   --> A_1  G_1 D_1   
     e( 17 - 18) =     10.23350  eV     2   --> E    G_5 D_5   
     e( 19 - 19) =     13.09337  eV     1   --> A_1  G_1 D_1   
     e( 20 - 20) =     15.40784  eV     1   --> B_2  G_4 D_2'  
     e( 21 - 21) =     15.95984  eV     1   --> A_2  G_2 D_1'  
     e( 22 - 23) =     16.38192  eV     2   --> E    G_5 D_5   
     e( 24 - 24) =     16.80450  eV     1   --> B_2  G_4 D_2'  
     e( 25 - 25) =     19.00777  eV     1   --> B_2  G_4 D_2'  
     e( 26 - 26) =     26.34257  eV     1   --> B_1  G_3 D_2   
     e( 27 - 28) =     26.47077  eV     2   --> E    G_5 D_5   
     e( 29 - 29) =     28.12509  eV     1   --> A_1  G_1 D_1   
     e( 30 - 31) =     28.16554  eV     2   --> E    G_5 D_5   
     e( 32 - 32) =     29.67799  eV     1   --> B_2  G_4 D_2'  
     e( 33 - 33) =     30.07025  eV     1   --> B_1  G_3 D_2   
     e( 34 - 34) =     30.12279  eV     1   --> A_1  G_1 D_1   
     e( 35 - 36) =     30.26009  eV     2   --> E    G_5 D_5   

 **************************************************************************

 **************************************************************************

                    xk=(  -0.10000,   0.00000,   0.00000  )

     Band symmetry, C_4v (4mm)  point group:

     e(  1 -  1) =    -13.77453  eV     1   --> B_2  G_4 D_2'  
     e(  2 -  3) =    -13.77381  eV     2   --> E    G_5 D_5   
     e(  4 -  4) =    -13.70970  eV     1   --> A_2  G_2 D_1'  
     e(  5 -  5) =    -13.70563  eV     1   --> B_2  G_4 D_2'  
     e(  6 -  6) =    -13.41193  eV     1   --> A_1  G_1 D_1   
     e(  7 -  8) =    -13.39333  eV     2   --> E    G_5 D_5   
     e(  9 -  9) =    -13.38826  eV     1   --> B_1  G_3 D_2   
     e( 10 - 10) =    -13.37456  eV     1   --> A_1  G_1 D_1   
     e( 11 - 11) =     -2.70522  eV     1   --> A_1  G_1 D_1   
     e( 12 - 12) =      6.78978  eV     1   --> B_2  G_4 D_2'  
     e( 13 - 14) =      7.86344  eV     2   --> E    G_5 D_5   
     e( 15 - 15) =      8.51338  eV     1   --> B_2  G_4 D_2'  
     e( 16 - 16) =      9.99368  eV     1   --> A_1  G_1 D_1   
     e( 17 - 18) =     10.30270  eV     2   --> E    G_5 D_5   
     e( 19 - 19) =     13.15776  eV     1   --> A_1  G_1 D_1   
     e( 20 - 20) =     15.23775  eV     1   --> B_2  G_4 D_2'  
     e( 21 - 21) =     15.97013  eV     1   --> A_2  G_2 D_1'  
     e( 22 - 23) =     16.40536  eV     2   --> E    G_5 D_5   
     e( 24 - 24) =     16.93548  eV     1   --> B_2  G_4 D_2'  
     e( 25 - 25) =     19.11213  eV     1   --> B_2  G_4 D_2'  
     e( 26 - 26) =     26.21056  eV     1   --> B_1  G_3 D_2   
     e( 27 - 28) =     26.38491  eV     2   --> E    G_5 D_5   
     e( 29 - 29) =     27.93721  eV     1   --> A_1  G_1 D_1   
     e( 30 - 31) =     28.04330  eV     2   --> E    G_5 D_5   
     e( 32 - 32) =     29.68557  eV     1   --> B_2  G_4 D_2'  
     e( 33 - 33) =     30.22288  eV     1   --> B_1  G_3 D_2   
     e( 34 - 34) =     30.26001  eV     1   --> A_1  G_1 D_1   
     e( 35 - 36) =     30.49688  eV     2   --> E    G_5 D_5   

 **************************************************************************

 **************************************************************************

                    xk=(  -0.12000,   0.00000,   0.00000  )

     Band symmetry, C_4v (4mm)  point group:

     e(  1 -  1) =    -13.77533  eV     1   --> B_2  G_4 D_2'  
     e(  2 -  3) =    -13.77446  eV     2   --> E    G_5 D_5   
     e(  4 -  4) =    -13.70881  eV     1   --> A_2  G_2 D_1'  
     e(  5 -  5) =    -13.70311  eV     1   --> B_2  G_4 D_2'  
     e(  6 -  6) =    -13.41645  eV     1   --> A_1  G_1 D_1   
     e(  7 -  8) =    -13.39240  eV     2   --> E    G_5 D_5   
     e(  9 -  9) =    -13.38913  eV     1   --> B_1  G_3 D_2   
     e( 10 - 10) =    -13.37210  eV     1   --> A_1  G_1 D_1   
     e( 11 - 11) =     -2.69086  eV     1   --> A_1  G_1 D_1   
     e( 12 - 12) =      6.64444  eV     1   --> B_2  G_4 D_2'  
     e( 13 - 14) =      7.80095  eV     2   --> E    G_5 D_5   
     e( 15 - 15) =      8.65143  eV     1   --> B_2  G_4 D_2'  
     e( 16 - 16) =      9.95065  eV     1   --> A_1  G_1 D_1   
     e( 17 - 18) =     10.38303  eV     2   --> E    G_5 D_5   
     e( 19 - 19) =     13.23424  eV     1   --> A_1  G_1 D_1   
     e( 20 - 20) =     15.06860  eV     1   --> B_2  G_4 D_2'  
     e( 21 - 21) =     15.98271  eV     1   --> A_2  G_2 D_1'  
     e( 22 - 23) =     16.43402  eV     2   --> E    G_5 D_5   
     e( 24 - 24) =     17.05769  eV     1   --> B_2  G_4 D_2'  
     e( 25 - 25) =     19.23930  eV     1   --> B_2  G_4 D_2'  
     e( 26 - 26) =     26.06198  eV     1   --> B_1  G_3 D_2   
     e( 27 - 28) =     26.27491  eV     2   --> E    G_5 D_5   
     e( 29 - 29) =     27.73757  eV     1   --> A_1  G_1 D_1   
     e( 30 - 31) =     27.93945  eV     2   --> E    G_5 D_5   
     e( 32 - 32) =     29.69481  eV     1   --> B_2  G_4 D_2'  
     e( 33 - 33) =     30.39662  eV     1   --> B_1  G_3 D_2   
     e( 34 - 34) =     30.39825  eV     1   --> A_1  G_1 D_1   
     e( 35 - 36) =     30.74550  eV     2   --> E    G_5 D_5   

 **************************************************************************

 **************************************************************************

                    xk=(  -0.14000,   0.00000,   0.00000  )

     Band symmetry, C_4v (4mm)  point group:

     e(  1 -  1) =    -13.77618  eV     1   --> B_2  G_4 D_2'  
     e(  2 -  3) =    -13.77522  eV     2   --> E    G_5 D_5   
     e(  4 -  4) =    -13.70775  eV     1   --> A_2  G_2 D_1'  
     e(  5 -  5) =    -13.70023  eV     1   --> B_2  G_4 D_2'  
     e(  6 -  6) =    -13.42116  eV     1   --> A_1  G_1 D_1   
     e(  7 -  8) =    -13.39132  eV     2   --> E    G_5 D_5   
     e(  9 -  9) =    -13.39014  eV     1   --> B_1  G_3 D_2   
     e( 10 - 10) =    -13.36983  eV     1   --> A_1  G_1 D_1   
     e( 11 - 11) =     -2.67388  eV     1   --> A_1  G_1 D_1   
     e( 12 - 12) =      6.49596  eV     1   --> B_2  G_4 D_2'  
     e( 13 - 14) =      7.73216  eV     2   --> E    G_5 D_5   
     e( 15 - 15) =      8.79056  eV     1   --> B_2  G_4 D_2'  
     e( 16 - 16) =      9.90256  eV     1   --> A_1  G_1 D_1   
     e( 17 - 18) =     10.47288  eV     2   --> E    G_5 D_5   
     e( 19 - 19) =     13.32182  eV     1   --> A_1  G_1 D_1   
     e( 20 - 20) =     14.90218  eV     1   --> B_2  G_4 D_2'  
     e( 21 - 21) =     15.99757  eV     1   --> A_2  G_2 D_1'  
     e( 22 - 23) =     16.46790  eV     2   --> E    G_5 D_5   
     e( 24 - 24) =     17.17068  eV     1   --> B_2  G_4 D_2'  
     e( 25 - 25) =     19.38827  eV     1   --> B_2  G_4 D_2'  
     e( 26 - 26) =     25.90077  eV     1   --> B_1  G_3 D_2   
     e( 27 - 28) =     26.14111  eV     2   --> E    G_5 D_5   
     e( 29 - 29) =     27.52992  eV     1   --> A_1  G_1 D_1   
     e( 30 - 31) =     27.85711  eV     2   --> E    G_5 D_5   
     e( 32 - 32) =     29.70569  eV     1   --> B_2  G_4 D_2'  
     e( 33 - 33) =     30.53414  eV     1   --> A_1  G_1 D_1   
     e( 34 - 34) =     30.58750  eV     1   --> B_1  G_3 D_2   
     e( 35 - 36) =     31.00223  eV     2   --> E    G_5 D_5   

 **************************************************************************

 **************************************************************************

                    xk=(  -0.16000,   0.00000,   0.00000  )

     Band symmetry, C_4v (4mm)  point group:

     e(  1 -  1) =    -13.77704  eV     1   --> B_2  G_4 D_2'  
     e(  2 -  3) =    -13.77608  eV     2   --> E    G_5 D_5   
     e(  4 -  4) =    -13.70653  eV     1   --> A_2  G_2 D_1'  
     e(  5 -  5) =    -13.69705  eV     1   --> B_2  G_4 D_2'  
     e(  6 -  6) =    -13.42604  eV     1   --> A_1  G_1 D_1   
     e(  7 -  7) =    -13.39131  eV     1   --> B_1  G_3 D_2   
     e(  8 -  9) =    -13.39010  eV     2   --> E    G_5 D_5   
     e( 10 - 10) =    -13.36775  eV     1   --> A_1  G_1 D_1   
     e( 11 - 11) =     -2.65430  eV     1   --> A_1  G_1 D_1   
     e( 12 - 12) =      6.34548  eV     1   --> B_2  G_4 D_2'  
     e( 13 - 14) =      7.65848  eV     2   --> E    G_5 D_5   
     e( 15 - 15) =      8.92921  eV     1   --> B_2  G_4 D_2'  
     e( 16 - 16) =      9.85036  eV     1   --> A_1  G_1 D_1   
     e( 17 - 18) =     10.57081  eV     2   --> E    G_5 D_5   
     e( 19 - 19) =     13.41951  eV     1   --> A_1  G_1 D_1   
     e( 20 - 20) =     14.73990  eV     1   --> B_2  G_4 D_2'  
     e( 21 - 21) =     16.01473  eV     1   --> A_2  G_2 D_1'  
     e( 22 - 23) =     16.50702  eV     2   --> E    G_5 D_5   
     e( 24 - 24) =     17.27495  eV     1   --> B_2  G_4 D_2'  
     e( 25 - 25) =     19.55754  eV     1   --> B_2  G_4 D_2'  
     e( 26 - 26) =     25.73010  eV     1   --> B_1  G_3 D_2   
     e( 27 - 28) =     25.98570  eV     2   --> E    G_5 D_5   
     e( 29 - 29) =     27.31668  eV     1   --> A_1  G_1 D_1   
     e( 30 - 31) =     27.79620  eV     2   --> E    G_5 D_5   
     e( 32 - 32) =     29.71821  eV     1   --> B_2  G_4 D_2'  
     e( 33 - 33) =     30.66574  eV     1   --> A_1  G_1 D_1   
     e( 34 - 34) =     30.79231  eV     1   --> B_1  G_3 D_2   
     e( 35 - 36) =     31.26463  eV     2   --> E    G_5 D_5   

 **************************************************************************

 **************************************************************************

                    xk=(  -0.18000,   0.00000,   0.00000  )

     Band symmetry, C_4v (4mm)  point group:

     e(  1 -  1) =    -13.77787  eV     1   --> B_2  G_4 D_2'  
     e(  2 -  3) =    -13.77704  eV     2   --> E    G_5 D_5   
     e(  4 -  4) =    -13.70515  eV     1   --> A_2  G_2 D_1'  
     e(  5 -  5) =    -13.69358  eV     1   --> B_2  G_4 D_2'  
     e(  6 -  6) =    -13.43108  eV     1   --> A_1  G_1 D_1   
     e(  7 -  7) =    -13.39263  eV     1   --> B_1  G_3 D_2   
     e(  8 -  9) =    -13.38872  eV     2   --> E    G_5 D_5   
     e( 10 - 10) =    -13.36588  eV     1   --> A_1  G_1 D_1   
     e( 11 - 11) =     -2.63213  eV     1   --> A_1  G_1 D_1   
     e( 12 - 12) =      6.19374  eV     1   --> B_2  G_4 D_2'  
     e( 13 - 14) =      7.58112  eV     2   --> E    G_5 D_5   
     e( 15 - 15) =      9.06615  eV     1   --> B_2  G_4 D_2'  
     e( 16 - 16) =      9.79494  eV     1   --> A_1  G_1 D_1   
     e( 17 - 18) =     10.67558  eV     2   --> E    G_5 D_5   
     e( 19 - 19) =     13.52639  eV     1   --> A_1  G_1 D_1   
     e( 20 - 20) =     14.58297  eV     1   --> B_2  G_4 D_2'  
     e( 21 - 21) =     16.03418  eV     1   --> A_2  G_2 D_1'  
     e( 22 - 23) =     16.55139  eV     2   --> E    G_5 D_5   
     e( 24 - 24) =     17.37159  eV     1   --> B_2  G_4 D_2'  
     e( 25 - 25) =     19.74528  eV     1   --> B_2  G_4 D_2'  
     e( 26 - 26) =     25.55245  eV     1   --> B_1  G_3 D_2   
     e( 27 - 28) =     25.81203  eV     2   --> E    G_5 D_5   
     e( 29 - 29) =     27.09953  eV     1   --> A_1  G_1 D_1   
     e( 30 - 31) =     27.75468  eV     2   --> E    G_5 D_5   
     e( 32 - 32) =     29.73233  eV     1   --> B_2  G_4 D_2'  
     e( 33 - 33) =     30.79197  eV     1   --> A_1  G_1 D_1   
     e( 34 - 34) =     31.00851  eV     1   --> B_1  G_3 D_2   
     e( 35 - 36) =     31.53082  eV     2   --> E    G_5 D_5   

 **************************************************************************

 **************************************************************************

                    xk=(  -0.20000,   0.00000,   0.00000  )

     Band symmetry, C_4v (4mm)  point group:

     e(  1 -  1) =    -13.77866  eV     1   --> B_2  G_4 D_2'  
     e(  2 -  3) =    -13.77809  eV     2   --> E    G_5 D_5   
     e(  4 -  4) =    -13.70361  eV     1   --> A_2  G_2 D_1'  
     e(  5 -  5) =    -13.68985  eV     1   --> B_2  G_4 D_2'  
     e(  6 -  6) =    -13.43628  eV     1   --> A_1  G_1 D_1   
     e(  7 -  7) =    -13.39410  eV     1   --> B_1  G_3 D_2   
     e(  8 -  9) =    -13.38722  eV     2   --> E    G_5 D_5   
     e( 10 - 10) =    -13.36422  eV     1   --> A_1  G_1 D_1   
     e( 11 - 11) =     -2.60736  eV     1   --> A_1  G_1 D_1   
     e( 12 - 12) =      6.04119  eV     1   --> B_2  G_4 D_2'  
     e( 13 - 14) =      7.50110  eV     2   --> E    G_5 D_5   
     e( 15 - 15) =      9.20031  eV     1   --> B_2  G_4 D_2'  
     e( 16 - 16) =      9.73711  eV     1   --> A_1  G_1 D_1   
     e( 17 - 18) =     10.78618  eV     2   --> E    G_5 D_5   
     e( 19 - 19) =     13.64159  eV     1   --> A_1  G_1 D_1   
     e( 20 - 20) =     14.43254  eV     1   --> B_2  G_4 D_2'  
     e( 21 - 21) =     16.05592  eV     1   --> A_2  G_2 D_1'  
     e( 22 - 23) =     16.60100  eV     2   --> E    G_5 D_5   
     e( 24 - 24) =     17.46200  eV     1   --> B_2  G_4 D_2'  
     e( 25 - 25) =     19.94953  eV     1   --> B_2  G_4 D_2'  
     e( 26 - 26) =     25.36975  eV     1   --> B_1  G_3 D_2   
     e( 27 - 28) =     25.62385  eV     2   --> E    G_5 D_5   
     e( 29 - 29) =     26.87968  eV     1   --> A_1  G_1 D_1   
     e( 30 - 31) =     27.72970  eV     2   --> E    G_5 D_5   
     e( 32 - 32) =     29.74802  eV     1   --> B_2  G_4 D_2'  
     e( 33 - 33) =     30.91231  eV     1   --> A_1  G_1 D_1   
     e( 34 - 34) =     31.23414  eV     1   --> B_1  G_3 D_2   
     e( 35 - 36) =     31.79897  eV     2   --> E    G_5 D_5   

 **************************************************************************

 **************************************************************************

                    xk=(  -0.22000,   0.00000,   0.00000  )

     Band symmetry, C_4v (4mm)  point group:

     e(  1 -  1) =    -13.77939  eV     1   --> B_2  G_4 D_2'  
     e(  2 -  3) =    -13.77923  eV     2   --> E    G_5 D_5   
     e(  4 -  4) =    -13.70192  eV     1   --> A_2  G_2 D_1'  
     e(  5 -  5) =    -13.68588  eV     1   --> B_2  G_4 D_2'  
     e(  6 -  6) =    -13.44162  eV     1   --> A_1  G_1 D_1   
     e(  7 -  7) =    -13.39572  eV     1   --> B_1  G_3 D_2   
     e(  8 -  9) =    -13.38558  eV     2   --> E    G_5 D_5   
     e( 10 - 10) =    -13.36276  eV     1   --> A_1  G_1 D_1   
     e( 11 - 11) =     -2.58000  eV     1   --> A_1  G_1 D_1   
     e( 12 - 12) =      5.88815  eV     1   --> B_2  G_4 D_2'  
     e( 13 - 14) =      7.41926  eV     2   --> E    G_5 D_5   
     e( 15 - 15) =      9.33065  eV     1   --> B_2  G_4 D_2'  
     e( 16 - 16) =      9.67760  eV     1   --> A_1  G_1 D_1   
     e( 17 - 18) =     10.90172  eV     2   --> E    G_5 D_5   
     e( 19 - 19) =     13.76435  eV     1   --> A_1  G_1 D_1   
     e( 20 - 20) =     14.28976  eV     1   --> B_2  G_4 D_2'  
     e( 21 - 21) =     16.07997  eV     1   --> A_2  G_2 D_1'  
     e( 22 - 23) =     16.65587  eV     2   --> E    G_5 D_5   
     e( 24 - 24) =     17.54767  eV     1   --> B_2  G_4 D_2'  
     e( 25 - 25) =     20.16836  eV     1   --> B_2  G_4 D_2'  
     e( 26 - 26) =     25.18349  eV     1   --> B_1  G_3 D_2   
     e( 27 - 28) =     25.42464  eV     2   --> E    G_5 D_5   
     e( 29 - 29) =     26.65807  eV     1   --> A_1  G_1 D_1   
     e( 30 - 31) =     27.71840  eV     2   --> E    G_5 D_5   
     e( 32 - 32) =     29.76524  eV     1   --> B_2  G_4 D_2'  
     e( 33 - 33) =     31.02663  eV     1   --> A_1  G_1 D_1   
     e( 34 - 34) =     31.46764  eV     1   --> B_1  G_3 D_2   
     e( 35 - 36) =     32.06681  eV     2   --> E    G_5 D_5   

 **************************************************************************

 **************************************************************************

                    xk=(  -0.24000,   0.00000,   0.00000  )

     Band symmetry, C_4v (4mm)  point group:

     e(  1 -  2) =    -13.78045  eV     2   --> E    G_5 D_5   
     e(  3 -  3) =    -13.78002  eV     1   --> B_2  G_4 D_2'  
     e(  4 -  4) =    -13.70008  eV     1   --> A_2  G_2 D_1'  
     e(  5 -  5) =    -13.68170  eV     1   --> B_2  G_4 D_2'  
     e(  6 -  6) =    -13.44710  eV     1   --> A_1  G_1 D_1   
     e(  7 -  7) =    -13.39749  eV     1   --> B_1  G_3 D_2   
     e(  8 -  9) =    -13.38382  eV     2   --> E    G_5 D_5   
     e( 10 - 10) =    -13.36152  eV     1   --> A_1  G_1 D_1   
     e( 11 - 11) =     -2.55005  eV     1   --> A_1  G_1 D_1   
     e( 12 - 12) =      5.73486  eV     1   --> B_2  G_4 D_2'  
     e( 13 - 14) =      7.33630  eV     2   --> E    G_5 D_5   
     e( 15 - 15) =      9.45609  eV     1   --> B_2  G_4 D_2'  
     e( 16 - 16) =      9.61705  eV     1   --> A_1  G_1 D_1   
     e( 17 - 18) =     11.02149  eV     2   --> E    G_5 D_5   
     e( 19 - 19) =     13.89397  eV     1   --> A_1  G_1 D_1   
     e( 20 - 20) =     14.15580  eV     1   --> B_2  G_4 D_2'  
     e( 21 - 21) =     16.10631  eV     1   --> A_2  G_2 D_1'  
     e( 22 - 23) =     16.71601  eV     2   --> E    G_5 D_5   
     e( 24 - 24) =     17.63002  eV     1   --> B_2  G_4 D_2'  
     e( 25 - 25) =     20.39999  eV     1   --> B_2  G_4 D_2'  
     e( 26 - 26) =     24.99483  eV     1   --> B_1  G_3 D_2   
     e( 27 - 28) =     25.21732  eV     2   --> E    G_5 D_5   
     e( 29 - 29) =     26.43543  eV     1   --> A_1  G_1 D_1   
     e( 30 - 31) =     27.71832  eV     2   --> E    G_5 D_5   
     e( 32 - 32) =     29.78394  eV     1   --> B_2  G_4 D_2'  
     e( 33 - 33) =     31.13504  eV     1   --> A_1  G_1 D_1   
     e( 34 - 34) =     31.70777  eV     1   --> B_1  G_3 D_2   
     e( 35 - 36) =     32.33051  eV     2   --> E    G_5 D_5   

 **************************************************************************

 **************************************************************************

                    xk=(  -0.26000,   0.00000,   0.00000  )

     Band symmetry, C_4v (4mm)  point group:

     e(  1 -  2) =    -13.78174  eV     2   --> E    G_5 D_5   
     e(  3 -  3) =    -13.78055  eV     1   --> B_2  G_4 D_2'  
     e(  4 -  4) =    -13.69808  eV     1   --> A_2  G_2 D_1'  
     e(  5 -  5) =    -13.67733  eV     1   --> B_2  G_4 D_2'  
     e(  6 -  6) =    -13.45271  eV     1   --> A_1  G_1 D_1   
     e(  7 -  7) =    -13.39940  eV     1   --> B_1  G_3 D_2   
     e(  8 -  9) =    -13.38195  eV     2   --> E    G_5 D_5   
     e( 10 - 10) =    -13.36050  eV     1   --> A_1  G_1 D_1   
     e( 11 - 11) =     -2.51753  eV     1   --> A_1  G_1 D_1   
     e( 12 - 12) =      5.58147  eV     1   --> B_2  G_4 D_2'  
     e( 13 - 14) =      7.25279  eV     2   --> E    G_5 D_5   
     e( 15 - 15) =      9.55601  eV     1   --> A_1  G_1 D_1   
     e( 16 - 16) =      9.57549  eV     1   --> B_2  G_4 D_2'  
     e( 17 - 18) =     11.14489  eV     2   --> E    G_5 D_5   
     e( 19 - 19) =     14.02984  eV     1   --> A_1  G_1 D_1   
     e( 20 - 20) =     14.03193  eV     1   --> B_2  G_4 D_2'  
     e( 21 - 21) =     16.13496  eV     1   --> A_2  G_2 D_1'  
     e( 22 - 23) =     16.78142  eV     2   --> E    G_5 D_5   
     e( 24 - 24) =     17.71032  eV     1   --> B_2  G_4 D_2'  
     e( 25 - 25) =     20.64285  eV     1   --> B_2  G_4 D_2'  
     e( 26 - 26) =     24.80467  eV     1   --> B_1  G_3 D_2   
     e( 27 - 28) =     25.00419  eV     2   --> E    G_5 D_5   
     e( 29 - 29) =     26.21237  eV     1   --> A_1  G_1 D_1   
     e( 30 - 31) =     27.72746  eV     2   --> E    G_5 D_5   
     e( 32 - 32) =     29.80405  eV     1   --> B_2  G_4 D_2'  
     e( 33 - 33) =     31.23785  eV     1   --> A_1  G_1 D_1   
     e( 34 - 34) =     31.95356  eV     1   --> B_1  G_3 D_2   
     e( 35 - 36) =     32.58154  eV     2   --> E    G_5 D_5   

 **************************************************************************

 **************************************************************************

                    xk=(  -0.28000,   0.00000,   0.00000  )

     Band symmetry, C_4v (4mm)  point group:

     e(  1 -  2) =    -13.78311  eV     2   --> E    G_5 D_5   
     e(  3 -  3) =    -13.78097  eV     1   --> B_2  G_4 D_2'  
     e(  4 -  4) =    -13.69593  eV     1   --> A_2  G_2 D_1'  
     e(  5 -  5) =    -13.67277  eV     1   --> B_2  G_4 D_2'  
     e(  6 -  6) =    -13.45844  eV     1   --> A_1  G_1 D_1   
     e(  7 -  7) =    -13.40146  eV     1   --> B_1  G_3 D_2   
     e(  8 -  9) =    -13.37998  eV     2   --> E    G_5 D_5   
     e( 10 - 10) =    -13.35969  eV     1   --> A_1  G_1 D_1   
     e( 11 - 11) =     -2.48243  eV     1   --> A_1  G_1 D_1   
     e( 12 - 12) =      5.42812  eV     1   --> B_2  G_4 D_2'  
     e( 13 - 14) =      7.16920  eV     2   --> E    G_5 D_5   
     e( 15 - 15) =      9.49496  eV     1   --> A_1  G_1 D_1   
     e( 16 - 16) =      9.68759  eV     1   --> B_2  G_4 D_2'  
     e( 17 - 18) =     11.27141  eV     2   --> E    G_5 D_5   
     e( 19 - 19) =     13.91948  eV     1   --> B_2  G_4 D_2'  
     e( 20 - 20) =     14.17140  eV     1   --> A_1  G_1 D_1   
     e( 21 - 21) =     16.16591  eV     1   --> A_2  G_2 D_1'  
     e( 22 - 23) =     16.85210  eV     2   --> E    G_5 D_5   
     e( 24 - 24) =     17.78969  eV     1   --> B_2  G_4 D_2'  
     e( 25 - 25) =     20.89558  eV     1   --> B_2  G_4 D_2'  
     e( 26 - 26) =     24.61372  eV     1   --> B_1  G_3 D_2   
     e( 27 - 28) =     24.78705  eV     2   --> E    G_5 D_5   
     e( 29 - 29) =     25.98940  eV     1   --> A_1  G_1 D_1   
     e( 30 - 31) =     27.74427  eV     2   --> E    G_5 D_5   
     e( 32 - 32) =     29.82549  eV     1   --> B_2  G_4 D_2'  
     e( 33 - 33) =     31.33547  eV     1   --> A_1  G_1 D_1   
     e( 34 - 34) =     32.20419  eV     1   --> B_1  G_3 D_2   
     e( 35 - 36) =     32.79447  eV     2   --> E    G_5 D_5   

 **************************************************************************

 **************************************************************************

                    xk=(  -0.30000,   0.00000,   0.00000  )

     Band symmetry, C_4v (4mm)  point group:

     e(  1 -  2) =    -13.78453  eV     2   --> E    G_5 D_5   
     e(  3 -  3) =    -13.78126  eV     1   --> B_2  G_4 D_2'  
     e(  4 -  4) =    -13.69364  eV     1   --> A_2  G_2 D_1'  
     e(  5 -  5) =    -13.66805  eV     1   --> B_2  G_4 D_2'  
     e(  6 -  6) =    -13.46428  eV     1   --> A_1  G_1 D_1   
     e(  7 -  7) =    -13.40367  eV     1   --> B_1  G_3 D_2   
     e(  8 -  9) =    -13.37792  eV     2   --> E    G_5 D_5   
     e( 10 - 10) =    -13.35910  eV     1   --> A_1  G_1 D_1   
     e( 11 - 11) =     -2.44477  eV     1   --> A_1  G_1 D_1   
     e( 12 - 12) =      5.27491  eV     1   --> B_2  G_4 D_2'  
     e( 13 - 14) =      7.08593  eV     2   --> E    G_5 D_5   
     e( 15 - 15) =      9.43432  eV     1   --> A_1  G_1 D_1   
     e( 16 - 16) =      9.79104  eV     1   --> B_2  G_4 D_2'  
     e( 17 - 18) =     11.40065  eV     2   --> E    G_5 D_5   
     e( 19 - 19) =     13.81988  eV     1   --> B_2  G_4 D_2'  
     e( 20 - 20) =     14.31816  eV     1   --> A_1  G_1 D_1   
     e( 21 - 21) =     16.19918  eV     1   --> A_2  G_2 D_1'  
     e( 22 - 23) =     16.92806  eV     2   --> E    G_5 D_5   
     e( 24 - 24) =     17.86904  eV     1   --> B_2  G_4 D_2'  
     e( 25 - 25) =     21.15705  eV     1   --> B_2  G_4 D_2'  
     e( 26 - 26) =     24.42255  eV     1   --> B_1  G_3 D_2   
     e( 27 - 28) =     24.56726  eV     2   --> E    G_5 D_5   
     e( 29 - 29) =     25.76698  eV     1   --> A_1  G_1 D_1   
     e( 30 - 31) =     27.76757  eV     2   --> E    G_5 D_5   
     e( 32 - 32) =     29.84814  eV     1   --> B_2  G_4 D_2'  
     e( 33 - 33) =     31.42836  eV     1   --> A_1  G_1 D_1   
     e( 34 - 34) =     32.45897  eV     1   --> B_1  G_3 D_2   
     e( 35 - 36) =     32.88553  eV     2   --> E    G_5 D_5   

 **************************************************************************

 **************************************************************************

                    xk=(  -0.32000,   0.00000,   0.00000  )

     Band symmetry, C_4v (4mm)  point group:

     e(  1 -  2) =    -13.78600  eV     2   --> E    G_5 D_5   
     e(  3 -  3) =    -13.78142  eV     1   --> B_2  G_4 D_2'  
     e(  4 -  4) =    -13.69119  eV     1   --> A_2  G_2 D_1'  
     e(  5 -  5) =    -13.66318  eV     1   --> B_2  G_4 D_2'  
     e(  6 -  6) =    -13.47024  eV     1   --> A_1  G_1 D_1   
     e(  7 -  7) =    -13.40601  eV     1   --> B_1  G_3 D_2   
     e(  8 -  9) =    -13.37577  eV     2   --> E    G_5 D_5   
     e( 10 - 10) =    -13.35873  eV     1   --> A_1  G_1 D_1   
     e( 11 - 11) =     -2.40456  eV     1   --> A_1  G_1 D_1   
     e( 12 - 12) =      5.12192  eV     1   --> B_2  G_4 D_2'  
     e( 13 - 14) =      7.00331  eV     2   --> E    G_5 D_5   
     e( 15 - 15) =      9.37445  eV     1   --> A_1  G_1 D_1   
     e( 16 - 16) =      9.88445  eV     1   --> B_2  G_4 D_2'  
     e( 17 - 18) =     11.53223  eV     2   --> E    G_5 D_5   
     e( 19 - 19) =     13.73458  eV     1   --> B_2  G_4 D_2'  
     e( 20 - 20) =     14.46966  eV     1   --> A_1  G_1 D_1   
     e( 21 - 21) =     16.23475  eV     1   --> A_2  G_2 D_1'  
     e( 22 - 23) =     17.00929  eV     2   --> E    G_5 D_5   
     e( 24 - 24) =     17.94917  eV     1   --> B_2  G_4 D_2'  
     e( 25 - 25) =     21.42628  eV     1   --> B_2  G_4 D_2'  
     e( 26 - 26) =     24.23160  eV     1   --> B_1  G_3 D_2   
     e( 27 - 28) =     24.34585  eV     2   --> E    G_5 D_5   
     e( 29 - 29) =     25.54549  eV     1   --> A_1  G_1 D_1   
     e( 30 - 31) =     27.79643  eV     2   --> E    G_5 D_5   
     e( 32 - 32) =     29.87184  eV     1   --> B_2  G_4 D_2'  
     e( 33 - 33) =     31.51703  eV     1   --> A_1  G_1 D_1   
     e( 34 - 34) =     32.71732  eV     1   --> B_1  G_3 D_2   
     e( 35 - 35) =     32.75447  eV     1   --> A_1  G_1 D_1   
     e( 36 - 36) =     32.75783  eV     1   -->   ?

 **************************************************************************

 **************************************************************************

                    xk=(  -0.34000,   0.00000,   0.00000  )

     Band symmetry, C_4v (4mm)  point group:

     e(  1 -  2) =    -13.78752  eV     2   --> E    G_5 D_5   
     e(  3 -  3) =    -13.78143  eV     1   --> B_2  G_4 D_2'  
     e(  4 -  4) =    -13.68861  eV     1   --> A_2  G_2 D_1'  
     e(  5 -  5) =    -13.65816  eV     1   --> B_2  G_4 D_2'  
     e(  6 -  6) =    -13.47630  eV     1   --> A_1  G_1 D_1   
     e(  7 -  7) =    -13.40849  eV     1   --> B_1  G_3 D_2   
     e(  8 -  9) =    -13.37355  eV     2   --> E    G_5 D_5   
     e( 10 - 10) =    -13.35858  eV     1   --> A_1  G_1 D_1   
     e( 11 - 11) =     -2.36179  eV     1   --> A_1  G_1 D_1   
     e( 12 - 12) =      4.96922  eV     1   --> B_2  G_4 D_2'  
     e( 13 - 14) =      6.92161  eV     2   --> E    G_5 D_5   
     e( 15 - 15) =      9.31564  eV     1   --> A_1  G_1 D_1   
     e( 16 - 16) =      9.96638  eV     1   --> B_2  G_4 D_2'  
     e( 17 - 18) =     11.66585  eV     2   --> E    G_5 D_5   
     e( 19 - 19) =     13.66504  eV     1   --> B_2  G_4 D_2'  
     e( 20 - 20) =     14.62548  eV     1   --> A_1  G_1 D_1   
     e( 21 - 21) =     16.27265  eV     1   --> A_2  G_2 D_1'  
     e( 22 - 23) =     17.09579  eV     2   --> E    G_5 D_5   
     e( 24 - 24) =     18.03071  eV     1   --> B_2  G_4 D_2'  
     e( 25 - 25) =     21.70249  eV     1   --> B_2  G_4 D_2'  
     e( 26 - 26) =     24.04124  eV     1   --> B_1  G_3 D_2   
     e( 27 - 28) =     24.12363  eV     2   --> E    G_5 D_5   
     e( 29 - 29) =     25.32532  eV     1   --> A_1  G_1 D_1   
     e( 30 - 31) =     27.83013  eV     2   --> E    G_5 D_5   
     e( 32 - 32) =     29.89640  eV     1   --> B_2  G_4 D_2'  
     e( 33 - 33) =     31.60198  eV     1   --> A_1  G_1 D_1   
     e( 34 - 34) =     32.46719  eV     1   --> A_1  G_1 D_1   
     e( 35 - 36) =     32.50436  eV     2   --> E    G_5 D_5   

 **************************************************************************

 **************************************************************************

                    xk=(  -0.36000,   0.00000,   0.00000  )

     Band symmetry, C_4v (4mm)  point group:

     e(  1 -  2) =    -13.78908  eV     2   --> E    G_5 D_5   
     e(  3 -  3) =    -13.78129  eV     1   --> B_2  G_4 D_2'  
     e(  4 -  4) =    -13.68589  eV     1   --> A_2  G_2 D_1'  
     e(  5 -  5) =    -13.65301  eV     1   --> B_2  G_4 D_2'  
     e(  6 -  6) =    -13.48245  eV     1   --> A_1  G_1 D_1   
     e(  7 -  7) =    -13.41111  eV     1   --> B_1  G_3 D_2   
     e(  8 -  9) =    -13.37126  eV     2   --> E    G_5 D_5   
     e( 10 - 10) =    -13.35865  eV     1   --> A_1  G_1 D_1   
     e( 11 - 11) =     -2.31649  eV     1   --> A_1  G_1 D_1   
     e( 12 - 12) =      4.81686  eV     1   --> B_2  G_4 D_2'  
     e( 13 - 14) =      6.84107  eV     2   --> E    G_5 D_5   
     e( 15 - 15) =      9.25816  eV     1   --> A_1  G_1 D_1   
     e( 16 - 16) =     10.03550  eV     1   --> B_2  G_4 D_2'  
     e( 17 - 18) =     11.80126  eV     2   --> E    G_5 D_5   
     e( 19 - 19) =     13.61263  eV     1   --> B_2  G_4 D_2'  
     e( 20 - 20) =     14.78524  eV     1   --> A_1  G_1 D_1   
     e( 21 - 21) =     16.31286  eV     1   --> A_2  G_2 D_1'  
     e( 22 - 23) =     17.18756  eV     2   --> E    G_5 D_5   
     e( 24 - 24) =     18.11420  eV     1   --> B_2  G_4 D_2'  
     e( 25 - 25) =     21.98498  eV     1   --> B_2  G_4 D_2'  
     e( 26 - 26) =     23.85176  eV     1   --> B_1  G_3 D_2   
     e( 27 - 28) =     23.90124  eV     2   --> E    G_5 D_5   
     e( 29 - 29) =     25.10679  eV     1   --> A_1  G_1 D_1   
     e( 30 - 31) =     27.86806  eV     2   --> E    G_5 D_5   
     e( 32 - 32) =     29.92153  eV     1   --> B_2  G_4 D_2'  
     e( 33 - 33) =     31.68359  eV     1   --> A_1  G_1 D_1   
     e( 34 - 34) =     32.17549  eV     1   --> A_1  G_1 D_1   
     e( 35 - 36) =     32.21185  eV     2   --> E    G_5 D_5   

 **************************************************************************

 **************************************************************************

                    xk=(  -0.38000,   0.00000,   0.00000  )

     Band symmetry, C_4v (4mm)  point group:

     e(  1 -  2) =    -13.79067  eV     2   --> E    G_5 D_5   
     e(  3 -  3) =    -13.78099  eV     1   --> B_2  G_4 D_2'  
     e(  4 -  4) =    -13.68303  eV     1   --> A_2  G_2 D_1'  
     e(  5 -  5) =    -13.64775  eV     1   --> B_2  G_4 D_2'  
     e(  6 -  6) =    -13.48870  eV     1   --> A_1  G_1 D_1   
     e(  7 -  7) =    -13.41386  eV     1   --> B_1  G_3 D_2   
     e(  8 -  9) =    -13.36893  eV     2   --> E    G_5 D_5   
     e( 10 - 10) =    -13.35894  eV     1   --> A_1  G_1 D_1   
     e( 11 - 11) =     -2.26865  eV     1   --> A_1  G_1 D_1   
     e( 12 - 12) =      4.66491  eV     1   --> B_2  G_4 D_2'  
     e( 13 - 14) =      6.76190  eV     2   --> E    G_5 D_5   
     e( 15 - 15) =      9.20224  eV     1   --> A_1  G_1 D_1   
     e( 16 - 16) =     10.09070  eV     1   --> B_2  G_4 D_2'  
     e( 17 - 18) =     11.93821  eV     2   --> E    G_5 D_5   
     e( 19 - 19) =     13.57848  eV     1   --> B_2  G_4 D_2'  
     e( 20 - 20) =     14.94855  eV     1   --> A_1  G_1 D_1   
     e( 21 - 21) =     16.35540  eV     1   --> A_2  G_2 D_1'  
     e( 22 - 23) =     17.28456  eV     2   --> E    G_5 D_5   
     e( 24 - 24) =     18.20009  eV     1   --> B_2  G_4 D_2'  
     e( 25 - 25) =     22.27318  eV     1   --> B_2  G_4 D_2'  
     e( 26 - 26) =     23.66342  eV     1   --> B_1  G_3 D_2   
     e( 27 - 28) =     23.67916  eV     2   --> E    G_5 D_5   
     e( 29 - 29) =     24.89024  eV     1   --> A_1  G_1 D_1   
     e( 30 - 31) =     27.90973  eV     2   --> E    G_5 D_5   
     e( 32 - 32) =     29.94681  eV     1   --> B_2  G_4 D_2'  
     e( 33 - 33) =     31.76072  eV     1   --> A_1  G_1 D_1   
     e( 34 - 34) =     31.88208  eV     1   --> A_1  G_1 D_1   
     e( 35 - 36) =     31.90634  eV     2   --> E    G_5 D_5   

 **************************************************************************

 **************************************************************************

                    xk=(  -0.40000,   0.00000,   0.00000  )

     Band symmetry, C_4v (4mm)  point group:

     e(  1 -  2) =    -13.79228  eV     2   --> E    G_5 D_5   
     e(  3 -  3) =    -13.78054  eV     1   --> B_2  G_4 D_2'  
     e(  4 -  4) =    -13.68003  eV     1   --> A_2  G_2 D_1'  
     e(  5 -  5) =    -13.64236  eV     1   --> B_2  G_4 D_2'  
     e(  6 -  6) =    -13.49502  eV     1   --> A_1  G_1 D_1   
     e(  7 -  7) =    -13.41675  eV     1   --> B_1  G_3 D_2   
     e(  8 -  9) =    -13.36654  eV     2   --> E    G_5 D_5   
     e( 10 - 10) =    -13.35944  eV     1   --> A_1  G_1 D_1   
     e( 11 - 11) =     -2.21830  eV     1   --> A_1  G_1 D_1   
     e( 12 - 12) =      4.51340  eV     1   --> B_2  G_4 D_2'  
     e( 13 - 14) =      6.68425  eV     2   --> E    G_5 D_5   
     e( 15 - 15) =      9.14807  eV     1   --> A_1  G_1 D_1   
     e( 16 - 16) =     10.13118  eV     1   --> B_2  G_4 D_2'  
     e( 17 - 18) =     12.07651  eV     2   --> E    G_5 D_5   
     e( 19 - 19) =     13.56337  eV     1   --> B_2  G_4 D_2'  
     e( 20 - 20) =     15.11506  eV     1   --> A_1  G_1 D_1   
     e( 21 - 21) =     16.40027  eV     1   --> A_2  G_2 D_1'  
     e( 22 - 23) =     17.38680  eV     2   --> E    G_5 D_5   
     e( 24 - 24) =     18.28874  eV     1   --> B_2  G_4 D_2'  
     e( 25 - 25) =     22.56658  eV     1   --> B_2  G_4 D_2'  
     e( 26 - 27) =     23.45780  eV     2   --> E    G_5 D_5   
     e( 28 - 28) =     23.47641  eV     1   --> B_1  G_3 D_2   
     e( 29 - 29) =     24.67599  eV     1   --> A_1  G_1 D_1   
     e( 30 - 31) =     27.95465  eV     2   --> E    G_5 D_5   
     e( 32 - 32) =     29.97165  eV     1   --> B_2  G_4 D_2'  
     e( 33 - 33) =     31.58002  eV     1   --> A_1  G_1 D_1   
     e( 34 - 35) =     31.59616  eV     2   --> E    G_5 D_5   
     e( 36 - 36) =     31.84167  eV     1   --> A_1  G_1 D_1   

 **************************************************************************

 **************************************************************************

                    xk=(  -0.42000,   0.00000,   0.00000  )

     Band symmetry, C_4v (4mm)  point group:

     e(  1 -  2) =    -13.79391  eV     2   --> E    G_5 D_5   
     e(  3 -  3) =    -13.77992  eV     1   --> B_2  G_4 D_2'  
     e(  4 -  4) =    -13.67691  eV     1   --> A_2  G_2 D_1'  
     e(  5 -  5) =    -13.63687  eV     1   --> B_2  G_4 D_2'  
     e(  6 -  6) =    -13.50142  eV     1   --> A_1  G_1 D_1   
     e(  7 -  7) =    -13.41976  eV     1   --> B_1  G_3 D_2   
     e(  8 -  9) =    -13.36413  eV     2   --> E    G_5 D_5   
     e( 10 - 10) =    -13.36016  eV     1   --> A_1  G_1 D_1   
     e( 11 - 11) =     -2.16543  eV     1   --> A_1  G_1 D_1   
     e( 12 - 12) =      4.36237  eV     1   --> B_2  G_4 D_2'  
     e( 13 - 14) =      6.60829  eV     2   --> E    G_5 D_5   
     e( 15 - 15) =      9.09583  eV     1   --> A_1  G_1 D_1   
     e( 16 - 16) =     10.15662  eV     1   --> B_2  G_4 D_2'  
     e( 17 - 18) =     12.21597  eV     2   --> E    G_5 D_5   
     e( 19 - 19) =     13.56761  eV     1   --> B_2  G_4 D_2'  
     e( 20 - 20) =     15.28439  eV     1   --> A_1  G_1 D_1   
     e( 21 - 21) =     16.44747  eV     1   --> A_2  G_2 D_1'  
     e( 22 - 23) =     17.49422  eV     2   --> E    G_5 D_5   
     e( 24 - 24) =     18.38047  eV     1   --> B_2  G_4 D_2'  
     e( 25 - 25) =     22.86473  eV     1   --> B_2  G_4 D_2'  
     e( 26 - 27) =     23.23750  eV     2   --> E    G_5 D_5   
     e( 28 - 28) =     23.29091  eV     1   --> B_1  G_3 D_2   
     e( 29 - 29) =     24.46437  eV     1   --> A_1  G_1 D_1   
     e( 30 - 31) =     28.00236  eV     2   --> E    G_5 D_5   
     e( 32 - 32) =     29.99519  eV     1   --> B_2  G_4 D_2'  
     e( 33 - 33) =     31.28082  eV     1   --> A_1  G_1 D_1   
     e( 34 - 35) =     31.28480  eV     2   --> E    G_5 D_5   
     e( 36 - 36) =     31.91607  eV     1   --> A_1  G_1 D_1   

 **************************************************************************

 **************************************************************************

                    xk=(  -0.44000,   0.00000,   0.00000  )

     Band symmetry, C_4v (4mm)  point group:

     e(  1 -  2) =    -13.79555  eV     2   --> E    G_5 D_5   
     e(  3 -  3) =    -13.77913  eV     1   --> B_2  G_4 D_2'  
     e(  4 -  4) =    -13.67366  eV     1   --> A_2  G_2 D_1'  
     e(  5 -  5) =    -13.63129  eV     1   --> B_2  G_4 D_2'  
     e(  6 -  6) =    -13.50789  eV     1   --> A_1  G_1 D_1   
     e(  7 -  7) =    -13.42290  eV     1   --> B_1  G_3 D_2   
     e(  8 -  9) =    -13.36169  eV     2   --> E    G_5 D_5   
     e( 10 - 10) =    -13.36110  eV     1   --> A_1  G_1 D_1   
     e( 11 - 11) =     -2.11007  eV     1   --> A_1  G_1 D_1   
     e( 12 - 12) =      4.21188  eV     1   --> B_2  G_4 D_2'  
     e( 13 - 14) =      6.53414  eV     2   --> E    G_5 D_5   
     e( 15 - 15) =      9.04565  eV     1   --> A_1  G_1 D_1   
     e( 16 - 16) =     10.16721  eV     1   --> B_2  G_4 D_2'  
     e( 17 - 18) =     12.35644  eV     2   --> E    G_5 D_5   
     e( 19 - 19) =     13.59099  eV     1   --> B_2  G_4 D_2'  
     e( 20 - 20) =     15.45615  eV     1   --> A_1  G_1 D_1   
     e( 21 - 21) =     16.49701  eV     1   --> A_2  G_2 D_1'  
     e( 22 - 23) =     17.60681  eV     2   --> E    G_5 D_5   
     e( 24 - 24) =     18.47555  eV     1   --> B_2  G_4 D_2'  
     e( 25 - 26) =     23.01853  eV     2   --> E    G_5 D_5   
     e( 27 - 27) =     23.10704  eV     1   --> B_1  G_3 D_2   
     e( 28 - 28) =     23.16720  eV     1   --> B_2  G_4 D_2'  
     e( 29 - 29) =     24.25572  eV     1   --> A_1  G_1 D_1   
     e( 30 - 31) =     28.05231  eV     2   --> E    G_5 D_5   
     e( 32 - 32) =     30.01606  eV     1   --> B_2  G_4 D_2'  
     e( 33 - 34) =     30.97416  eV     2   --> E    G_5 D_5   
     e( 35 - 35) =     30.97987  eV     1   --> A_1  G_1 D_1   
     e( 36 - 36) =     31.98955  eV     1   --> A_1  G_1 D_1   

 **************************************************************************

 **************************************************************************

                    xk=(  -0.46000,   0.00000,   0.00000  )

     Band symmetry, C_4v (4mm)  point group:

     e(  1 -  2) =    -13.79719  eV     2   --> E    G_5 D_5   
     e(  3 -  3) =    -13.77817  eV     1   --> B_2  G_4 D_2'  
     e(  4 -  4) =    -13.67028  eV     1   --> A_2  G_2 D_1'  
     e(  5 -  5) =    -13.62561  eV     1   --> B_2  G_4 D_2'  
     e(  6 -  6) =    -13.51441  eV     1   --> A_1  G_1 D_1   
     e(  7 -  7) =    -13.42616  eV     1   --> B_1  G_3 D_2   
     e(  8 -  8) =    -13.36226  eV     1   --> A_1  G_1 D_1   
     e(  9 - 10) =    -13.35923  eV     2   --> E    G_5 D_5   
     e( 11 - 11) =     -2.05223  eV     1   --> A_1  G_1 D_1   
     e( 12 - 12) =      4.06196  eV     1   --> B_2  G_4 D_2'  
     e( 13 - 14) =      6.46192  eV     2   --> E    G_5 D_5   
     e( 15 - 15) =      8.99766  eV     1   --> A_1  G_1 D_1   
     e( 16 - 16) =     10.16367  eV     1   --> B_2  G_4 D_2'  
     e( 17 - 18) =     12.49778  eV     2   --> E    G_5 D_5   
     e( 19 - 19) =     13.63274  eV     1   --> B_2  G_4 D_2'  
     e( 20 - 20) =     15.62995  eV     1   --> A_1  G_1 D_1   
     e( 21 - 21) =     16.54889  eV     1   --> A_2  G_2 D_1'  
     e( 22 - 23) =     17.72450  eV     2   --> E    G_5 D_5   
     e( 24 - 24) =     18.57421  eV     1   --> B_2  G_4 D_2'  
     e( 25 - 26) =     22.80115  eV     2   --> E    G_5 D_5   
     e( 27 - 27) =     22.92493  eV     1   --> B_1  G_3 D_2   
     e( 28 - 28) =     23.47361  eV     1   --> B_2  G_4 D_2'  
     e( 29 - 29) =     24.05039  eV     1   --> A_1  G_1 D_1   
     e( 30 - 31) =     28.10381  eV     2   --> E    G_5 D_5   
     e( 32 - 32) =     30.03208  eV     1   --> B_2  G_4 D_2'  
     e( 33 - 34) =     30.66564  eV     2   --> E    G_5 D_5   
     e( 35 - 35) =     30.67814  eV     1   --> A_1  G_1 D_1   
     e( 36 - 36) =     32.06197  eV     1   --> A_1  G_1 D_1   

 **************************************************************************

 **************************************************************************

                    xk=(  -0.48000,   0.00000,   0.00000  )

     Band symmetry, C_4v (4mm)  point group:

     e(  1 -  2) =    -13.79883  eV     2   --> E    G_5 D_5   
     e(  3 -  3) =    -13.77704  eV     1   --> B_2  G_4 D_2'  
     e(  4 -  4) =    -13.66678  eV     1   --> A_2  G_2 D_1'  
     e(  5 -  5) =    -13.61985  eV     1   --> B_2  G_4 D_2'  
     e(  6 -  6) =    -13.52099  eV     1   --> A_1  G_1 D_1   
     e(  7 -  7) =    -13.42955  eV     1   --> B_1  G_3 D_2   
     e(  8 -  8) =    -13.36362  eV     1   --> A_1  G_1 D_1   
     e(  9 - 10) =    -13.35678  eV     2   --> E    G_5 D_5   
     e( 11 - 11) =     -1.99192  eV     1   --> A_1  G_1 D_1   
     e( 12 - 12) =      3.91265  eV     1   --> B_2  G_4 D_2'  
     e( 13 - 14) =      6.39173  eV     2   --> E    G_5 D_5   
     e( 15 - 15) =      8.95199  eV     1   --> A_1  G_1 D_1   
     e( 16 - 16) =     10.14715  eV     1   --> B_2  G_4 D_2'  
     e( 17 - 18) =     12.63983  eV     2   --> E    G_5 D_5   
     e( 19 - 19) =     13.69168  eV     1   --> B_2  G_4 D_2'  
     e( 20 - 20) =     15.80533  eV     1   --> A_1  G_1 D_1   
     e( 21 - 21) =     16.60311  eV     1   --> A_2  G_2 D_1'  
     e( 22 - 23) =     17.84723  eV     2   --> E    G_5 D_5   
     e( 24 - 24) =     18.67665  eV     1   --> B_2  G_4 D_2'  
     e( 25 - 26) =     22.58559  eV     2   --> E    G_5 D_5   
     e( 27 - 27) =     22.74469  eV     1   --> B_1  G_3 D_2   
     e( 28 - 28) =     23.78354  eV     1   --> B_2  G_4 D_2'  
     e( 29 - 29) =     23.84880  eV     1   --> A_1  G_1 D_1   
     e( 30 - 31) =     28.15587  eV     2   --> E    G_5 D_5   
     e( 32 - 32) =     30.03970  eV     1   --> B_2  G_4 D_2'  
     e( 33 - 34) =     30.36059  eV     2   --> E    G_5 D_5   
     e( 35 - 35) =     30.37617  eV     1   --> A_1  G_1 D_1   
     e( 36 - 36) =     31.92056  eV     1   --> B_2  G_4 D_2'  

 **************************************************************************

 **************************************************************************

                    xk=(  -0.50000,   0.00000,   0.00000  )

     Band symmetry, C_4v (4mm)  point group:

     e(  1 -  2) =    -13.80046  eV     2   --> E    G_5 D_5   
     e(  3 -  3) =    -13.77573  eV     1   --> B_2  G_4 D_2'  
     e(  4 -  4) =    -13.66316  eV     1   --> A_2  G_2 D_1'  
     e(  5 -  5) =    -13.61402  eV     1   --> B_2  G_4 D_2'  
     e(  6 -  6) =    -13.52761  eV     1   --> A_1  G_1 D_1   
     e(  7 -  7) =    -13.43304  eV     1   --> B_1  G_3 D_2   
     e(  8 -  8) =    -13.36519  eV     1   --> A_1  G_1 D_1   
     e(  9 - 10) =    -13.35432  eV     2   --> E    G_5 D_5   
     e( 11 - 11) =     -1.92914  eV     1   --> A_1  G_1 D_1   
     e( 12 - 12) =      3.76398  eV     1   --> B_2  G_4 D_2'  
     e( 13 - 14) =      6.32365  eV     2   --> E    G_5 D_5   
     e( 15 - 15) =      8.90871  eV     1   --> A_1  G_1 D_1   
     e( 16 - 16) =     10.11909  eV     1   --> B_2  G_4 D_2'  
     e( 17 - 18) =     12.78249  eV     2   --> E    G_5 D_5   
     e( 19 - 19) =     13.76630  eV     1   --> B_2  G_4 D_2'  
     e( 20 - 20) =     15.98183  eV     1   --> A_1  G_1 D_1   
     e( 21 - 21) =     16.65969  eV     1   --> A_2  G_2 D_1'  
     e( 22 - 23) =     17.97493  eV     2   --> E    G_5 D_5   
     e( 24 - 24) =     18.78304  eV     1   --> B_2  G_4 D_2'  
     e( 25 - 26) =     22.37207  eV     2   --> E    G_5 D_5   
     e( 27 - 27) =     22.56639  eV     1   --> B_1  G_3 D_2   
     e( 28 - 28) =     23.65136  eV     1   --> A_1  G_1 D_1   
     e( 29 - 29) =     24.09655  eV     1   --> B_2  G_4 D_2'  
     e( 30 - 31) =     28.20687  eV     2   --> E    G_5 D_5   
     e( 32 - 32) =     30.03294  eV     1   --> B_2  G_4 D_2'  
     e( 33 - 34) =     30.06088  eV     2   --> E    G_5 D_5   
     e( 35 - 35) =     30.07439  eV     1   --> A_1  G_1 D_1   
     e( 36 - 36) =     31.63551  eV     1   --> B_2  G_4 D_2'  

 **************************************************************************

 **************************************************************************

                    xk=(  -0.52000,   0.00000,   0.00000  )

     Band symmetry, C_4v (4mm)  point group:

     e(  1 -  2) =    -13.80208  eV     2   --> E    G_5 D_5   
     e(  3 -  3) =    -13.77425  eV     1   --> B_2  G_4 D_2'  
     e(  4 -  4) =    -13.65943  eV     1   --> A_2  G_2 D_1'  
     e(  5 -  5) =    -13.60811  eV     1   --> B_2  G_4 D_2'  
     e(  6 -  6) =    -13.53427  eV     1   --> A_1  G_1 D_1   
     e(  7 -  7) =    -13.43666  eV     1   --> B_1  G_3 D_2   
     e(  8 -  8) =    -13.36698  eV     1   --> A_1  G_1 D_1   
     e(  9 - 10) =    -13.35188  eV     2   --> E    G_5 D_5   
     e( 11 - 11) =     -1.86393  eV     1   --> A_1  G_1 D_1   
     e( 12 - 12) =      3.61600  eV     1   --> B_2  G_4 D_2'  
     e( 13 - 14) =      6.25777  eV     2   --> E    G_5 D_5   
     e( 15 - 15) =      8.86793  eV     1   --> A_1  G_1 D_1   
     e( 16 - 16) =     10.08112  eV     1   --> B_2  G_4 D_2'  
     e( 17 - 18) =     12.92562  eV     2   --> E    G_5 D_5   
     e( 19 - 19) =     13.85490  eV     1   --> B_2  G_4 D_2'  
     e( 20 - 20) =     16.15887  eV     1   --> A_1  G_1 D_1   
     e( 21 - 21) =     16.71863  eV     1   --> A_2  G_2 D_1'  
     e( 22 - 23) =     18.10749  eV     2   --> E    G_5 D_5   
     e( 24 - 24) =     18.89354  eV     1   --> B_2  G_4 D_2'  
     e( 25 - 26) =     22.16081  eV     2   --> E    G_5 D_5   
     e( 27 - 27) =     22.39011  eV     1   --> B_1  G_3 D_2   
     e( 28 - 28) =     23.45859  eV     1   --> A_1  G_1 D_1   
     e( 29 - 29) =     24.41214  eV     1   --> B_2  G_4 D_2'  
     e( 30 - 31) =     28.25390  eV     2   --> E    G_5 D_5   
     e( 32 - 33) =     29.76953  eV     2   --> E    G_5 D_5   
     e( 34 - 34) =     29.77318  eV     1   --> A_1  G_1 D_1   
     e( 35 - 35) =     30.00204  eV     1   --> B_2  G_4 D_2'  
     e( 36 - 36) =     31.38001  eV     1   --> B_2  G_4 D_2'  

 **************************************************************************

 **************************************************************************

                    xk=(  -0.54000,   0.00000,   0.00000  )

     Band symmetry, C_4v (4mm)  point group:

     e(  1 -  2) =    -13.80367  eV     2   --> E    G_5 D_5   
     e(  3 -  3) =    -13.77258  eV     1   --> B_2  G_4 D_2'  
     e(  4 -  4) =    -13.65560  eV     1   --> A_2  G_2 D_1'  
     e(  5 -  5) =    -13.60215  eV     1   --> B_2  G_4 D_2'  
     e(  6 -  6) =    -13.54097  eV     1   --> A_1  G_1 D_1   
     e(  7 -  7) =    -13.44038  eV     1   --> B_1  G_3 D_2   
     e(  8 -  8) =    -13.36897  eV     1   --> A_1  G_1 D_1   
     e(  9 - 10) =    -13.34946  eV     2   --> E    G_5 D_5   
     e( 11 - 11) =     -1.79629  eV     1   --> A_1  G_1 D_1   
     e( 12 - 12) =      3.46874  eV     1   --> B_2  G_4 D_2'  
     e( 13 - 14) =      6.19416  eV     2   --> E    G_5 D_5   
     e( 15 - 15) =      8.82971  eV     1   --> A_1  G_1 D_1   
     e( 16 - 16) =     10.03490  eV     1   --> B_2  G_4 D_2'  
     e( 17 - 18) =     13.06912  eV     2   --> E    G_5 D_5   
     e( 19 - 19) =     13.95577  eV     1   --> B_2  G_4 D_2'  
     e( 20 - 20) =     16.33583  eV     1   --> A_1  G_1 D_1   
     e( 21 - 21) =     16.77993  eV     1   --> A_2  G_2 D_1'  
     e( 22 - 23) =     18.24478  eV     2   --> E    G_5 D_5   
     e( 24 - 24) =     19.00827  eV     1   --> B_2  G_4 D_2'  
     e( 25 - 26) =     21.95205  eV     2   --> E    G_5 D_5   
     e( 27 - 27) =     22.21592  eV     1   --> B_1  G_3 D_2   
     e( 28 - 28) =     23.27105  eV     1   --> A_1  G_1 D_1   
     e( 29 - 29) =     24.72968  eV     1   --> B_2  G_4 D_2'  
     e( 30 - 31) =     28.29110  eV     2   --> E    G_5 D_5   
     e( 32 - 32) =     29.47287  eV     1   --> A_1  G_1 D_1   
     e( 33 - 34) =     29.49250  eV     2   --> E    G_5 D_5   
     e( 35 - 35) =     29.93310  eV     1   --> B_2  G_4 D_2'  
     e( 36 - 36) =     31.16865  eV     1   --> B_2  G_4 D_2'  

 **************************************************************************

 **************************************************************************

                    xk=(  -0.56000,   0.00000,   0.00000  )

     Band symmetry, C_4v (4mm)  point group:

     e(  1 -  2) =    -13.80524  eV     2   --> E    G_5 D_5   
     e(  3 -  3) =    -13.77074  eV     1   --> B_2  G_4 D_2'  
     e(  4 -  4) =    -13.65165  eV     1   --> A_2  G_2 D_1'  
     e(  5 -  5) =    -13.59612  eV     1   --> B_2  G_4 D_2'  
     e(  6 -  6) =    -13.54768  eV     1   --> A_1  G_1 D_1   
     e(  7 -  7) =    -13.44421  eV     1   --> B_1  G_3 D_2   
     e(  8 -  8) =    -13.37116  eV     1   --> A_1  G_1 D_1   
     e(  9 - 10) =    -13.34708  eV     2   --> E    G_5 D_5   
     e( 11 - 11) =     -1.72624  eV     1   --> A_1  G_1 D_1   
     e( 12 - 12) =      3.32225  eV     1   --> B_2  G_4 D_2'  
     e( 13 - 14) =      6.13289  eV     2   --> E    G_5 D_5   
     e( 15 - 15) =      8.79412  eV     1   --> A_1  G_1 D_1   
     e( 16 - 16) =      9.98200  eV     1   --> B_2  G_4 D_2'  
     e( 17 - 18) =     13.21286  eV     2   --> E    G_5 D_5   
     e( 19 - 19) =     14.06723  eV     1   --> B_2  G_4 D_2'  
     e( 20 - 20) =     16.51197  eV     1   --> A_1  G_1 D_1   
     e( 21 - 21) =     16.84359  eV     1   --> A_2  G_2 D_1'  
     e( 22 - 23) =     18.38663  eV     2   --> E    G_5 D_5   
     e( 24 - 24) =     19.12735  eV     1   --> B_2  G_4 D_2'  
     e( 25 - 26) =     21.74607  eV     2   --> E    G_5 D_5   
     e( 27 - 27) =     22.04387  eV     1   --> B_1  G_3 D_2   
     e( 28 - 28) =     23.08943  eV     1   --> A_1  G_1 D_1   
     e( 29 - 29) =     25.04835  eV     1   --> B_2  G_4 D_2'  
     e( 30 - 31) =     28.30560  eV     2   --> E    G_5 D_5   
     e( 32 - 32) =     29.17377  eV     1   --> A_1  G_1 D_1   
     e( 33 - 34) =     29.24271  eV     2   --> E    G_5 D_5   
     e( 35 - 35) =     29.81278  eV     1   --> B_2  G_4 D_2'  
     e( 36 - 36) =     31.01564  eV     1   --> B_2  G_4 D_2'  

 **************************************************************************

 **************************************************************************

                    xk=(  -0.58000,   0.00000,   0.00000  )

     Band symmetry, C_4v (4mm)  point group:

     e(  1 -  2) =    -13.80677  eV     2   --> E    G_5 D_5   
     e(  3 -  3) =    -13.76873  eV     1   --> B_2  G_4 D_2'  
     e(  4 -  4) =    -13.64761  eV     1   --> A_2  G_2 D_1'  
     e(  5 -  5) =    -13.59005  eV     1   --> B_2  G_4 D_2'  
     e(  6 -  6) =    -13.55442  eV     1   --> A_1  G_1 D_1   
     e(  7 -  7) =    -13.44814  eV     1   --> B_1  G_3 D_2   
     e(  8 -  8) =    -13.37356  eV     1   --> A_1  G_1 D_1   
     e(  9 - 10) =    -13.34474  eV     2   --> E    G_5 D_5   
     e( 11 - 11) =     -1.65380  eV     1   --> A_1  G_1 D_1   
     e( 12 - 12) =      3.17656  eV     1   --> B_2  G_4 D_2'  
     e( 13 - 14) =      6.07401  eV     2   --> E    G_5 D_5   
     e( 15 - 15) =      8.76122  eV     1   --> A_1  G_1 D_1   
     e( 16 - 16) =      9.92389  eV     1   --> B_2  G_4 D_2'  
     e( 17 - 18) =     13.35673  eV     2   --> E    G_5 D_5   
     e( 19 - 19) =     14.18775  eV     1   --> B_2  G_4 D_2'  
     e( 20 - 20) =     16.68642  eV     1   --> A_1  G_1 D_1   
     e( 21 - 21) =     16.90963  eV     1   --> A_2  G_2 D_1'  
     e( 22 - 23) =     18.53278  eV     2   --> E    G_5 D_5   
     e( 24 - 24) =     19.25087  eV     1   --> B_2  G_4 D_2'  
     e( 25 - 26) =     21.54319  eV     2   --> E    G_5 D_5   
     e( 27 - 27) =     21.87400  eV     1   --> B_1  G_3 D_2   
     e( 28 - 28) =     22.91452  eV     1   --> A_1  G_1 D_1   
     e( 29 - 29) =     25.36694  eV     1   --> B_2  G_4 D_2'  
     e( 30 - 31) =     28.27060  eV     2   --> E    G_5 D_5   
     e( 32 - 32) =     28.87617  eV     1   --> A_1  G_1 D_1   
     e( 33 - 34) =     29.04695  eV     2   --> E    G_5 D_5   
     e( 35 - 35) =     29.63898  eV     1   --> B_2  G_4 D_2'  
     e( 36 - 36) =     30.92428  eV     1   --> B_2  G_4 D_2'  

 **************************************************************************

 **************************************************************************

                    xk=(  -0.60000,   0.00000,   0.00000  )

     Band symmetry, C_4v (4mm)  point group:

     e(  1 -  2) =    -13.80827  eV     2   --> E    G_5 D_5   
     e(  3 -  3) =    -13.76653  eV     1   --> B_2  G_4 D_2'  
     e(  4 -  4) =    -13.64346  eV     1   --> A_2  G_2 D_1'  
     e(  5 -  5) =    -13.58394  eV     1   --> B_2  G_4 D_2'  
     e(  6 -  6) =    -13.56116  eV     1   --> A_1  G_1 D_1   
     e(  7 -  7) =    -13.45218  eV     1   --> B_1  G_3 D_2   
     e(  8 -  8) =    -13.37614  eV     1   --> A_1  G_1 D_1   
     e(  9 - 10) =    -13.34245  eV     2   --> E    G_5 D_5   
     e( 11 - 11) =     -1.57898  eV     1   --> A_1  G_1 D_1   
     e( 12 - 12) =      3.03171  eV     1   --> B_2  G_4 D_2'  
     e( 13 - 14) =      6.01757  eV     2   --> E    G_5 D_5   
     e( 15 - 15) =      8.73106  eV     1   --> A_1  G_1 D_1   
     e( 16 - 16) =      9.86187  eV     1   --> B_2  G_4 D_2'  
     e( 17 - 18) =     13.50060  eV     2   --> E    G_5 D_5   
     e( 19 - 19) =     14.31591  eV     1   --> B_2  G_4 D_2'  
     e( 20 - 20) =     16.85814  eV     1   --> A_1  G_1 D_1   
     e( 21 - 21) =     16.97804  eV     1   --> A_2  G_2 D_1'  
     e( 22 - 23) =     18.68289  eV     2   --> E    G_5 D_5   
     e( 24 - 24) =     19.37892  eV     1   --> B_2  G_4 D_2'  
     e( 25 - 26) =     21.34385  eV     2   --> E    G_5 D_5   
     e( 27 - 27) =     21.70636  eV     1   --> B_1  G_3 D_2   
     e( 28 - 28) =     22.74728  eV     1   --> A_1  G_1 D_1   
     e( 29 - 29) =     25.68364  eV     1   --> B_2  G_4 D_2'  
     e( 30 - 31) =     28.15283  eV     2   --> E    G_5 D_5   
     e( 32 - 32) =     28.58033  eV     1   --> A_1  G_1 D_1   
     e( 33 - 34) =     28.93849  eV     2   --> E    G_5 D_5   
     e( 35 - 35) =     29.42443  eV     1   --> B_2  G_4 D_2'  
     e( 36 - 36) =     30.88378  eV     1   --> B_2  G_4 D_2'  

 **************************************************************************

 **************************************************************************

                    xk=(  -0.62000,   0.00000,   0.00000  )

     Band symmetry, C_4v (4mm)  point group:

     e(  1 -  2) =    -13.80973  eV     2   --> E    G_5 D_5   
     e(  3 -  3) =    -13.76415  eV     1   --> B_2  G_4 D_2'  
     e(  4 -  4) =    -13.63923  eV     1   --> A_2  G_2 D_1'  
     e(  5 -  5) =    -13.57779  eV     1   --> B_2  G_4 D_2'  
     e(  6 -  6) =    -13.56790  eV     1   --> A_1  G_1 D_1   
     e(  7 -  7) =    -13.45630  eV     1   --> B_1  G_3 D_2   
     e(  8 -  8) =    -13.37893  eV     1   --> A_1  G_1 D_1   
     e(  9 - 10) =    -13.34021  eV     2   --> E    G_5 D_5   
     e( 11 - 11) =     -1.50181  eV     1   --> A_1  G_1 D_1   
     e( 12 - 12) =      2.88775  eV     1   --> B_2  G_4 D_2'  
     e( 13 - 14) =      5.96363  eV     2   --> E    G_5 D_5   
     e( 15 - 15) =      8.70370  eV     1   --> A_1  G_1 D_1   
     e( 16 - 16) =      9.79708  eV     1   --> B_2  G_4 D_2'  
     e( 17 - 18) =     13.64432  eV     2   --> E    G_5 D_5   
     e( 19 - 19) =     14.45050  eV     1   --> B_2  G_4 D_2'  
     e( 20 - 20) =     17.02591  eV     1   --> A_1  G_1 D_1   
     e( 21 - 21) =     17.04884  eV     1   --> A_2  G_2 D_1'  
     e( 22 - 23) =     18.83645  eV     2   --> E    G_5 D_5   
     e( 24 - 24) =     19.51155  eV     1   --> B_2  G_4 D_2'  
     e( 25 - 26) =     21.14866  eV     2   --> E    G_5 D_5   
     e( 27 - 27) =     21.54099  eV     1   --> B_1  G_3 D_2   
     e( 28 - 28) =     22.58885  eV     1   --> A_1  G_1 D_1   
     e( 29 - 29) =     25.99537  eV     1   --> B_2  G_4 D_2'  
     e( 30 - 31) =     27.95489  eV     2   --> E    G_5 D_5   
     e( 32 - 32) =     28.28651  eV     1   --> A_1  G_1 D_1   
     e( 33 - 34) =     28.91471  eV     2   --> E    G_5 D_5   
     e( 35 - 35) =     29.18772  eV     1   --> B_2  G_4 D_2'  
     e( 36 - 36) =     30.87862  eV     1   --> B_2  G_4 D_2'  

 **************************************************************************

 **************************************************************************

                    xk=(  -0.64000,   0.00000,   0.00000  )

     Band symmetry, C_4v (4mm)  point group:

     e(  1 -  2) =    -13.81113  eV     2   --> E    G_5 D_5   
     e(  3 -  3) =    -13.76160  eV     1   --> B_2  G_4 D_2'  
     e(  4 -  4) =    -13.63490  eV     1   --> A_2  G_2 D_1'  
     e(  5 -  5) =    -13.57464  eV     1   --> A_1  G_1 D_1   
     e(  6 -  6) =    -13.57161  eV     1   --> B_2  G_4 D_2'  
     e(  7 -  7) =    -13.46052  eV     1   --> B_1  G_3 D_2   
     e(  8 -  8) =    -13.38190  eV     1   --> A_1  G_1 D_1   
     e(  9 - 10) =    -13.33805  eV     2   --> E    G_5 D_5   
     e( 11 - 11) =     -1.42230  eV     1   --> A_1  G_1 D_1   
     e( 12 - 12) =      2.74472  eV     1   --> B_2  G_4 D_2'  
     e( 13 - 14) =      5.91223  eV     2   --> E    G_5 D_5   
     e( 15 - 15) =      8.67916  eV     1   --> A_1  G_1 D_1   
     e( 16 - 16) =      9.73048  eV     1   --> B_2  G_4 D_2'  
     e( 17 - 18) =     13.78776  eV     2   --> E    G_5 D_5   
     e( 19 - 19) =     14.59043  eV     1   --> B_2  G_4 D_2'  
     e( 20 - 20) =     17.12203  eV     1   --> A_2  G_2 D_1'  
     e( 21 - 21) =     17.18824  eV     1   --> A_1  G_1 D_1   
     e( 22 - 23) =     18.99259  eV     2   --> E    G_5 D_5   
     e( 24 - 24) =     19.64882  eV     1   --> B_2  G_4 D_2'  
     e( 25 - 26) =     20.95857  eV     2   --> E    G_5 D_5   
     e( 27 - 27) =     21.37791  eV     1   --> B_1  G_3 D_2   
     e( 28 - 28) =     22.44060  eV     1   --> A_1  G_1 D_1   
     e( 29 - 29) =     26.29661  eV     1   --> B_2  G_4 D_2'  
     e( 30 - 31) =     27.71109  eV     2   --> E    G_5 D_5   
     e( 32 - 32) =     27.99496  eV     1   --> A_1  G_1 D_1   
     e( 33 - 34) =     28.94124  eV     2   --> E    G_5 D_5   
     e( 35 - 35) =     28.94661  eV     1   --> B_2  G_4 D_2'  
     e( 36 - 36) =     30.89666  eV     1   --> B_2  G_4 D_2'  

 **************************************************************************

 **************************************************************************

                    xk=(  -0.66000,   0.00000,   0.00000  )

     Band symmetry, C_4v (4mm)  point group:

     e(  1 -  2) =    -13.81249  eV     2   --> E    G_5 D_5   
     e(  3 -  3) =    -13.75887  eV     1   --> B_2  G_4 D_2'  
     e(  4 -  4) =    -13.63049  eV     1   --> A_2  G_2 D_1'  
     e(  5 -  5) =    -13.58137  eV     1   --> A_1  G_1 D_1   
     e(  6 -  6) =    -13.56540  eV     1   --> B_2  G_4 D_2'  
     e(  7 -  7) =    -13.46483  eV     1   --> B_1  G_3 D_2   
     e(  8 -  8) =    -13.38505  eV     1   --> A_1  G_1 D_1   
     e(  9 - 10) =    -13.33595  eV     2   --> E    G_5 D_5   
     e( 11 - 11) =     -1.34048  eV     1   --> A_1  G_1 D_1   
     e( 12 - 12) =      2.60266  eV     1   --> B_2  G_4 D_2'  
     e( 13 - 14) =      5.86340  eV     2   --> E    G_5 D_5   
     e( 15 - 15) =      8.65749  eV     1   --> A_1  G_1 D_1   
     e( 16 - 16) =      9.66290  eV     1   --> B_2  G_4 D_2'  
     e( 17 - 18) =     13.93072  eV     2   --> E    G_5 D_5   
     e( 19 - 19) =     14.73478  eV     1   --> B_2  G_4 D_2'  
     e( 20 - 20) =     17.19760  eV     1   --> A_2  G_2 D_1'  
     e( 21 - 21) =     17.34339  eV     1   --> A_1  G_1 D_1   
     e( 22 - 23) =     19.14982  eV     2   --> E    G_5 D_5   
     e( 24 - 24) =     19.79075  eV     1   --> B_2  G_4 D_2'  
     e( 25 - 26) =     20.77520  eV     2   --> E    G_5 D_5   
     e( 27 - 27) =     21.21715  eV     1   --> B_1  G_3 D_2   
     e( 28 - 28) =     22.30415  eV     1   --> A_1  G_1 D_1   
     e( 29 - 29) =     26.57657  eV     1   --> B_2  G_4 D_2'  
     e( 30 - 31) =     27.44658  eV     2   --> E    G_5 D_5   
     e( 32 - 32) =     27.70594  eV     1   --> A_1  G_1 D_1   
     e( 33 - 33) =     28.71962  eV     1   --> B_2  G_4 D_2'  
     e( 34 - 35) =     28.99286  eV     2   --> E    G_5 D_5   
     e( 36 - 36) =     30.93024  eV     1   --> B_2  G_4 D_2'  

 **************************************************************************

 **************************************************************************

                    xk=(  -0.68000,   0.00000,   0.00000  )

     Band symmetry, C_4v (4mm)  point group:

     e(  1 -  2) =    -13.81379  eV     2   --> E    G_5 D_5   
     e(  3 -  3) =    -13.75596  eV     1   --> B_2  G_4 D_2'  
     e(  4 -  4) =    -13.62600  eV     1   --> A_2  G_2 D_1'  
     e(  5 -  5) =    -13.58808  eV     1   --> A_1  G_1 D_1   
     e(  6 -  6) =    -13.55918  eV     1   --> B_2  G_4 D_2'  
     e(  7 -  7) =    -13.46922  eV     1   --> B_1  G_3 D_2   
     e(  8 -  8) =    -13.38839  eV     1   --> A_1  G_1 D_1   
     e(  9 - 10) =    -13.33393  eV     2   --> E    G_5 D_5   
     e( 11 - 11) =     -1.25637  eV     1   --> A_1  G_1 D_1   
     e( 12 - 12) =      2.46161  eV     1   --> B_2  G_4 D_2'  
     e( 13 - 14) =      5.81719  eV     2   --> E    G_5 D_5   
     e( 15 - 15) =      8.63873  eV     1   --> A_1  G_1 D_1   
     e( 16 - 16) =      9.59503  eV     1   --> B_2  G_4 D_2'  
     e( 17 - 18) =     14.07301  eV     2   --> E    G_5 D_5   
     e( 19 - 19) =     14.88272  eV     1   --> B_2  G_4 D_2'  
     e( 20 - 20) =     17.27558  eV     1   --> A_2  G_2 D_1'  
     e( 21 - 21) =     17.48931  eV     1   --> A_1  G_1 D_1   
     e( 22 - 23) =     19.30517  eV     2   --> E    G_5 D_5   
     e( 24 - 24) =     19.93734  eV     1   --> B_2  G_4 D_2'  
     e( 25 - 26) =     20.60163  eV     2   --> E    G_5 D_5   
     e( 27 - 27) =     21.05873  eV     1   --> B_1  G_3 D_2   
     e( 28 - 28) =     22.18142  eV     1   --> A_1  G_1 D_1   
     e( 29 - 29) =     26.81307  eV     1   --> B_2  G_4 D_2'  
     e( 30 - 31) =     27.17322  eV     2   --> E    G_5 D_5   
     e( 32 - 32) =     27.41970  eV     1   --> A_1  G_1 D_1   
     e( 33 - 33) =     28.53350  eV     1   --> B_2  G_4 D_2'  
     e( 34 - 35) =     29.05764  eV     2   --> E    G_5 D_5   
     e( 36 - 36) =     30.97489  eV     1   --> B_2  G_4 D_2'  

 **************************************************************************

 **************************************************************************

                    xk=(  -0.70000,   0.00000,   0.00000  )

     Band symmetry, C_4v (4mm)  point group:

     e(  1 -  2) =    -13.81503  eV     2   --> E    G_5 D_5   
     e(  3 -  3) =    -13.75288  eV     1   --> B_2  G_4 D_2'  
     e(  4 -  4) =    -13.62143  eV     1   --> A_2  G_2 D_1'  
     e(  5 -  5) =    -13.59476  eV     1   --> A_1  G_1 D_1   
     e(  6 -  6) =    -13.55295  eV     1   --> B_2  G_4 D_2'  
     e(  7 -  7) =    -13.47369  eV     1   --> B_1  G_3 D_2   
     e(  8 -  8) =    -13.39191  eV     1   --> A_1  G_1 D_1   
     e(  9 - 10) =    -13.33201  eV     2   --> E    G_5 D_5   
     e( 11 - 11) =     -1.16999  eV     1   --> A_1  G_1 D_1   
     e( 12 - 12) =      2.32162  eV     1   --> B_2  G_4 D_2'  
     e( 13 - 14) =      5.77363  eV     2   --> E    G_5 D_5   
     e( 15 - 15) =      8.62290  eV     1   --> A_1  G_1 D_1   
     e( 16 - 16) =      9.52747  eV     1   --> B_2  G_4 D_2'  
     e( 17 - 18) =     14.21437  eV     2   --> E    G_5 D_5   
     e( 19 - 19) =     15.03357  eV     1   --> B_2  G_4 D_2'  
     e( 20 - 20) =     17.35596  eV     1   --> A_2  G_2 D_1'  
     e( 21 - 21) =     17.62364  eV     1   --> A_1  G_1 D_1   
     e( 22 - 23) =     19.45209  eV     2   --> E    G_5 D_5   
     e( 24 - 24) =     20.08857  eV     1   --> B_2  G_4 D_2'  
     e( 25 - 26) =     20.44459  eV     2   --> E    G_5 D_5   
     e( 27 - 27) =     20.90268  eV     1   --> B_1  G_3 D_2   
     e( 28 - 28) =     22.07459  eV     1   --> A_1  G_1 D_1   
     e( 29 - 30) =     26.89643  eV     2   --> E    G_5 D_5   
     e( 31 - 31) =     26.96452  eV     1   --> B_2  G_4 D_2'  
     e( 32 - 32) =     27.13653  eV     1   --> A_1  G_1 D_1   
     e( 33 - 33) =     28.43254  eV     1   --> B_2  G_4 D_2'  
     e( 34 - 35) =     29.13002  eV     2   --> E    G_5 D_5   
     e( 36 - 36) =     31.02802  eV     1   --> B_2  G_4 D_2'  

 **************************************************************************

 **************************************************************************

                    xk=(  -0.72000,   0.00000,   0.00000  )

     Band symmetry, C_4v (4mm)  point group:

     e(  1 -  2) =    -13.81621  eV     2   --> E    G_5 D_5   
     e(  3 -  3) =    -13.74963  eV     1   --> B_2  G_4 D_2'  
     e(  4 -  4) =    -13.61680  eV     1   --> A_2  G_2 D_1'  
     e(  5 -  5) =    -13.60141  eV     1   --> A_1  G_1 D_1   
     e(  6 -  6) =    -13.54671  eV     1   --> B_2  G_4 D_2'  
     e(  7 -  7) =    -13.47823  eV     1   --> B_1  G_3 D_2   
     e(  8 -  8) =    -13.39559  eV     1   --> A_1  G_1 D_1   
     e(  9 - 10) =    -13.33017  eV     2   --> E    G_5 D_5   
     e( 11 - 11) =     -1.08136  eV     1   --> A_1  G_1 D_1   
     e( 12 - 12) =      2.18273  eV     1   --> B_2  G_4 D_2'  
     e( 13 - 14) =      5.73275  eV     2   --> E    G_5 D_5   
     e( 15 - 15) =      8.61002  eV     1   --> A_1  G_1 D_1   
     e( 16 - 16) =      9.46068  eV     1   --> B_2  G_4 D_2'  
     e( 17 - 18) =     14.35451  eV     2   --> E    G_5 D_5   
     e( 19 - 19) =     15.18670  eV     1   --> B_2  G_4 D_2'  
     e( 20 - 20) =     17.43875  eV     1   --> A_2  G_2 D_1'  
     e( 21 - 21) =     17.74375  eV     1   --> A_1  G_1 D_1   
     e( 22 - 23) =     19.57433  eV     2   --> E    G_5 D_5   
     e( 24 - 24) =     20.24438  eV     1   --> B_2  G_4 D_2'  
     e( 25 - 26) =     20.32049  eV     2   --> E    G_5 D_5   
     e( 27 - 27) =     20.74901  eV     1   --> B_1  G_3 D_2   
     e( 28 - 28) =     21.98609  eV     1   --> A_1  G_1 D_1   
     e( 29 - 30) =     26.61894  eV     2   --> E    G_5 D_5   
     e( 31 - 31) =     26.85671  eV     1   --> A_1  G_1 D_1   
     e( 32 - 32) =     26.98423  eV     1   --> B_2  G_4 D_2'  
     e( 33 - 33) =     28.46498  eV     1   --> B_2  G_4 D_2'  
     e( 34 - 35) =     29.20714  eV     2   --> E    G_5 D_5   
     e( 36 - 36) =     31.08821  eV     1   --> B_2  G_4 D_2'  

 **************************************************************************

 **************************************************************************

[...]
     e( 19 - 19) =     14.81915  eV     1   --> A_1  L_1       
     e( 20 - 21) =     15.85914  eV     2   --> E    L_3       
     e( 22 - 22) =     18.17191  eV     1   --> A_1  L_1       
     e( 23 - 24) =     19.59188  eV     2   --> E    L_3       
     e( 25 - 25) =     21.37278  eV     1   --> A_1  L_1       
     e( 26 - 27) =     22.38180  eV     2   --> E    L_3       
     e( 28 - 28) =     25.02589  eV     1   --> A_1  L_1       
     e( 29 - 29) =     27.21549  eV     1   --> A_1  L_1       
     e( 30 - 30) =     27.40717  eV     1   --> A_2  L_2       
     e( 31 - 32) =     27.53057  eV     2   --> E    L_3       
     e( 33 - 34) =     29.43446  eV     2   --> E    L_3       
     e( 35 - 36) =     30.81965  eV     2   --> E    L_3       

 **************************************************************************

 **************************************************************************

                    xk=(  -0.40000,   0.40000,   0.40000  )

     Band symmetry, C_3v (3m)   point group:

     e(  1 -  2) =    -13.80775  eV     2   --> E    L_3       
     e(  3 -  3) =    -13.74776  eV     1   --> A_1  L_1       
     e(  4 -  5) =    -13.65295  eV     2   --> E    L_3       
     e(  6 -  7) =    -13.45468  eV     2   --> E    L_3       
     e(  8 -  8) =    -13.42675  eV     1   --> A_1  L_1       
     e(  9 - 10) =    -13.33961  eV     2   --> E    L_3       
     e( 11 - 11) =     -1.38500  eV     1   --> A_1  L_1       
     e( 12 - 12) =      2.08499  eV     1   --> A_1  L_1       
     e( 13 - 14) =      6.88468  eV     2   --> E    L_3       
     e( 15 - 15) =      7.98401  eV     1   --> A_1  L_1       
     e( 16 - 17) =     11.18381  eV     2   --> E    L_3       
     e( 18 - 18) =     13.69538  eV     1   --> A_1  L_1       
     e( 19 - 19) =     14.97935  eV     1   --> A_1  L_1       
     e( 20 - 21) =     15.96672  eV     2   --> E    L_3       
     e( 22 - 22) =     18.11913  eV     1   --> A_1  L_1       
     e( 23 - 24) =     19.41960  eV     2   --> E    L_3       
     e( 25 - 25) =     21.44623  eV     1   --> A_1  L_1       
     e( 26 - 27) =     22.57985  eV     2   --> E    L_3       
     e( 28 - 28) =     25.24728  eV     1   --> A_1  L_1       
     e( 29 - 29) =     26.96444  eV     1   --> A_1  L_1       
     e( 30 - 31) =     27.29992  eV     2   --> E    L_3       
     e( 32 - 32) =     27.43006  eV     1   --> A_2  L_2       
     e( 33 - 34) =     29.48570  eV     2   --> E    L_3       
     e( 35 - 35) =     30.55635  eV     1   --> A_1  L_1       
     e( 36 - 36) =     30.85615  eV     1   -->   ?

 **************************************************************************

 **************************************************************************

                    xk=(  -0.41000,   0.41000,   0.41000  )

     Band symmetry, C_3v (3m)   point group:

     e(  1 -  2) =    -13.80804  eV     2   --> E    L_3       
     e(  3 -  3) =    -13.74726  eV     1   --> A_1  L_1       
     e(  4 -  5) =    -13.65235  eV     2   --> E    L_3       
     e(  6 -  7) =    -13.45510  eV     2   --> E    L_3       
     e(  8 -  8) =    -13.42739  eV     1   --> A_1  L_1       
     e(  9 - 10) =    -13.33929  eV     2   --> E    L_3       
     e( 11 - 11) =     -1.33798  eV     1   --> A_1  L_1       
     e( 12 - 12) =      1.99974  eV     1   --> A_1  L_1       
     e( 13 - 14) =      6.87030  eV     2   --> E    L_3       
     e( 15 - 15) =      7.97210  eV     1   --> A_1  L_1       
     e( 16 - 17) =     11.18370  eV     2   --> E    L_3       
     e( 18 - 18) =     13.68114  eV     1   --> A_1  L_1       
     e( 19 - 19) =     15.14296  eV     1   --> A_1  L_1       
     e( 20 - 21) =     16.07631  eV     2   --> E    L_3       
     e( 22 - 22) =     18.03988  eV     1   --> A_1  L_1       
     e( 23 - 24) =     19.25197  eV     2   --> E    L_3       
     e( 25 - 25) =     21.54638  eV     1   --> A_1  L_1       
     e( 26 - 27) =     22.77808  eV     2   --> E    L_3       
     e( 28 - 28) =     25.45976  eV     1   --> A_1  L_1       
     e( 29 - 29) =     26.73077  eV     1   --> A_1  L_1       
     e( 30 - 31) =     27.07132  eV     2   --> E    L_3       
     e( 32 - 32) =     27.45139  eV     1   --> A_2  L_2       
     e( 33 - 34) =     29.53515  eV     2   --> E    L_3       
     e( 35 - 35) =     30.28113  eV     1   --> A_1  L_1       
     e( 36 - 36) =     30.89213  eV     1   -->   ?

 **************************************************************************

 **************************************************************************

                    xk=(  -0.42000,   0.42000,   0.42000  )

     Band symmetry, C_3v (3m)   point group:

     e(  1 -  2) =    -13.80830  eV     2   --> E    L_3       
     e(  3 -  3) =    -13.74679  eV     1   --> A_1  L_1       
     e(  4 -  5) =    -13.65181  eV     2   --> E    L_3       
     e(  6 -  7) =    -13.45547  eV     2   --> E    L_3       
     e(  8 -  8) =    -13.42797  eV     1   --> A_1  L_1       
     e(  9 - 10) =    -13.33900  eV     2   --> E    L_3       
     e( 11 - 11) =     -1.29354  eV     1   --> A_1  L_1       
     e( 12 - 12) =      1.92105  eV     1   --> A_1  L_1       
     e( 13 - 14) =      6.85741  eV     2   --> E    L_3       
     e( 15 - 15) =      7.96140  eV     1   --> A_1  L_1       
     e( 16 - 17) =     11.18318  eV     2   --> E    L_3       
     e( 18 - 18) =     13.66726  eV     1   --> A_1  L_1       
     e( 19 - 19) =     15.30896  eV     1   --> A_1  L_1       
     e( 20 - 21) =     16.18699  eV     2   --> E    L_3       
     e( 22 - 22) =     17.93860  eV     1   --> A_1  L_1       
     e( 23 - 24) =     19.08977  eV     2   --> E    L_3       
     e( 25 - 25) =     21.66747  eV     1   --> A_1  L_1       
     e( 26 - 27) =     22.97583  eV     2   --> E    L_3       
     e( 28 - 28) =     25.64616  eV     1   --> A_1  L_1       
     e( 29 - 29) =     26.53304  eV     1   --> A_1  L_1       
     e( 30 - 31) =     26.84580  eV     2   --> E    L_3       
     e( 32 - 32) =     27.47099  eV     1   --> A_2  L_2       
     e( 33 - 34) =     29.58201  eV     2   --> E    L_3       
     e( 35 - 35) =     30.00686  eV     1   --> A_1  L_1       
     e( 36 - 36) =     30.92700  eV     1   -->   ?

 **************************************************************************

 **************************************************************************

                    xk=(  -0.43000,   0.43000,   0.43000  )

     Band symmetry, C_3v (3m)   point group:

     e(  1 -  2) =    -13.80852  eV     2   --> E    L_3       
     e(  3 -  3) =    -13.74638  eV     1   --> A_1  L_1       
     e(  4 -  5) =    -13.65135  eV     2   --> E    L_3       
     e(  6 -  7) =    -13.45579  eV     2   --> E    L_3       
     e(  8 -  8) =    -13.42849  eV     1   --> A_1  L_1       
     e(  9 - 10) =    -13.33876  eV     2   --> E    L_3       
     e( 11 - 11) =     -1.25224  eV     1   --> A_1  L_1       
     e( 12 - 12) =      1.84950  eV     1   --> A_1  L_1       
     e( 13 - 14) =      6.84600  eV     2   --> E    L_3       
     e( 15 - 15) =      7.95194  eV     1   --> A_1  L_1       
     e( 16 - 17) =     11.18238  eV     2   --> E    L_3       
     e( 18 - 18) =     13.65427  eV     1   --> A_1  L_1       
     e( 19 - 19) =     15.47662  eV     1   --> A_1  L_1       
     e( 20 - 21) =     16.29754  eV     2   --> E    L_3       
     e( 22 - 22) =     17.81971  eV     1   --> A_1  L_1       
     e( 23 - 24) =     18.93410  eV     2   --> E    L_3       
     e( 25 - 25) =     21.80334  eV     1   --> A_1  L_1       
     e( 26 - 27) =     23.17219  eV     2   --> E    L_3       
     e( 28 - 28) =     25.75535  eV     1   --> A_1  L_1       
     e( 29 - 29) =     26.42429  eV     1   --> A_1  L_1       
     e( 30 - 31) =     26.62455  eV     2   --> E    L_3       
     e( 32 - 32) =     27.48871  eV     1   --> A_2  L_2       
     e( 33 - 34) =     29.62555  eV     2   --> E    L_3       
     e( 35 - 35) =     29.73391  eV     1   --> A_1  L_1       
     e( 36 - 36) =     30.96012  eV     1   -->   ?

 **************************************************************************

 **************************************************************************

                    xk=(  -0.44000,   0.44000,   0.44000  )

     Band symmetry, C_3v (3m)   point group:

     e(  1 -  2) =    -13.80872  eV     2   --> E    L_3       
     e(  3 -  3) =    -13.74601  eV     1   --> A_1  L_1       
     e(  4 -  5) =    -13.65095  eV     2   --> E    L_3       
     e(  6 -  7) =    -13.45606  eV     2   --> E    L_3       
     e(  8 -  8) =    -13.42895  eV     1   --> A_1  L_1       
     e(  9 - 10) =    -13.33854  eV     2   --> E    L_3       
     e( 11 - 11) =     -1.21469  eV     1   --> A_1  L_1       
     e( 12 - 12) =      1.78571  eV     1   --> A_1  L_1       
     e( 13 - 14) =      6.83610  eV     2   --> E    L_3       
     e( 15 - 15) =      7.94372  eV     1   --> A_1  L_1       
     e( 16 - 17) =     11.18144  eV     2   --> E    L_3       
     e( 18 - 18) =     13.64256  eV     1   --> A_1  L_1       
     e( 19 - 19) =     15.64524  eV     1   --> A_1  L_1       
     e( 20 - 21) =     16.40632  eV     2   --> E    L_3       
     e( 22 - 22) =     17.68729  eV     1   --> A_1  L_1       
     e( 23 - 24) =     18.78644  eV     2   --> E    L_3       
     e( 25 - 25) =     21.94757  eV     1   --> A_1  L_1       
     e( 26 - 27) =     23.36574  eV     2   --> E    L_3       
     e( 28 - 28) =     25.71797  eV     1   --> A_1  L_1       
     e( 29 - 30) =     26.40918  eV     2   --> E    L_3       
     e( 31 - 31) =     26.47642  eV     1   --> A_1  L_1       
     e( 32 - 32) =     27.50439  eV     1   --> A_2  L_2       
     e( 33 - 33) =     29.46263  eV     1   --> A_1  L_1       
     e( 34 - 35) =     29.66506  eV     2   --> E    L_3       
     e( 36 - 36) =     30.99084  eV     1   -->   ?

 **************************************************************************

 **************************************************************************

                    xk=(  -0.45000,   0.45000,   0.45000  )

     Band symmetry, C_3v (3m)   point group:

     e(  1 -  2) =    -13.80888  eV     2   --> E    L_3       
     e(  3 -  3) =    -13.74571  eV     1   --> A_1  L_1       
     e(  4 -  5) =    -13.65061  eV     2   --> E    L_3       
     e(  6 -  7) =    -13.45628  eV     2   --> E    L_3       
     e(  8 -  8) =    -13.42934  eV     1   --> A_1  L_1       
     e(  9 - 10) =    -13.33836  eV     2   --> E    L_3       
     e( 11 - 11) =     -1.18150  eV     1   --> A_1  L_1       
     e( 12 - 12) =      1.73030  eV     1   --> A_1  L_1       
     e( 13 - 14) =      6.82771  eV     2   --> E    L_3       
     e( 15 - 15) =      7.93675  eV     1   --> A_1  L_1       
     e( 16 - 17) =     11.18046  eV     2   --> E    L_3       
     e( 18 - 18) =     13.63235  eV     1   --> A_1  L_1       
     e( 19 - 19) =     15.81408  eV     1   --> A_1  L_1       
     e( 20 - 21) =     16.51110  eV     2   --> E    L_3       
     e( 22 - 22) =     17.54491  eV     1   --> A_1  L_1       
     e( 23 - 24) =     18.64895  eV     2   --> E    L_3       
     e( 25 - 25) =     22.09341  eV     1   --> A_1  L_1       
     e( 26 - 27) =     23.55425  eV     2   --> E    L_3       
     e( 28 - 28) =     25.58086  eV     1   --> A_1  L_1       
     e( 29 - 30) =     26.20203  eV     2   --> E    L_3       
     e( 31 - 31) =     26.64606  eV     1   --> A_1  L_1       
     e( 32 - 32) =     27.51791  eV     1   --> A_2  L_2       
     e( 33 - 33) =     29.19343  eV     1   --> A_1  L_1       
     e( 34 - 35) =     29.69987  eV     2   --> E    L_3       
     e( 36 - 36) =     31.01848  eV     1   -->   ?

 **************************************************************************

 **************************************************************************

                    xk=(  -0.46000,   0.46000,   0.46000  )

     Band symmetry, C_3v (3m)   point group:

     e(  1 -  2) =    -13.80901  eV     2   --> E    L_3       
     e(  3 -  3) =    -13.74545  eV     1   --> A_1  L_1       
     e(  4 -  5) =    -13.65034  eV     2   --> E    L_3       
     e(  6 -  7) =    -13.45646  eV     2   --> E    L_3       
     e(  8 -  8) =    -13.42966  eV     1   --> A_1  L_1       
     e(  9 - 10) =    -13.33822  eV     2   --> E    L_3       
     e( 11 - 11) =     -1.15330  eV     1   --> A_1  L_1       
     e( 12 - 12) =      1.68390  eV     1   --> A_1  L_1       
     e( 13 - 14) =      6.82084  eV     2   --> E    L_3       
     e( 15 - 15) =      7.93104  eV     1   --> A_1  L_1       
     e( 16 - 17) =     11.17954  eV     2   --> E    L_3       
     e( 18 - 18) =     13.62381  eV     1   --> A_1  L_1       
     e( 19 - 19) =     15.98206  eV     1   --> A_1  L_1       
     e( 20 - 21) =     16.60874  eV     2   --> E    L_3       
     e( 22 - 22) =     17.39589  eV     1   --> A_1  L_1       
     e( 23 - 24) =     18.52467  eV     2   --> E    L_3       
     e( 25 - 25) =     22.23337  eV     1   --> A_1  L_1       
     e( 26 - 27) =     23.73406  eV     2   --> E    L_3       
     e( 28 - 28) =     25.42107  eV     1   --> A_1  L_1       
     e( 29 - 30) =     26.00688  eV     2   --> E    L_3       
     e( 31 - 31) =     26.86080  eV     1   --> A_1  L_1       
     e( 32 - 32) =     27.52914  eV     1   --> A_2  L_2       
     e( 33 - 33) =     28.92687  eV     1   --> A_1  L_1       
     e( 34 - 35) =     29.72936  eV     2   --> E    L_3       
     e( 36 - 36) =     31.04234  eV     1   -->   ?

 **************************************************************************

 **************************************************************************

                    xk=(  -0.47000,   0.47000,   0.47000  )

     Band symmetry, C_3v (3m)   point group:

     e(  1 -  2) =    -13.80910  eV     2   --> E    L_3       
     e(  3 -  3) =    -13.74525  eV     1   --> A_1  L_1       
     e(  4 -  5) =    -13.65013  eV     2   --> E    L_3       
     e(  6 -  7) =    -13.45660  eV     2   --> E    L_3       
     e(  8 -  8) =    -13.42991  eV     1   --> A_1  L_1       
     e(  9 - 10) =    -13.33810  eV     2   --> E    L_3       
     e( 11 - 11) =     -1.13065  eV     1   --> A_1  L_1       
     e( 12 - 12) =      1.64709  eV     1   --> A_1  L_1       
     e( 13 - 14) =      6.81549  eV     2   --> E    L_3       
     e( 15 - 15) =      7.92659  eV     1   --> A_1  L_1       
     e( 16 - 17) =     11.17874  eV     2   --> E    L_3       
     e( 18 - 18) =     13.61707  eV     1   --> A_1  L_1       
     e( 19 - 19) =     16.14725  eV     1   --> A_1  L_1       
     e( 20 - 21) =     16.69491  eV     2   --> E    L_3       
     e( 22 - 22) =     17.24386  eV     1   --> A_1  L_1       
     e( 23 - 24) =     18.41785  eV     2   --> E    L_3       
     e( 25 - 25) =     22.35883  eV     1   --> A_1  L_1       
     e( 26 - 27) =     23.89891  eV     2   --> E    L_3       
     e( 28 - 28) =     25.27267  eV     1   --> A_1  L_1       
     e( 29 - 30) =     25.83002  eV     2   --> E    L_3       
     e( 31 - 31) =     27.09252  eV     1   --> A_1  L_1       
     e( 32 - 32) =     27.53799  eV     1   --> A_2  L_2       
     e( 33 - 33) =     28.66395  eV     1   --> A_1  L_1       
     e( 34 - 35) =     29.75296  eV     2   --> E    L_3       
     e( 36 - 36) =     31.06176  eV     1   -->   ?

 **************************************************************************

 **************************************************************************

                    xk=(  -0.48000,   0.48000,   0.48000  )

     Band symmetry, C_3v (3m)   point group:

     e(  1 -  2) =    -13.80918  eV     2   --> E    L_3       
     e(  3 -  3) =    -13.74511  eV     1   --> A_1  L_1       
     e(  4 -  5) =    -13.64998  eV     2   --> E    L_3       
     e(  6 -  7) =    -13.45669  eV     2   --> E    L_3       
     e(  8 -  8) =    -13.43009  eV     1   --> A_1  L_1       
     e(  9 - 10) =    -13.33803  eV     2   --> E    L_3       
     e( 11 - 11) =     -1.11408  eV     1   --> A_1  L_1       
     e( 12 - 12) =      1.62040  eV     1   --> A_1  L_1       
     e( 13 - 14) =      6.81166  eV     2   --> E    L_3       
     e( 15 - 15) =      7.92341  eV     1   --> A_1  L_1       
     e( 16 - 17) =     11.17813  eV     2   --> E    L_3       
     e( 18 - 18) =     13.61221  eV     1   --> A_1  L_1       
     e( 19 - 19) =     16.30519  eV     1   --> A_1  L_1       
     e( 20 - 21) =     16.76391  eV     2   --> E    L_3       
     e( 22 - 22) =     17.09451  eV     1   --> A_1  L_1       
     e( 23 - 24) =     18.33414  eV     2   --> E    L_3       
     e( 25 - 25) =     22.45988  eV     1   --> A_1  L_1       
     e( 26 - 27) =     24.03824  eV     2   --> E    L_3       
     e( 28 - 28) =     25.15310  eV     1   --> A_1  L_1       
     e( 29 - 30) =     25.68209  eV     2   --> E    L_3       
     e( 31 - 31) =     27.32994  eV     1   --> A_1  L_1       
     e( 32 - 32) =     27.54437  eV     1   --> A_2  L_2       
     e( 33 - 33) =     28.40718  eV     1   --> A_1  L_1       
     e( 34 - 35) =     29.77019  eV     2   --> E    L_3       
     e( 36 - 36) =     31.07614  eV     1   -->   ?

 **************************************************************************

 **************************************************************************

                    xk=(  -0.49000,   0.49000,   0.49000  )

     Band symmetry, C_3v (3m)   point group:

     e(  1 -  2) =    -13.80922  eV     2   --> E    L_3       
     e(  3 -  3) =    -13.74502  eV     1   --> A_1  L_1       
     e(  4 -  5) =    -13.64990  eV     2   --> E    L_3       
     e(  6 -  7) =    -13.45675  eV     2   --> E    L_3       
     e(  8 -  8) =    -13.43020  eV     1   --> A_1  L_1       
     e(  9 - 10) =    -13.33798  eV     2   --> E    L_3       
     e( 11 - 11) =     -1.10396  eV     1   --> A_1  L_1       
     e( 12 - 12) =      1.60421  eV     1   --> A_1  L_1       
     e( 13 - 14) =      6.80937  eV     2   --> E    L_3       
     e( 15 - 15) =      7.92150  eV     1   --> A_1  L_1       
     e( 16 - 17) =     11.17775  eV     2   --> E    L_3       
     e( 18 - 18) =     13.60927  eV     1   --> A_1  L_1       
     e( 19 - 19) =     16.44189  eV     1   --> A_1  L_1       
     e( 20 - 21) =     16.80921  eV     2   --> E    L_3       
     e( 22 - 22) =     16.96266  eV     1   --> A_1  L_1       
     e( 23 - 24) =     18.28003  eV     2   --> E    L_3       
     e( 25 - 25) =     22.52621  eV     1   --> A_1  L_1       
     e( 26 - 27) =     24.13547  eV     2   --> E    L_3       
     e( 28 - 28) =     25.07513  eV     1   --> A_1  L_1       
     e( 29 - 30) =     25.57969  eV     2   --> E    L_3       
     e( 31 - 31) =     27.54822  eV     1   --> A_2  L_2       
     e( 32 - 32) =     27.55982  eV     1   --> A_1  L_1       
     e( 33 - 33) =     28.16653  eV     1   --> A_1  L_1       
     e( 34 - 35) =     29.78068  eV     2   --> E    L_3       
     e( 36 - 36) =     31.08497  eV     1   -->   ?

 **************************************************************************

 **************************************************************************

                    xk=(  -0.50000,   0.50000,   0.50000  )

     zone border point and non-symmorphic group 
     symmetry decomposition not available

 **************************************************************************

     BANDS        :  25m56.63s CPU  27m15.40s WALL


   This run was terminated on:  16:21:36  24Feb2026            

=------------------------------------------------------------------------------=
   JOB DONE.
=------------------------------------------------------------------------------=
