
     Program PWSCF v.7.3.1 starts on  5Feb2026 at 15:54:29 

     This program is part of the open-source Quantum ESPRESSO suite
     for quantum simulation of materials; please cite
         "P. Giannozzi et al., J. Phys.:Condens. Matter 21 395502 (2009);
         "P. Giannozzi et al., J. Phys.:Condens. Matter 29 465901 (2017);
         "P. Giannozzi et al., J. Chem. Phys. 152 154105 (2020);
          URL http://www.quantum-espresso.org", 
     in publications or presentations arising from this work. More details at
     http://www.quantum-espresso.org/quote

     Parallel version (MPI), running on   128 processors

     MPI processes distributed on     1 nodes
     242372 MiB available memory on the printing compute node when the environment starts

     Waiting for input...
     Reading input from standard input
     Message from routine read_cards :
     DEPRECATED: no units specified in ATOMIC_POSITIONS card
     Message from routine read_cards :
     ATOMIC_POSITIONS: units set to alat

     Current dimensions of program PWSCF are:
     Max number of different atomic species (ntypx) = 10
     Max number of k-points (npk) =  40000
     Max angular momentum in pseudopotentials (lmaxx) =  4

     K-points division:     npool     =       8
     R & G space division:  proc/nbgrp/npool/nimage =      16
     Subspace diagonalization in iterative solution of the eigenvalue problem:
     a serial algorithm will be used


     Parallelization info
     --------------------
     sticks:   dense  smooth     PW     G-vecs:    dense   smooth      PW
     Min         136     136     37                 4208     4208     614
     Max         138     138     38                 4210     4210     618
     Sum        2185    2185    595                67337    67337    9841

     Using Slab Decomposition



     bravais-lattice index     =            2
     lattice parameter (alat)  =      12.2300  a.u.
     unit-cell volume          =     457.3191 (a.u.)^3
     number of atoms/cell      =            2
     number of atomic types    =            1
     number of electrons       =        28.00
     number of Kohn-Sham states=           14
     kinetic-energy cutoff     =     106.0000  Ry
     charge density cutoff     =     424.0000  Ry
     scf convergence threshold =      1.0E-07
     mixing beta               =       0.7000
     number of iterations used =            8  plain     mixing
     Exchange-correlation=  SLA  PW   GGX  GGC
                           (   1   4   2   2   0   0   0)

     celldm(1)=  12.230000  celldm(2)=   0.000000  celldm(3)=   0.000000
     celldm(4)=   0.000000  celldm(5)=   0.000000  celldm(6)=   0.000000

     crystal axes: (cart. coord. in units of alat)
               a(1) = (  -0.500000   0.000000   0.500000 )  
               a(2) = (   0.000000   0.500000   0.500000 )  
               a(3) = (  -0.500000   0.500000   0.000000 )  

     reciprocal axes: (cart. coord. in units 2 pi/alat)
               b(1) = ( -1.000000 -1.000000  1.000000 )  
               b(2) = (  1.000000  1.000000  1.000000 )  
               b(3) = ( -1.000000  1.000000 -1.000000 )  


     PseudoPot. # 1 for Sn read from file:
     ./Sn.pw91-n-van.UPF
     MD5 check sum: a38d2a872edd1a4efd76c0a1a38f7031
     Pseudo is Ultrasoft + core correction, Zval = 14.0
     Generated by new atomic code, or converted to UPF format
     Using radial grid of  891 points,  6 beta functions with: 
                l(1) =   0
                l(2) =   0
                l(3) =   1
                l(4) =   1
                l(5) =   2
                l(6) =   2
     Q(r) pseudized with  8 coefficients,  rinner =    1.100   1.100   1.100
                                                       1.100   1.100

     atomic species   valence    mass     pseudopotential
     Sn               14.00   118.70000     Sn( 1.00)

     48 Sym. Ops., with inversion, found (24 have fractional translation)



   Cartesian axes

     site n.     atom                  positions (alat units)
         1        Sn     tau(   1) = (   0.0000000   0.0000000   0.0000000  )
         2        Sn     tau(   2) = (   0.2500000   0.2500000   0.2500000  )

     number of k points=     8
                       cart. coord. in units 2pi/alat
        k(    1) = (   0.0000000   0.0000000   0.0000000), wk =   0.0312500
        k(    2) = (  -0.2500000   0.2500000  -0.2500000), wk =   0.2500000
        k(    3) = (   0.5000000  -0.5000000   0.5000000), wk =   0.1250000
        k(    4) = (   0.0000000   0.5000000   0.0000000), wk =   0.1875000
        k(    5) = (   0.7500000  -0.2500000   0.7500000), wk =   0.7500000
        k(    6) = (   0.5000000   0.0000000   0.5000000), wk =   0.3750000
        k(    7) = (   0.0000000  -1.0000000   0.0000000), wk =   0.0937500
        k(    8) = (  -0.5000000  -1.0000000   0.0000000), wk =   0.1875000

     Dense  grid:    67337 G-vectors     FFT dimensions: (  60,  60,  60)

     Estimated max dynamical RAM per process >       6.36 MB

     Estimated total dynamical RAM >     698.75 MB

     Initial potential from superposition of free atoms

     starting charge      27.9964, renormalised to      28.0000
     Starting wfcs are   18 randomized atomic wfcs

     total cpu time spent up to now is        0.9 secs

     per-process dynamical memory:    12.6 Mb

     Self-consistent Calculation

     iteration #  1     ecut=   106.00 Ry     beta= 0.70
     Davidson diagonalization with overlap
     ethr =  1.00E-02,  avg # of iterations =  1.6

     Threshold (ethr) on eigenvalues was too large:
     Diagonalizing with lowered threshold

     Davidson diagonalization with overlap
     ethr =  8.31E-05,  avg # of iterations =  2.1

     total cpu time spent up to now is        1.0 secs

     total energy              =    -325.61476537 Ry
     estimated scf accuracy    <       0.02865307 Ry

     iteration #  2     ecut=   106.00 Ry     beta= 0.70
     Davidson diagonalization with overlap
     ethr =  1.02E-04,  avg # of iterations =  1.0

     negative rho (up, down):  1.936E-06 0.000E+00

     total cpu time spent up to now is        1.0 secs

     total energy              =    -325.61581826 Ry
     estimated scf accuracy    <       0.00161969 Ry

     iteration #  3     ecut=   106.00 Ry     beta= 0.70
     Davidson diagonalization with overlap
     ethr =  5.78E-06,  avg # of iterations =  2.1

     negative rho (up, down):  5.805E-06 0.000E+00

     total cpu time spent up to now is        1.1 secs

     total energy              =    -325.61595745 Ry
     estimated scf accuracy    <       0.00003952 Ry

     iteration #  4     ecut=   106.00 Ry     beta= 0.70
     Davidson diagonalization with overlap
     ethr =  1.41E-07,  avg # of iterations =  3.8

     negative rho (up, down):  8.224E-06 0.000E+00

     total cpu time spent up to now is        1.2 secs

     total energy              =    -325.61596947 Ry
     estimated scf accuracy    <       0.00000337 Ry

     iteration #  5     ecut=   106.00 Ry     beta= 0.70
     Davidson diagonalization with overlap
     ethr =  1.20E-08,  avg # of iterations =  3.2

     negative rho (up, down):  7.984E-06 0.000E+00

     total cpu time spent up to now is        1.2 secs

     total energy              =    -325.61597004 Ry
     estimated scf accuracy    <       0.00000034 Ry

     iteration #  6     ecut=   106.00 Ry     beta= 0.70
     Davidson diagonalization with overlap
     ethr =  1.20E-09,  avg # of iterations =  2.6

     negative rho (up, down):  8.117E-06 0.000E+00

     total cpu time spent up to now is        1.3 secs

     End of self-consistent calculation

          k = 0.0000 0.0000 0.0000 (  8393 PWs)   bands (ev):

   -13.7063 -13.7063 -13.7063 -13.6471 -13.6471 -13.3295 -13.3295 -13.3295
   -13.3208 -13.3208  -2.7003   7.3361   8.0637   8.0637

          k =-0.2500 0.2500-0.2500 (  8405 PWs)   bands (ev):

   -13.7326 -13.7326 -13.6931 -13.6063 -13.6063 -13.3752 -13.3752 -13.3464
   -13.2836 -13.2836  -2.1083   3.9185   7.3006   7.3006

          k = 0.5000-0.5000 0.5000 (  8424 PWs)   bands (ev):

   -13.7433 -13.7433 -13.6791 -13.5851 -13.5851 -13.3914 -13.3914 -13.3641
   -13.2719 -13.2719  -1.0619   1.6352   6.8434   6.8434

          k = 0.0000 0.5000 0.0000 (  8412 PWs)   bands (ev):

   -13.7344 -13.7344 -13.7104 -13.5984 -13.5487 -13.4622 -13.3677 -13.2994
   -13.2883 -13.2883  -1.8913   3.8044   6.3565   6.3565

          k = 0.7500-0.2500 0.7500 (  8438 PWs)   bands (ev):

   -13.7733 -13.7527 -13.6465 -13.5476 -13.5184 -13.4902 -13.4226 -13.3739
   -13.2599 -13.2388  -0.7140   1.6734   5.0200   6.0393

          k = 0.5000 0.0000 0.5000 (  8452 PWs)   bands (ev):

   -13.7667 -13.7547 -13.6403 -13.5822 -13.5444 -13.4365 -13.4054 -13.3912
   -13.2561 -13.2491  -1.2013   2.3657   4.9305   6.7747

          k = 0.0000-1.0000 0.0000 (  8416 PWs)   bands (ev):

   -13.7586 -13.7586 -13.6221 -13.6221 -13.4821 -13.4821 -13.3967 -13.3967
   -13.2508 -13.2508   0.4181   0.4181   5.4848   5.4848

          k =-0.5000-1.0000 0.0000 (  8432 PWs)   bands (ev):

   -13.7767 -13.7767 -13.5631 -13.5631 -13.4914 -13.4914 -13.4459 -13.4459
   -13.2332 -13.2332   0.4784   0.4784   4.9006   4.9006

     highest occupied level (ev):     8.0637

!    total energy              =    -325.61597010 Ry
     estimated scf accuracy    <       0.00000006 Ry

     The total energy is the sum of the following terms:
     one-electron contribution =    -150.97497094 Ry
     hartree contribution      =      93.25079769 Ry
     xc contribution           =     -95.23236649 Ry
     ewald contribution        =    -172.65943036 Ry

     convergence has been achieved in   6 iterations

     Writing all to output data dir ./alpha-sn-scf/alphatin.save/ :
     XML data file, charge density, pseudopotentials, collected wavefunctions

     init_run     :      0.57s CPU      0.59s WALL (       1 calls)
     electrons    :      0.33s CPU      0.41s WALL (       1 calls)

     Called by init_run:
     wfcinit      :      0.02s CPU      0.03s WALL (       1 calls)
     potinit      :      0.03s CPU      0.03s WALL (       1 calls)
     hinit0       :      0.45s CPU      0.46s WALL (       1 calls)

     Called by electrons:
     c_bands      :      0.14s CPU      0.16s WALL (       7 calls)
     sum_band     :      0.07s CPU      0.09s WALL (       7 calls)
     v_of_rho     :      0.09s CPU      0.09s WALL (       7 calls)
     newd         :      0.03s CPU      0.03s WALL (       7 calls)
     mix_rho      :      0.01s CPU      0.01s WALL (       7 calls)

     Called by c_bands:
     init_us_2    :      0.00s CPU      0.00s WALL (      15 calls)
     cegterg      :      0.13s CPU      0.14s WALL (       7 calls)

     Called by *egterg:
     cdiaghg      :      0.01s CPU      0.01s WALL (      27 calls)
     h_psi        :      0.12s CPU      0.13s WALL (      29 calls)
     s_psi        :      0.00s CPU      0.00s WALL (      29 calls)
     g_psi        :      0.00s CPU      0.00s WALL (      21 calls)

     Called by h_psi:
     h_psi:calbec :      0.01s CPU      0.01s WALL (      29 calls)
     vloc_psi     :      0.11s CPU      0.12s WALL (      29 calls)
     add_vuspsi   :      0.00s CPU      0.00s WALL (      29 calls)

     General routines
     calbec       :      0.01s CPU      0.01s WALL (      36 calls)
     fft          :      0.45s CPU      0.46s WALL (      78 calls)
     ffts         :      0.01s CPU      0.01s WALL (       7 calls)
     fftw         :      0.11s CPU      0.12s WALL (     618 calls)

     Parallel routines

     PWSCF        :      1.13s CPU      1.39s WALL


   This run was terminated on:  15:54:30   5Feb2026            

=------------------------------------------------------------------------------=
   JOB DONE.
=------------------------------------------------------------------------------=
