
     Program PWSCF v.7.3.1 starts on  5Feb2026 at 15:54:44 

     This program is part of the open-source Quantum ESPRESSO suite
     for quantum simulation of materials; please cite
         "P. Giannozzi et al., J. Phys.:Condens. Matter 21 395502 (2009);
         "P. Giannozzi et al., J. Phys.:Condens. Matter 29 465901 (2017);
         "P. Giannozzi et al., J. Chem. Phys. 152 154105 (2020);
          URL http://www.quantum-espresso.org", 
     in publications or presentations arising from this work. More details at
     http://www.quantum-espresso.org/quote

     Parallel version (MPI), running on   128 processors

     MPI processes distributed on     1 nodes
     242373 MiB available memory on the printing compute node when the environment starts

     Waiting for input...
     Reading input from standard input
     Message from routine read_cards :
     DEPRECATED: no units specified in ATOMIC_POSITIONS card
     Message from routine read_cards :
     ATOMIC_POSITIONS: units set to alat

     Current dimensions of program PWSCF are:
     Max number of different atomic species (ntypx) = 10
     Max number of k-points (npk) =  40000
     Max angular momentum in pseudopotentials (lmaxx) =  4

     K-points division:     npool     =       8
     R & G space division:  proc/nbgrp/npool/nimage =      16
     Subspace diagonalization in iterative solution of the eigenvalue problem:
     a serial algorithm will be used


     Parallelization info
     --------------------
     sticks:   dense  smooth     PW     G-vecs:    dense   smooth      PW
     Min         139     139     38                 4341     4341     629
     Max         140     140     39                 4343     4343     631
     Sum        2233    2233    613                69473    69473   10081

     Using Slab Decomposition



     bravais-lattice index     =            2
     lattice parameter (alat)  =      12.2300  a.u.
     unit-cell volume          =     457.3191 (a.u.)^3
     number of atoms/cell      =            2
     number of atomic types    =            1
     number of electrons       =        28.00
     number of Kohn-Sham states=           14
     kinetic-energy cutoff     =     108.0000  Ry
     charge density cutoff     =     432.0000  Ry
     scf convergence threshold =      1.0E-07
     mixing beta               =       0.7000
     number of iterations used =            8  plain     mixing
     Exchange-correlation=  SLA  PW   GGX  GGC
                           (   1   4   2   2   0   0   0)

     celldm(1)=  12.230000  celldm(2)=   0.000000  celldm(3)=   0.000000
     celldm(4)=   0.000000  celldm(5)=   0.000000  celldm(6)=   0.000000

     crystal axes: (cart. coord. in units of alat)
               a(1) = (  -0.500000   0.000000   0.500000 )  
               a(2) = (   0.000000   0.500000   0.500000 )  
               a(3) = (  -0.500000   0.500000   0.000000 )  

     reciprocal axes: (cart. coord. in units 2 pi/alat)
               b(1) = ( -1.000000 -1.000000  1.000000 )  
               b(2) = (  1.000000  1.000000  1.000000 )  
               b(3) = ( -1.000000  1.000000 -1.000000 )  


     PseudoPot. # 1 for Sn read from file:
     ./Sn.pw91-n-van.UPF
     MD5 check sum: a38d2a872edd1a4efd76c0a1a38f7031
     Pseudo is Ultrasoft + core correction, Zval = 14.0
     Generated by new atomic code, or converted to UPF format
     Using radial grid of  891 points,  6 beta functions with: 
                l(1) =   0
                l(2) =   0
                l(3) =   1
                l(4) =   1
                l(5) =   2
                l(6) =   2
     Q(r) pseudized with  8 coefficients,  rinner =    1.100   1.100   1.100
                                                       1.100   1.100

     atomic species   valence    mass     pseudopotential
     Sn               14.00   118.70000     Sn( 1.00)

     48 Sym. Ops., with inversion, found (24 have fractional translation)



   Cartesian axes

     site n.     atom                  positions (alat units)
         1        Sn     tau(   1) = (   0.0000000   0.0000000   0.0000000  )
         2        Sn     tau(   2) = (   0.2500000   0.2500000   0.2500000  )

     number of k points=     8
                       cart. coord. in units 2pi/alat
        k(    1) = (   0.0000000   0.0000000   0.0000000), wk =   0.0312500
        k(    2) = (  -0.2500000   0.2500000  -0.2500000), wk =   0.2500000
        k(    3) = (   0.5000000  -0.5000000   0.5000000), wk =   0.1250000
        k(    4) = (   0.0000000   0.5000000   0.0000000), wk =   0.1875000
        k(    5) = (   0.7500000  -0.2500000   0.7500000), wk =   0.7500000
        k(    6) = (   0.5000000   0.0000000   0.5000000), wk =   0.3750000
        k(    7) = (   0.0000000  -1.0000000   0.0000000), wk =   0.0937500
        k(    8) = (  -0.5000000  -1.0000000   0.0000000), wk =   0.1875000

     Dense  grid:    69473 G-vectors     FFT dimensions: (  60,  60,  60)

     Estimated max dynamical RAM per process >       6.49 MB

     Estimated total dynamical RAM >     711.68 MB

     Initial potential from superposition of free atoms

     starting charge      27.9964, renormalised to      28.0000
     Starting wfcs are   18 randomized atomic wfcs

     total cpu time spent up to now is        0.9 secs

     per-process dynamical memory:    12.7 Mb

     Self-consistent Calculation

     iteration #  1     ecut=   108.00 Ry     beta= 0.70
     Davidson diagonalization with overlap
     ethr =  1.00E-02,  avg # of iterations =  1.6

     Threshold (ethr) on eigenvalues was too large:
     Diagonalizing with lowered threshold

     Davidson diagonalization with overlap
     ethr =  8.29E-05,  avg # of iterations =  2.2

     total cpu time spent up to now is        1.0 secs

     total energy              =    -325.61482189 Ry
     estimated scf accuracy    <       0.02897757 Ry

     iteration #  2     ecut=   108.00 Ry     beta= 0.70
     Davidson diagonalization with overlap
     ethr =  1.03E-04,  avg # of iterations =  1.0

     total cpu time spent up to now is        1.1 secs

     total energy              =    -325.61595895 Ry
     estimated scf accuracy    <       0.00155451 Ry

     iteration #  3     ecut=   108.00 Ry     beta= 0.70
     Davidson diagonalization with overlap
     ethr =  5.55E-06,  avg # of iterations =  2.2

     negative rho (up, down):  3.501E-06 0.000E+00

     total cpu time spent up to now is        1.1 secs

     total energy              =    -325.61609195 Ry
     estimated scf accuracy    <       0.00003610 Ry

     iteration #  4     ecut=   108.00 Ry     beta= 0.70
     Davidson diagonalization with overlap
     ethr =  1.29E-07,  avg # of iterations =  3.4

     negative rho (up, down):  5.726E-06 0.000E+00

     total cpu time spent up to now is        1.2 secs

     total energy              =    -325.61610172 Ry
     estimated scf accuracy    <       0.00000293 Ry

     iteration #  5     ecut=   108.00 Ry     beta= 0.70
     Davidson diagonalization with overlap
     ethr =  1.05E-08,  avg # of iterations =  3.5

     negative rho (up, down):  5.574E-06 0.000E+00

     total cpu time spent up to now is        1.2 secs

     total energy              =    -325.61610226 Ry
     estimated scf accuracy    <       0.00000022 Ry

     iteration #  6     ecut=   108.00 Ry     beta= 0.70
     Davidson diagonalization with overlap
     ethr =  7.83E-10,  avg # of iterations =  2.8

     negative rho (up, down):  5.692E-06 0.000E+00

     total cpu time spent up to now is        1.3 secs

     End of self-consistent calculation

          k = 0.0000 0.0000 0.0000 (  8657 PWs)   bands (ev):

   -13.7062 -13.7062 -13.7062 -13.6472 -13.6472 -13.3296 -13.3296 -13.3296
   -13.3208 -13.3208  -2.7003   7.3361   8.0638   8.0638

          k =-0.2500 0.2500-0.2500 (  8681 PWs)   bands (ev):

   -13.7325 -13.7325 -13.6931 -13.6064 -13.6064 -13.3752 -13.3752 -13.3464
   -13.2837 -13.2837  -2.1083   3.9185   7.3007   7.3007

          k = 0.5000-0.5000 0.5000 (  8694 PWs)   bands (ev):

   -13.7433 -13.7433 -13.6791 -13.5851 -13.5851 -13.3915 -13.3915 -13.3642
   -13.2719 -13.2719  -1.0619   1.6352   6.8434   6.8434

          k = 0.0000 0.5000 0.0000 (  8652 PWs)   bands (ev):

   -13.7344 -13.7344 -13.7103 -13.5984 -13.5486 -13.4622 -13.3677 -13.2994
   -13.2882 -13.2882  -1.8913   3.8044   6.3565   6.3565

          k = 0.7500-0.2500 0.7500 (  8653 PWs)   bands (ev):

   -13.7732 -13.7527 -13.6464 -13.5476 -13.5184 -13.4902 -13.4225 -13.3739
   -13.2599 -13.2388  -0.7139   1.6734   5.0200   6.0393

          k = 0.5000 0.0000 0.5000 (  8666 PWs)   bands (ev):

   -13.7666 -13.7547 -13.6403 -13.5822 -13.5444 -13.4365 -13.4054 -13.3912
   -13.2560 -13.2491  -1.2013   2.3658   4.9305   6.7748

          k = 0.0000-1.0000 0.0000 (  8680 PWs)   bands (ev):

   -13.7586 -13.7586 -13.6221 -13.6221 -13.4822 -13.4822 -13.3967 -13.3967
   -13.2508 -13.2508   0.4181   0.4181   5.4848   5.4848

          k =-0.5000-1.0000 0.0000 (  8652 PWs)   bands (ev):

   -13.7767 -13.7767 -13.5631 -13.5631 -13.4914 -13.4914 -13.4459 -13.4459
   -13.2332 -13.2332   0.4784   0.4784   4.9006   4.9006

     highest occupied level (ev):     8.0638

!    total energy              =    -325.61610230 Ry
     estimated scf accuracy    <       0.00000007 Ry

     The total energy is the sum of the following terms:
     one-electron contribution =    -150.97488690 Ry
     hartree contribution      =      93.25053779 Ry
     xc contribution           =     -95.23232282 Ry
     ewald contribution        =    -172.65943036 Ry

     convergence has been achieved in   6 iterations

     Writing all to output data dir ./alpha-sn-scf/alphatin.save/ :
     XML data file, charge density, pseudopotentials, collected wavefunctions

     init_run     :      0.53s CPU      0.59s WALL (       1 calls)
     electrons    :      0.36s CPU      0.42s WALL (       1 calls)

     Called by init_run:
     wfcinit      :      0.01s CPU      0.02s WALL (       1 calls)
     potinit      :      0.02s CPU      0.03s WALL (       1 calls)
     hinit0       :      0.44s CPU      0.46s WALL (       1 calls)

     Called by electrons:
     c_bands      :      0.14s CPU      0.16s WALL (       7 calls)
     sum_band     :      0.08s CPU      0.09s WALL (       7 calls)
     v_of_rho     :      0.09s CPU      0.10s WALL (       7 calls)
     newd         :      0.03s CPU      0.04s WALL (       7 calls)
     mix_rho      :      0.01s CPU      0.01s WALL (       7 calls)

     Called by c_bands:
     init_us_2    :      0.00s CPU      0.00s WALL (      15 calls)
     cegterg      :      0.13s CPU      0.14s WALL (       7 calls)

     Called by *egterg:
     cdiaghg      :      0.01s CPU      0.01s WALL (      25 calls)
     h_psi        :      0.12s CPU      0.13s WALL (      27 calls)
     s_psi        :      0.00s CPU      0.00s WALL (      27 calls)
     g_psi        :      0.00s CPU      0.00s WALL (      19 calls)

     Called by h_psi:
     h_psi:calbec :      0.00s CPU      0.01s WALL (      27 calls)
     vloc_psi     :      0.11s CPU      0.12s WALL (      27 calls)
     add_vuspsi   :      0.00s CPU      0.00s WALL (      27 calls)

     General routines
     calbec       :      0.01s CPU      0.01s WALL (      34 calls)
     fft          :      0.46s CPU      0.47s WALL (      78 calls)
     ffts         :      0.00s CPU      0.00s WALL (       7 calls)
     fftw         :      0.12s CPU      0.12s WALL (     628 calls)

     Parallel routines

     PWSCF        :      1.15s CPU      1.46s WALL


   This run was terminated on:  15:54:45   5Feb2026            

=------------------------------------------------------------------------------=
   JOB DONE.
=------------------------------------------------------------------------------=
