
     Program PWSCF v.7.3.1 starts on  5Feb2026 at 15:55: 5 

     This program is part of the open-source Quantum ESPRESSO suite
     for quantum simulation of materials; please cite
         "P. Giannozzi et al., J. Phys.:Condens. Matter 21 395502 (2009);
         "P. Giannozzi et al., J. Phys.:Condens. Matter 29 465901 (2017);
         "P. Giannozzi et al., J. Chem. Phys. 152 154105 (2020);
          URL http://www.quantum-espresso.org", 
     in publications or presentations arising from this work. More details at
     http://www.quantum-espresso.org/quote

     Parallel version (MPI), running on   128 processors

     MPI processes distributed on     1 nodes
     242383 MiB available memory on the printing compute node when the environment starts

     Waiting for input...
     Reading input from standard input
     Message from routine read_cards :
     DEPRECATED: no units specified in ATOMIC_POSITIONS card
     Message from routine read_cards :
     ATOMIC_POSITIONS: units set to alat

     Current dimensions of program PWSCF are:
     Max number of different atomic species (ntypx) = 10
     Max number of k-points (npk) =  40000
     Max angular momentum in pseudopotentials (lmaxx) =  4

     K-points division:     npool     =       8
     R & G space division:  proc/nbgrp/npool/nimage =      16
     Subspace diagonalization in iterative solution of the eigenvalue problem:
     a serial algorithm will be used


     Parallelization info
     --------------------
     sticks:   dense  smooth     PW     G-vecs:    dense   smooth      PW
     Min         143     143     40                 4561     4561     673
     Max         144     144     41                 4563     4563     674
     Sum        2299    2299    649                73001    73001   10777

     Using Slab Decomposition



     bravais-lattice index     =            2
     lattice parameter (alat)  =      12.2300  a.u.
     unit-cell volume          =     457.3191 (a.u.)^3
     number of atoms/cell      =            2
     number of atomic types    =            1
     number of electrons       =        28.00
     number of Kohn-Sham states=           14
     kinetic-energy cutoff     =     112.0000  Ry
     charge density cutoff     =     448.0000  Ry
     scf convergence threshold =      1.0E-07
     mixing beta               =       0.7000
     number of iterations used =            8  plain     mixing
     Exchange-correlation=  SLA  PW   GGX  GGC
                           (   1   4   2   2   0   0   0)

     celldm(1)=  12.230000  celldm(2)=   0.000000  celldm(3)=   0.000000
     celldm(4)=   0.000000  celldm(5)=   0.000000  celldm(6)=   0.000000

     crystal axes: (cart. coord. in units of alat)
               a(1) = (  -0.500000   0.000000   0.500000 )  
               a(2) = (   0.000000   0.500000   0.500000 )  
               a(3) = (  -0.500000   0.500000   0.000000 )  

     reciprocal axes: (cart. coord. in units 2 pi/alat)
               b(1) = ( -1.000000 -1.000000  1.000000 )  
               b(2) = (  1.000000  1.000000  1.000000 )  
               b(3) = ( -1.000000  1.000000 -1.000000 )  


     PseudoPot. # 1 for Sn read from file:
     ./Sn.pw91-n-van.UPF
     MD5 check sum: a38d2a872edd1a4efd76c0a1a38f7031
     Pseudo is Ultrasoft + core correction, Zval = 14.0
     Generated by new atomic code, or converted to UPF format
     Using radial grid of  891 points,  6 beta functions with: 
                l(1) =   0
                l(2) =   0
                l(3) =   1
                l(4) =   1
                l(5) =   2
                l(6) =   2
     Q(r) pseudized with  8 coefficients,  rinner =    1.100   1.100   1.100
                                                       1.100   1.100

     atomic species   valence    mass     pseudopotential
     Sn               14.00   118.70000     Sn( 1.00)

     48 Sym. Ops., with inversion, found (24 have fractional translation)



   Cartesian axes

     site n.     atom                  positions (alat units)
         1        Sn     tau(   1) = (   0.0000000   0.0000000   0.0000000  )
         2        Sn     tau(   2) = (   0.2500000   0.2500000   0.2500000  )

     number of k points=     8
                       cart. coord. in units 2pi/alat
        k(    1) = (   0.0000000   0.0000000   0.0000000), wk =   0.0312500
        k(    2) = (  -0.2500000   0.2500000  -0.2500000), wk =   0.2500000
        k(    3) = (   0.5000000  -0.5000000   0.5000000), wk =   0.1250000
        k(    4) = (   0.0000000   0.5000000   0.0000000), wk =   0.1875000
        k(    5) = (   0.7500000  -0.2500000   0.7500000), wk =   0.7500000
        k(    6) = (   0.5000000   0.0000000   0.5000000), wk =   0.3750000
        k(    7) = (   0.0000000  -1.0000000   0.0000000), wk =   0.0937500
        k(    8) = (  -0.5000000  -1.0000000   0.0000000), wk =   0.1875000

     Dense  grid:    73001 G-vectors     FFT dimensions: (  60,  60,  60)

     Estimated max dynamical RAM per process >       6.72 MB

     Estimated total dynamical RAM >     734.93 MB

     Initial potential from superposition of free atoms

     starting charge      27.9964, renormalised to      28.0000
     Starting wfcs are   18 randomized atomic wfcs

     total cpu time spent up to now is        0.9 secs

     per-process dynamical memory:    12.7 Mb

     Self-consistent Calculation

     iteration #  1     ecut=   112.00 Ry     beta= 0.70
     Davidson diagonalization with overlap
     ethr =  1.00E-02,  avg # of iterations =  1.8

     Threshold (ethr) on eigenvalues was too large:
     Diagonalizing with lowered threshold

     Davidson diagonalization with overlap
     ethr =  8.55E-05,  avg # of iterations =  2.1

     total cpu time spent up to now is        1.0 secs

     total energy              =    -325.61543065 Ry
     estimated scf accuracy    <       0.02887809 Ry

     iteration #  2     ecut=   112.00 Ry     beta= 0.70
     Davidson diagonalization with overlap
     ethr =  1.03E-04,  avg # of iterations =  1.0

     total cpu time spent up to now is        1.1 secs

     total energy              =    -325.61657054 Ry
     estimated scf accuracy    <       0.00157225 Ry

     iteration #  3     ecut=   112.00 Ry     beta= 0.70
     Davidson diagonalization with overlap
     ethr =  5.62E-06,  avg # of iterations =  2.1

     negative rho (up, down):  4.624E-07 0.000E+00

     total cpu time spent up to now is        1.1 secs

     total energy              =    -325.61670284 Ry
     estimated scf accuracy    <       0.00003589 Ry

     iteration #  4     ecut=   112.00 Ry     beta= 0.70
     Davidson diagonalization with overlap
     ethr =  1.28E-07,  avg # of iterations =  3.4

     negative rho (up, down):  2.744E-06 0.000E+00

     total cpu time spent up to now is        1.2 secs

     total energy              =    -325.61671296 Ry
     estimated scf accuracy    <       0.00000301 Ry

     iteration #  5     ecut=   112.00 Ry     beta= 0.70
     Davidson diagonalization with overlap
     ethr =  1.07E-08,  avg # of iterations =  3.2

     negative rho (up, down):  2.564E-06 0.000E+00

     total cpu time spent up to now is        1.3 secs

     total energy              =    -325.61671347 Ry
     estimated scf accuracy    <       0.00000024 Ry

     iteration #  6     ecut=   112.00 Ry     beta= 0.70
     Davidson diagonalization with overlap
     ethr =  8.42E-10,  avg # of iterations =  3.0

     negative rho (up, down):  2.690E-06 0.000E+00

     total cpu time spent up to now is        1.3 secs

     End of self-consistent calculation

          k = 0.0000 0.0000 0.0000 (  9257 PWs)   bands (ev):

   -13.7069 -13.7069 -13.7069 -13.6479 -13.6479 -13.3301 -13.3301 -13.3301
   -13.3217 -13.3217  -2.7005   7.3360   8.0636   8.0636

          k =-0.2500 0.2500-0.2500 (  9165 PWs)   bands (ev):

   -13.7330 -13.7330 -13.6936 -13.6070 -13.6070 -13.3759 -13.3759 -13.3470
   -13.2842 -13.2842  -2.1085   3.9183   7.3005   7.3005

          k = 0.5000-0.5000 0.5000 (  9138 PWs)   bands (ev):

   -13.7437 -13.7437 -13.6796 -13.5858 -13.5858 -13.3921 -13.3921 -13.3646
   -13.2724 -13.2724  -1.0621   1.6349   6.8433   6.8433

          k = 0.0000 0.5000 0.0000 (  9197 PWs)   bands (ev):

   -13.7349 -13.7349 -13.7110 -13.5992 -13.5493 -13.4628 -13.3684 -13.3000
   -13.2888 -13.2888  -1.8915   3.8043   6.3563   6.3563

          k = 0.7500-0.2500 0.7500 (  9148 PWs)   bands (ev):

   -13.7737 -13.7531 -13.6469 -13.5483 -13.5190 -13.4908 -13.4232 -13.3745
   -13.2604 -13.2393  -0.7141   1.6732   5.0197   6.0391

          k = 0.5000 0.0000 0.5000 (  9161 PWs)   bands (ev):

   -13.7671 -13.7551 -13.6408 -13.5829 -13.5450 -13.4372 -13.4060 -13.3919
   -13.2567 -13.2496  -1.2015   2.3656   4.9302   6.7746

          k = 0.0000-1.0000 0.0000 (  9064 PWs)   bands (ev):

   -13.7589 -13.7589 -13.6226 -13.6226 -13.4827 -13.4827 -13.3972 -13.3972
   -13.2512 -13.2512   0.4180   0.4180   5.4846   5.4846

          k =-0.5000-1.0000 0.0000 (  9120 PWs)   bands (ev):

   -13.7771 -13.7771 -13.5637 -13.5637 -13.4920 -13.4920 -13.4465 -13.4465
   -13.2338 -13.2338   0.4783   0.4783   4.9003   4.9003

     highest occupied level (ev):     8.0636

!    total energy              =    -325.61671351 Ry
     estimated scf accuracy    <       0.00000006 Ry

     The total energy is the sum of the following terms:
     one-electron contribution =    -150.97551045 Ry
     hartree contribution      =      93.25055913 Ry
     xc contribution           =     -95.23233183 Ry
     ewald contribution        =    -172.65943036 Ry

     convergence has been achieved in   6 iterations

     Writing all to output data dir ./alpha-sn-scf/alphatin.save/ :
     XML data file, charge density, pseudopotentials, collected wavefunctions

     init_run     :      0.57s CPU      0.60s WALL (       1 calls)
     electrons    :      0.36s CPU      0.42s WALL (       1 calls)

     Called by init_run:
     wfcinit      :      0.01s CPU      0.02s WALL (       1 calls)
     potinit      :      0.02s CPU      0.03s WALL (       1 calls)
     hinit0       :      0.46s CPU      0.47s WALL (       1 calls)

     Called by electrons:
     c_bands      :      0.16s CPU      0.16s WALL (       7 calls)
     sum_band     :      0.08s CPU      0.09s WALL (       7 calls)
     v_of_rho     :      0.08s CPU      0.10s WALL (       7 calls)
     newd         :      0.03s CPU      0.03s WALL (       7 calls)
     mix_rho      :      0.01s CPU      0.01s WALL (       7 calls)

     Called by c_bands:
     init_us_2    :      0.00s CPU      0.01s WALL (      15 calls)
     cegterg      :      0.14s CPU      0.14s WALL (       7 calls)

     Called by *egterg:
     cdiaghg      :      0.01s CPU      0.01s WALL (      27 calls)
     h_psi        :      0.12s CPU      0.13s WALL (      29 calls)
     s_psi        :      0.00s CPU      0.00s WALL (      29 calls)
     g_psi        :      0.00s CPU      0.00s WALL (      21 calls)

     Called by h_psi:
     h_psi:calbec :      0.01s CPU      0.01s WALL (      29 calls)
     vloc_psi     :      0.11s CPU      0.12s WALL (      29 calls)
     add_vuspsi   :      0.00s CPU      0.00s WALL (      29 calls)

     General routines
     calbec       :      0.01s CPU      0.01s WALL (      36 calls)
     fft          :      0.46s CPU      0.47s WALL (      78 calls)
     ffts         :      0.00s CPU      0.01s WALL (       7 calls)
     fftw         :      0.12s CPU      0.12s WALL (     624 calls)

     Parallel routines

     PWSCF        :      1.20s CPU      1.45s WALL


   This run was terminated on:  15:55: 7   5Feb2026            

=------------------------------------------------------------------------------=
   JOB DONE.
=------------------------------------------------------------------------------=
