
     Program PWSCF v.7.3.1 starts on  5Feb2026 at 15:55:38 

     This program is part of the open-source Quantum ESPRESSO suite
     for quantum simulation of materials; please cite
         "P. Giannozzi et al., J. Phys.:Condens. Matter 21 395502 (2009);
         "P. Giannozzi et al., J. Phys.:Condens. Matter 29 465901 (2017);
         "P. Giannozzi et al., J. Chem. Phys. 152 154105 (2020);
          URL http://www.quantum-espresso.org", 
     in publications or presentations arising from this work. More details at
     http://www.quantum-espresso.org/quote

     Parallel version (MPI), running on   128 processors

     MPI processes distributed on     1 nodes
     242291 MiB available memory on the printing compute node when the environment starts

     Waiting for input...
     Reading input from standard input
     Message from routine read_cards :
     DEPRECATED: no units specified in ATOMIC_POSITIONS card
     Message from routine read_cards :
     ATOMIC_POSITIONS: units set to alat

     Current dimensions of program PWSCF are:
     Max number of different atomic species (ntypx) = 10
     Max number of k-points (npk) =  40000
     Max angular momentum in pseudopotentials (lmaxx) =  4

     K-points division:     npool     =       8
     R & G space division:  proc/nbgrp/npool/nimage =      16
     Subspace diagonalization in iterative solution of the eigenvalue problem:
     a serial algorithm will be used


     Parallelization info
     --------------------
     sticks:   dense  smooth     PW     G-vecs:    dense   smooth      PW
     Min         151     151     42                 4950     4950     722
     Max         152     152     43                 4953     4953     725
     Sum        2419    2419    673                79231    79231   11575

     Using Slab Decomposition



     bravais-lattice index     =            2
     lattice parameter (alat)  =      12.2300  a.u.
     unit-cell volume          =     457.3191 (a.u.)^3
     number of atoms/cell      =            2
     number of atomic types    =            1
     number of electrons       =        28.00
     number of Kohn-Sham states=           14
     kinetic-energy cutoff     =     118.0000  Ry
     charge density cutoff     =     472.0000  Ry
     scf convergence threshold =      1.0E-07
     mixing beta               =       0.7000
     number of iterations used =            8  plain     mixing
     Exchange-correlation=  SLA  PW   GGX  GGC
                           (   1   4   2   2   0   0   0)

     celldm(1)=  12.230000  celldm(2)=   0.000000  celldm(3)=   0.000000
     celldm(4)=   0.000000  celldm(5)=   0.000000  celldm(6)=   0.000000

     crystal axes: (cart. coord. in units of alat)
               a(1) = (  -0.500000   0.000000   0.500000 )  
               a(2) = (   0.000000   0.500000   0.500000 )  
               a(3) = (  -0.500000   0.500000   0.000000 )  

     reciprocal axes: (cart. coord. in units 2 pi/alat)
               b(1) = ( -1.000000 -1.000000  1.000000 )  
               b(2) = (  1.000000  1.000000  1.000000 )  
               b(3) = ( -1.000000  1.000000 -1.000000 )  


     PseudoPot. # 1 for Sn read from file:
     ./Sn.pw91-n-van.UPF
     MD5 check sum: a38d2a872edd1a4efd76c0a1a38f7031
     Pseudo is Ultrasoft + core correction, Zval = 14.0
     Generated by new atomic code, or converted to UPF format
     Using radial grid of  891 points,  6 beta functions with: 
                l(1) =   0
                l(2) =   0
                l(3) =   1
                l(4) =   1
                l(5) =   2
                l(6) =   2
     Q(r) pseudized with  8 coefficients,  rinner =    1.100   1.100   1.100
                                                       1.100   1.100

     atomic species   valence    mass     pseudopotential
     Sn               14.00   118.70000     Sn( 1.00)

     48 Sym. Ops., with inversion, found (24 have fractional translation)



   Cartesian axes

     site n.     atom                  positions (alat units)
         1        Sn     tau(   1) = (   0.0000000   0.0000000   0.0000000  )
         2        Sn     tau(   2) = (   0.2500000   0.2500000   0.2500000  )

     number of k points=     8
                       cart. coord. in units 2pi/alat
        k(    1) = (   0.0000000   0.0000000   0.0000000), wk =   0.0312500
        k(    2) = (  -0.2500000   0.2500000  -0.2500000), wk =   0.2500000
        k(    3) = (   0.5000000  -0.5000000   0.5000000), wk =   0.1250000
        k(    4) = (   0.0000000   0.5000000   0.0000000), wk =   0.1875000
        k(    5) = (   0.7500000  -0.2500000   0.7500000), wk =   0.7500000
        k(    6) = (   0.5000000   0.0000000   0.5000000), wk =   0.3750000
        k(    7) = (   0.0000000  -1.0000000   0.0000000), wk =   0.0937500
        k(    8) = (  -0.5000000  -1.0000000   0.0000000), wk =   0.1875000

     Dense  grid:    79231 G-vectors     FFT dimensions: (  60,  60,  60)

     Estimated max dynamical RAM per process >       7.10 MB

     Estimated total dynamical RAM >     773.55 MB

     Initial potential from superposition of free atoms

     starting charge      27.9964, renormalised to      28.0000
     Starting wfcs are   18 randomized atomic wfcs

     total cpu time spent up to now is        0.9 secs

     per-process dynamical memory:    13.0 Mb

     Self-consistent Calculation

     iteration #  1     ecut=   118.00 Ry     beta= 0.70
     Davidson diagonalization with overlap
     ethr =  1.00E-02,  avg # of iterations =  1.6

     Threshold (ethr) on eigenvalues was too large:
     Diagonalizing with lowered threshold

     Davidson diagonalization with overlap
     ethr =  8.65E-05,  avg # of iterations =  2.1

     total cpu time spent up to now is        1.0 secs

     total energy              =    -325.61710771 Ry
     estimated scf accuracy    <       0.02904679 Ry

     iteration #  2     ecut=   118.00 Ry     beta= 0.70
     Davidson diagonalization with overlap
     ethr =  1.04E-04,  avg # of iterations =  1.0

     total cpu time spent up to now is        1.1 secs

     total energy              =    -325.61838701 Ry
     estimated scf accuracy    <       0.00154303 Ry

     iteration #  3     ecut=   118.00 Ry     beta= 0.70
     Davidson diagonalization with overlap
     ethr =  5.51E-06,  avg # of iterations =  2.2

     total cpu time spent up to now is        1.1 secs

     total energy              =    -325.61852421 Ry
     estimated scf accuracy    <       0.00003558 Ry

     iteration #  4     ecut=   118.00 Ry     beta= 0.70
     Davidson diagonalization with overlap
     ethr =  1.27E-07,  avg # of iterations =  3.4

     total cpu time spent up to now is        1.2 secs

     total energy              =    -325.61853487 Ry
     estimated scf accuracy    <       0.00000290 Ry

     iteration #  5     ecut=   118.00 Ry     beta= 0.70
     Davidson diagonalization with overlap
     ethr =  1.04E-08,  avg # of iterations =  4.1

     total cpu time spent up to now is        1.2 secs

     total energy              =    -325.61853548 Ry
     estimated scf accuracy    <       0.00000022 Ry

     iteration #  6     ecut=   118.00 Ry     beta= 0.70
     Davidson diagonalization with overlap
     ethr =  7.96E-10,  avg # of iterations =  2.6

     total cpu time spent up to now is        1.3 secs

     End of self-consistent calculation

          k = 0.0000 0.0000 0.0000 (  9841 PWs)   bands (ev):

   -13.7075 -13.7075 -13.7075 -13.6483 -13.6483 -13.3307 -13.3307 -13.3307
   -13.3223 -13.3223  -2.7005   7.3362   8.0636   8.0636

          k =-0.2500 0.2500-0.2500 (  9870 PWs)   bands (ev):

   -13.7338 -13.7338 -13.6944 -13.6077 -13.6077 -13.3766 -13.3766 -13.3478
   -13.2850 -13.2850  -2.1084   3.9184   7.3006   7.3006

          k = 0.5000-0.5000 0.5000 (  9906 PWs)   bands (ev):

   -13.7447 -13.7447 -13.6805 -13.5866 -13.5866 -13.3928 -13.3928 -13.3653
   -13.2735 -13.2735  -1.0620   1.6350   6.8433   6.8433

          k = 0.0000 0.5000 0.0000 (  9893 PWs)   bands (ev):

   -13.7358 -13.7358 -13.7117 -13.5998 -13.5500 -13.4635 -13.3693 -13.3007
   -13.2897 -13.2897  -1.8914   3.8044   6.3563   6.3563

          k = 0.7500-0.2500 0.7500 (  9906 PWs)   bands (ev):

   -13.7747 -13.7541 -13.6478 -13.5490 -13.5198 -13.4916 -13.4241 -13.3752
   -13.2614 -13.2402  -0.7140   1.6733   5.0197   6.0392

          k = 0.5000 0.0000 0.5000 (  9893 PWs)   bands (ev):

   -13.7680 -13.7561 -13.6416 -13.5835 -13.5459 -13.4378 -13.4069 -13.3926
   -13.2574 -13.2506  -1.2014   2.3657   4.9302   6.7746

          k = 0.0000-1.0000 0.0000 (  9922 PWs)   bands (ev):

   -13.7601 -13.7601 -13.6235 -13.6235 -13.4837 -13.4837 -13.3980 -13.3980
   -13.2523 -13.2523   0.4181   0.4181   5.4847   5.4847

          k =-0.5000-1.0000 0.0000 (  9912 PWs)   bands (ev):

   -13.7781 -13.7781 -13.5645 -13.5645 -13.4928 -13.4928 -13.4475 -13.4475
   -13.2347 -13.2347   0.4784   0.4784   4.9003   4.9003

     highest occupied level (ev):     8.0636

!    total energy              =    -325.61853552 Ry
     estimated scf accuracy    <       0.00000007 Ry

     The total energy is the sum of the following terms:
     one-electron contribution =    -150.97756135 Ry
     hartree contribution      =      93.25087368 Ry
     xc contribution           =     -95.23241749 Ry
     ewald contribution        =    -172.65943036 Ry

     convergence has been achieved in   6 iterations

     Writing all to output data dir ./alpha-sn-scf/alphatin.save/ :
     XML data file, charge density, pseudopotentials, collected wavefunctions

     init_run     :      0.57s CPU      0.61s WALL (       1 calls)
     electrons    :      0.37s CPU      0.44s WALL (       1 calls)

     Called by init_run:
     wfcinit      :      0.01s CPU      0.02s WALL (       1 calls)
     potinit      :      0.02s CPU      0.03s WALL (       1 calls)
     hinit0       :      0.46s CPU      0.46s WALL (       1 calls)

     Called by electrons:
     c_bands      :      0.14s CPU      0.16s WALL (       7 calls)
     sum_band     :      0.09s CPU      0.09s WALL (       7 calls)
     v_of_rho     :      0.09s CPU      0.10s WALL (       7 calls)
     newd         :      0.04s CPU      0.04s WALL (       7 calls)
     mix_rho      :      0.01s CPU      0.01s WALL (       7 calls)

     Called by c_bands:
     init_us_2    :      0.00s CPU      0.01s WALL (      15 calls)
     cegterg      :      0.13s CPU      0.15s WALL (       7 calls)

     Called by *egterg:
     cdiaghg      :      0.01s CPU      0.01s WALL (      26 calls)
     h_psi        :      0.12s CPU      0.14s WALL (      28 calls)
     s_psi        :      0.00s CPU      0.00s WALL (      28 calls)
     g_psi        :      0.00s CPU      0.00s WALL (      20 calls)

     Called by h_psi:
     h_psi:calbec :      0.00s CPU      0.01s WALL (      28 calls)
     vloc_psi     :      0.11s CPU      0.12s WALL (      28 calls)
     add_vuspsi   :      0.00s CPU      0.00s WALL (      28 calls)

     General routines
     calbec       :      0.01s CPU      0.01s WALL (      35 calls)
     fft          :      0.46s CPU      0.47s WALL (      78 calls)
     ffts         :      0.01s CPU      0.01s WALL (       7 calls)
     fftw         :      0.11s CPU      0.13s WALL (     626 calls)

     Parallel routines

     PWSCF        :      1.17s CPU      1.44s WALL


   This run was terminated on:  15:55:39   5Feb2026            

=------------------------------------------------------------------------------=
   JOB DONE.
=------------------------------------------------------------------------------=
