
     Program PWSCF v.7.3.1 starts on  4Feb2026 at 11:19:17 

     This program is part of the open-source Quantum ESPRESSO suite
     for quantum simulation of materials; please cite
         "P. Giannozzi et al., J. Phys.:Condens. Matter 21 395502 (2009);
         "P. Giannozzi et al., J. Phys.:Condens. Matter 29 465901 (2017);
         "P. Giannozzi et al., J. Chem. Phys. 152 154105 (2020);
          URL http://www.quantum-espresso.org", 
     in publications or presentations arising from this work. More details at
     http://www.quantum-espresso.org/quote

     Parallel version (MPI), running on   128 processors

     MPI processes distributed on     1 nodes
     241939 MiB available memory on the printing compute node when the environment starts

     Waiting for input...
     Reading input from standard input
     Message from routine read_cards :
     DEPRECATED: no units specified in ATOMIC_POSITIONS card
     Message from routine read_cards :
     ATOMIC_POSITIONS: units set to alat

     Current dimensions of program PWSCF are:
     Max number of different atomic species (ntypx) = 10
     Max number of k-points (npk) =  40000
     Max angular momentum in pseudopotentials (lmaxx) =  4

     K-points division:     npool     =       4
     R & G space division:  proc/nbgrp/npool/nimage =      32
     Subspace diagonalization in iterative solution of the eigenvalue problem:
     a serial algorithm will be used


     Parallelization info
     --------------------
     sticks:   dense  smooth     PW     G-vecs:    dense   smooth      PW
     Min          77      77     21                 2536     2536     368
     Max          78      78     22                 2539     2539     373
     Sum        2479    2479    673                81211    81211   11791

     Using Slab Decomposition



     bravais-lattice index     =            2
     lattice parameter (alat)  =      12.2300  a.u.
     unit-cell volume          =     457.3191 (a.u.)^3
     number of atoms/cell      =            2
     number of atomic types    =            1
     number of electrons       =        28.00
     number of Kohn-Sham states=           14
     kinetic-energy cutoff     =     120.0000  Ry
     charge density cutoff     =     480.0000  Ry
     scf convergence threshold =      1.0E-07
     mixing beta               =       0.7000
     number of iterations used =            8  plain     mixing
     Exchange-correlation=  SLA  PW   GGX  GGC
                           (   1   4   2   2   0   0   0)

     celldm(1)=  12.230000  celldm(2)=   0.000000  celldm(3)=   0.000000
     celldm(4)=   0.000000  celldm(5)=   0.000000  celldm(6)=   0.000000

     crystal axes: (cart. coord. in units of alat)
               a(1) = (  -0.500000   0.000000   0.500000 )  
               a(2) = (   0.000000   0.500000   0.500000 )  
               a(3) = (  -0.500000   0.500000   0.000000 )  

     reciprocal axes: (cart. coord. in units 2 pi/alat)
               b(1) = ( -1.000000 -1.000000  1.000000 )  
               b(2) = (  1.000000  1.000000  1.000000 )  
               b(3) = ( -1.000000  1.000000 -1.000000 )  


     PseudoPot. # 1 for Sn read from file:
     ./Sn.pw91-n-van.UPF
     MD5 check sum: a38d2a872edd1a4efd76c0a1a38f7031
     Pseudo is Ultrasoft + core correction, Zval = 14.0
     Generated by new atomic code, or converted to UPF format
     Using radial grid of  891 points,  6 beta functions with: 
                l(1) =   0
                l(2) =   0
                l(3) =   1
                l(4) =   1
                l(5) =   2
                l(6) =   2
     Q(r) pseudized with  8 coefficients,  rinner =    1.100   1.100   1.100
                                                       1.100   1.100

     atomic species   valence    mass     pseudopotential
     Sn               14.00   118.70000     Sn( 1.00)

     48 Sym. Ops., with inversion, found (24 have fractional translation)



   Cartesian axes

     site n.     atom                  positions (alat units)
         1        Sn     tau(   1) = (   0.0000000   0.0000000   0.0000000  )
         2        Sn     tau(   2) = (   0.2500000   0.2500000   0.2500000  )

     number of k points=     8
                       cart. coord. in units 2pi/alat
        k(    1) = (   0.0000000   0.0000000   0.0000000), wk =   0.0312500
        k(    2) = (  -0.2500000   0.2500000  -0.2500000), wk =   0.2500000
        k(    3) = (   0.5000000  -0.5000000   0.5000000), wk =   0.1250000
        k(    4) = (   0.0000000   0.5000000   0.0000000), wk =   0.1875000
        k(    5) = (   0.7500000  -0.2500000   0.7500000), wk =   0.7500000
        k(    6) = (   0.5000000   0.0000000   0.5000000), wk =   0.3750000
        k(    7) = (   0.0000000  -1.0000000   0.0000000), wk =   0.0937500
        k(    8) = (  -0.5000000  -1.0000000   0.0000000), wk =   0.1875000

     Dense  grid:    81211 G-vectors     FFT dimensions: (  64,  64,  64)

     Estimated max dynamical RAM per process >       5.60 MB

     Estimated total dynamical RAM >     657.34 MB

     Initial potential from superposition of free atoms

     starting charge      27.9964, renormalised to      28.0000
     Starting wfcs are   18 randomized atomic wfcs

     total cpu time spent up to now is        0.8 secs

     per-process dynamical memory:    11.9 Mb

     Self-consistent Calculation

     iteration #  1     ecut=   120.00 Ry     beta= 0.70
     Davidson diagonalization with overlap
     ethr =  1.00E-02,  avg # of iterations =  1.6

     Threshold (ethr) on eigenvalues was too large:
     Diagonalizing with lowered threshold

     Davidson diagonalization with overlap
     ethr =  8.34E-05,  avg # of iterations =  2.2

     total cpu time spent up to now is        0.9 secs

     total energy              =    -325.61786418 Ry
     estimated scf accuracy    <       0.02919669 Ry

     iteration #  2     ecut=   120.00 Ry     beta= 0.70
     Davidson diagonalization with overlap
     ethr =  1.04E-04,  avg # of iterations =  1.0

     total cpu time spent up to now is        1.0 secs

     total energy              =    -325.61920437 Ry
     estimated scf accuracy    <       0.00151380 Ry

     iteration #  3     ecut=   120.00 Ry     beta= 0.70
     Davidson diagonalization with overlap
     ethr =  5.41E-06,  avg # of iterations =  2.1

     total cpu time spent up to now is        1.0 secs

     total energy              =    -325.61933933 Ry
     estimated scf accuracy    <       0.00003287 Ry

     iteration #  4     ecut=   120.00 Ry     beta= 0.70
     Davidson diagonalization with overlap
     ethr =  1.17E-07,  avg # of iterations =  3.8

     total cpu time spent up to now is        1.1 secs

     total energy              =    -325.61934967 Ry
     estimated scf accuracy    <       0.00000273 Ry

     iteration #  5     ecut=   120.00 Ry     beta= 0.70
     Davidson diagonalization with overlap
     ethr =  9.74E-09,  avg # of iterations =  3.1

     total cpu time spent up to now is        1.1 secs

     total energy              =    -325.61935009 Ry
     estimated scf accuracy    <       0.00000017 Ry

     iteration #  6     ecut=   120.00 Ry     beta= 0.70
     Davidson diagonalization with overlap
     ethr =  5.99E-10,  avg # of iterations =  2.8

     total cpu time spent up to now is        1.2 secs

     End of self-consistent calculation

          k = 0.0000 0.0000 0.0000 ( 10081 PWs)   bands (ev):

   -13.7079 -13.7079 -13.7079 -13.6493 -13.6493 -13.3314 -13.3314 -13.3314
   -13.3229 -13.3229  -2.7006   7.3361   8.0635   8.0635

          k =-0.2500 0.2500-0.2500 ( 10138 PWs)   bands (ev):

   -13.7346 -13.7346 -13.6951 -13.6084 -13.6084 -13.3773 -13.3773 -13.3484
   -13.2857 -13.2857  -2.1086   3.9182   7.3004   7.3004

          k = 0.5000-0.5000 0.5000 ( 10140 PWs)   bands (ev):

   -13.7455 -13.7455 -13.6809 -13.5870 -13.5870 -13.3936 -13.3936 -13.3663
   -13.2739 -13.2739  -1.0621   1.6349   6.8432   6.8432

          k = 0.0000 0.5000 0.0000 ( 10197 PWs)   bands (ev):

   -13.7367 -13.7367 -13.7125 -13.6006 -13.5508 -13.4643 -13.3699 -13.3015
   -13.2905 -13.2905  -1.8916   3.8043   6.3562   6.3562

          k = 0.7500-0.2500 0.7500 ( 10150 PWs)   bands (ev):

   -13.7753 -13.7548 -13.6485 -13.5497 -13.5205 -13.4923 -13.4246 -13.3759
   -13.2620 -13.2408  -0.7142   1.6732   5.0196   6.0390

          k = 0.5000 0.0000 0.5000 ( 10165 PWs)   bands (ev):

   -13.7688 -13.7567 -13.6425 -13.5843 -13.5466 -13.4386 -13.4076 -13.3934
   -13.2581 -13.2512  -1.2015   2.3656   4.9300   6.7745

          k = 0.0000-1.0000 0.0000 ( 10190 PWs)   bands (ev):

   -13.7608 -13.7608 -13.6242 -13.6242 -13.4844 -13.4844 -13.3988 -13.3988
   -13.2530 -13.2530   0.4179   0.4179   5.4845   5.4845

          k =-0.5000-1.0000 0.0000 ( 10132 PWs)   bands (ev):

   -13.7787 -13.7787 -13.5651 -13.5651 -13.4934 -13.4934 -13.4480 -13.4480
   -13.2353 -13.2353   0.4782   0.4782   4.9002   4.9002

     highest occupied level (ev):     8.0635

!    total energy              =    -325.61935012 Ry
     estimated scf accuracy    <       0.00000004 Ry

     The total energy is the sum of the following terms:
     one-electron contribution =    -150.97881880 Ry
     hartree contribution      =      93.25142637 Ry
     xc contribution           =     -95.23252732 Ry
     ewald contribution        =    -172.65943036 Ry

     convergence has been achieved in   6 iterations

     Writing all to output data dir ./alpha-sn-scf/alphatin.save/ :
     XML data file, charge density, pseudopotentials, collected wavefunctions

     init_run     :      0.44s CPU      0.48s WALL (       1 calls)
     electrons    :      0.35s CPU      0.42s WALL (       1 calls)

     Called by init_run:
     wfcinit      :      0.07s CPU      0.08s WALL (       1 calls)
     potinit      :      0.03s CPU      0.03s WALL (       1 calls)
     hinit0       :      0.29s CPU      0.31s WALL (       1 calls)

     Called by electrons:
     c_bands      :      0.20s CPU      0.22s WALL (       7 calls)
     sum_band     :      0.07s CPU      0.08s WALL (       7 calls)
     v_of_rho     :      0.06s CPU      0.06s WALL (       7 calls)
     newd         :      0.03s CPU      0.03s WALL (       7 calls)
     mix_rho      :      0.01s CPU      0.01s WALL (       7 calls)

     Called by c_bands:
     init_us_2    :      0.00s CPU      0.00s WALL (      30 calls)
     cegterg      :      0.18s CPU      0.19s WALL (      14 calls)

     Called by *egterg:
     cdiaghg      :      0.01s CPU      0.02s WALL (      52 calls)
     h_psi        :      0.21s CPU      0.22s WALL (      56 calls)
     s_psi        :      0.00s CPU      0.00s WALL (      56 calls)
     g_psi        :      0.00s CPU      0.00s WALL (      40 calls)

     Called by h_psi:
     h_psi:calbec :      0.01s CPU      0.01s WALL (      56 calls)
     vloc_psi     :      0.20s CPU      0.21s WALL (      56 calls)
     add_vuspsi   :      0.00s CPU      0.00s WALL (      56 calls)

     General routines
     calbec       :      0.01s CPU      0.01s WALL (      70 calls)
     fft          :      0.28s CPU      0.29s WALL (      78 calls)
     ffts         :      0.00s CPU      0.00s WALL (       7 calls)
     fftw         :      0.21s CPU      0.22s WALL (    1246 calls)

     Parallel routines

     PWSCF        :      1.07s CPU      1.35s WALL


   This run was terminated on:  11:19:19   4Feb2026            

=------------------------------------------------------------------------------=
   JOB DONE.
=------------------------------------------------------------------------------=
