
     Program PWSCF v.7.3.1 starts on  5Feb2026 at 15:56:24 

     This program is part of the open-source Quantum ESPRESSO suite
     for quantum simulation of materials; please cite
         "P. Giannozzi et al., J. Phys.:Condens. Matter 21 395502 (2009);
         "P. Giannozzi et al., J. Phys.:Condens. Matter 29 465901 (2017);
         "P. Giannozzi et al., J. Chem. Phys. 152 154105 (2020);
          URL http://www.quantum-espresso.org", 
     in publications or presentations arising from this work. More details at
     http://www.quantum-espresso.org/quote

     Parallel version (MPI), running on   128 processors

     MPI processes distributed on     1 nodes
     242287 MiB available memory on the printing compute node when the environment starts

     Waiting for input...
     Reading input from standard input
     Message from routine read_cards :
     DEPRECATED: no units specified in ATOMIC_POSITIONS card
     Message from routine read_cards :
     ATOMIC_POSITIONS: units set to alat

     Current dimensions of program PWSCF are:
     Max number of different atomic species (ntypx) = 10
     Max number of k-points (npk) =  40000
     Max angular momentum in pseudopotentials (lmaxx) =  4

     K-points division:     npool     =       4
     R & G space division:  proc/nbgrp/npool/nimage =      32
     Subspace diagonalization in iterative solution of the eigenvalue problem:
     a serial algorithm will be used


     Parallelization info
     --------------------
     sticks:   dense  smooth     PW     G-vecs:    dense   smooth      PW
     Min          82      82     22                 2792     2792     402
     Max          83      83     23                 2795     2795     406
     Sum        2647    2647    733                89385    89385   12939

     Using Slab Decomposition



     bravais-lattice index     =            2
     lattice parameter (alat)  =      12.2300  a.u.
     unit-cell volume          =     457.3191 (a.u.)^3
     number of atoms/cell      =            2
     number of atomic types    =            1
     number of electrons       =        28.00
     number of Kohn-Sham states=           14
     kinetic-energy cutoff     =     128.0000  Ry
     charge density cutoff     =     512.0000  Ry
     scf convergence threshold =      1.0E-07
     mixing beta               =       0.7000
     number of iterations used =            8  plain     mixing
     Exchange-correlation=  SLA  PW   GGX  GGC
                           (   1   4   2   2   0   0   0)

     celldm(1)=  12.230000  celldm(2)=   0.000000  celldm(3)=   0.000000
     celldm(4)=   0.000000  celldm(5)=   0.000000  celldm(6)=   0.000000

     crystal axes: (cart. coord. in units of alat)
               a(1) = (  -0.500000   0.000000   0.500000 )  
               a(2) = (   0.000000   0.500000   0.500000 )  
               a(3) = (  -0.500000   0.500000   0.000000 )  

     reciprocal axes: (cart. coord. in units 2 pi/alat)
               b(1) = ( -1.000000 -1.000000  1.000000 )  
               b(2) = (  1.000000  1.000000  1.000000 )  
               b(3) = ( -1.000000  1.000000 -1.000000 )  


     PseudoPot. # 1 for Sn read from file:
     ./Sn.pw91-n-van.UPF
     MD5 check sum: a38d2a872edd1a4efd76c0a1a38f7031
     Pseudo is Ultrasoft + core correction, Zval = 14.0
     Generated by new atomic code, or converted to UPF format
     Using radial grid of  891 points,  6 beta functions with: 
                l(1) =   0
                l(2) =   0
                l(3) =   1
                l(4) =   1
                l(5) =   2
                l(6) =   2
     Q(r) pseudized with  8 coefficients,  rinner =    1.100   1.100   1.100
                                                       1.100   1.100

     atomic species   valence    mass     pseudopotential
     Sn               14.00   118.70000     Sn( 1.00)

     48 Sym. Ops., with inversion, found (24 have fractional translation)



   Cartesian axes

     site n.     atom                  positions (alat units)
         1        Sn     tau(   1) = (   0.0000000   0.0000000   0.0000000  )
         2        Sn     tau(   2) = (   0.2500000   0.2500000   0.2500000  )

     number of k points=     8
                       cart. coord. in units 2pi/alat
        k(    1) = (   0.0000000   0.0000000   0.0000000), wk =   0.0312500
        k(    2) = (  -0.2500000   0.2500000  -0.2500000), wk =   0.2500000
        k(    3) = (   0.5000000  -0.5000000   0.5000000), wk =   0.1250000
        k(    4) = (   0.0000000   0.5000000   0.0000000), wk =   0.1875000
        k(    5) = (   0.7500000  -0.2500000   0.7500000), wk =   0.7500000
        k(    6) = (   0.5000000   0.0000000   0.5000000), wk =   0.3750000
        k(    7) = (   0.0000000  -1.0000000   0.0000000), wk =   0.0937500
        k(    8) = (  -0.5000000  -1.0000000   0.0000000), wk =   0.1875000

     Dense  grid:    89385 G-vectors     FFT dimensions: (  64,  64,  64)

     Estimated max dynamical RAM per process >       5.99 MB

     Estimated total dynamical RAM >     701.13 MB

     Initial potential from superposition of free atoms

     starting charge      27.9964, renormalised to      28.0000
     Starting wfcs are   18 randomized atomic wfcs

     total cpu time spent up to now is        0.8 secs

     per-process dynamical memory:    12.0 Mb

     Self-consistent Calculation

     iteration #  1     ecut=   128.00 Ry     beta= 0.70
     Davidson diagonalization with overlap
     ethr =  1.00E-02,  avg # of iterations =  1.9

     Threshold (ethr) on eigenvalues was too large:
     Diagonalizing with lowered threshold

     Davidson diagonalization with overlap
     ethr =  8.68E-05,  avg # of iterations =  2.0

     total cpu time spent up to now is        0.9 secs

     total energy              =    -325.62120467 Ry
     estimated scf accuracy    <       0.02917876 Ry

     iteration #  2     ecut=   128.00 Ry     beta= 0.70
     Davidson diagonalization with overlap
     ethr =  1.04E-04,  avg # of iterations =  1.0

     total cpu time spent up to now is        1.0 secs

     total energy              =    -325.62267868 Ry
     estimated scf accuracy    <       0.00151851 Ry

     iteration #  3     ecut=   128.00 Ry     beta= 0.70
     Davidson diagonalization with overlap
     ethr =  5.42E-06,  avg # of iterations =  2.4

     total cpu time spent up to now is        1.0 secs

     total energy              =    -325.62282062 Ry
     estimated scf accuracy    <       0.00003527 Ry

     iteration #  4     ecut=   128.00 Ry     beta= 0.70
     Davidson diagonalization with overlap
     ethr =  1.26E-07,  avg # of iterations =  3.4

     total cpu time spent up to now is        1.1 secs

     total energy              =    -325.62283071 Ry
     estimated scf accuracy    <       0.00000283 Ry

     iteration #  5     ecut=   128.00 Ry     beta= 0.70
     Davidson diagonalization with overlap
     ethr =  1.01E-08,  avg # of iterations =  3.5

     total cpu time spent up to now is        1.1 secs

     total energy              =    -325.62283117 Ry
     estimated scf accuracy    <       0.00000020 Ry

     iteration #  6     ecut=   128.00 Ry     beta= 0.70
     Davidson diagonalization with overlap
     ethr =  7.02E-10,  avg # of iterations =  3.0

     total cpu time spent up to now is        1.2 secs

     End of self-consistent calculation

          k = 0.0000 0.0000 0.0000 ( 11191 PWs)   bands (ev):

   -13.7098 -13.7098 -13.7098 -13.6506 -13.6506 -13.3332 -13.3332 -13.3332
   -13.3244 -13.3244  -2.7004   7.3364   8.0635   8.0635

          k =-0.2500 0.2500-0.2500 ( 11212 PWs)   bands (ev):

   -13.7362 -13.7362 -13.6968 -13.6099 -13.6099 -13.3788 -13.3788 -13.3499
   -13.2872 -13.2872  -2.1084   3.9184   7.3005   7.3005

          k = 0.5000-0.5000 0.5000 ( 11228 PWs)   bands (ev):

   -13.7470 -13.7470 -13.6827 -13.5888 -13.5888 -13.3951 -13.3951 -13.3675
   -13.2754 -13.2754  -1.0619   1.6350   6.8433   6.8433

          k = 0.0000 0.5000 0.0000 ( 11234 PWs)   bands (ev):

   -13.7382 -13.7382 -13.7141 -13.6019 -13.5523 -13.4659 -13.3713 -13.3030
   -13.2918 -13.2918  -1.8914   3.8044   6.3563   6.3563

          k = 0.7500-0.2500 0.7500 ( 11175 PWs)   bands (ev):

   -13.7768 -13.7563 -13.6500 -13.5511 -13.5220 -13.4937 -13.4261 -13.3774
   -13.2633 -13.2422  -0.7140   1.6733   5.0196   6.0391

          k = 0.5000 0.0000 0.5000 ( 11184 PWs)   bands (ev):

   -13.7702 -13.7583 -13.6440 -13.5857 -13.5480 -13.4400 -13.4089 -13.3948
   -13.2596 -13.2525  -1.2014   2.3657   4.9301   6.7746

          k = 0.0000-1.0000 0.0000 ( 11094 PWs)   bands (ev):

   -13.7620 -13.7620 -13.6256 -13.6256 -13.4854 -13.4854 -13.4001 -13.4001
   -13.2539 -13.2539   0.4181   0.4181   5.4846   5.4846

          k =-0.5000-1.0000 0.0000 ( 11132 PWs)   bands (ev):

   -13.7802 -13.7802 -13.5666 -13.5666 -13.4948 -13.4948 -13.4493 -13.4493
   -13.2366 -13.2366   0.4784   0.4784   4.9002   4.9002

     highest occupied level (ev):     8.0635

!    total energy              =    -325.62283120 Ry
     estimated scf accuracy    <       0.00000005 Ry

     The total energy is the sum of the following terms:
     one-electron contribution =    -150.98312351 Ry
     hartree contribution      =      93.25251505 Ry
     xc contribution           =     -95.23279239 Ry
     ewald contribution        =    -172.65943036 Ry

     convergence has been achieved in   6 iterations

     Writing all to output data dir ./alpha-sn-scf/alphatin.save/ :
     XML data file, charge density, pseudopotentials, collected wavefunctions

     init_run     :      0.44s CPU      0.51s WALL (       1 calls)
     electrons    :      0.36s CPU      0.44s WALL (       1 calls)

     Called by init_run:
     wfcinit      :      0.08s CPU      0.08s WALL (       1 calls)
     potinit      :      0.00s CPU      0.03s WALL (       1 calls)
     hinit0       :      0.31s CPU      0.32s WALL (       1 calls)

     Called by electrons:
     c_bands      :      0.20s CPU      0.22s WALL (       7 calls)
     sum_band     :      0.07s CPU      0.09s WALL (       7 calls)
     v_of_rho     :      0.04s CPU      0.06s WALL (       7 calls)
     newd         :      0.03s CPU      0.03s WALL (       7 calls)
     mix_rho      :      0.01s CPU      0.01s WALL (       7 calls)

     Called by c_bands:
     init_us_2    :      0.00s CPU      0.01s WALL (      30 calls)
     cegterg      :      0.19s CPU      0.20s WALL (      14 calls)

     Called by *egterg:
     cdiaghg      :      0.02s CPU      0.02s WALL (      54 calls)
     h_psi        :      0.22s CPU      0.23s WALL (      58 calls)
     s_psi        :      0.00s CPU      0.00s WALL (      58 calls)
     g_psi        :      0.00s CPU      0.00s WALL (      42 calls)

     Called by h_psi:
     h_psi:calbec :      0.01s CPU      0.01s WALL (      58 calls)
     vloc_psi     :      0.20s CPU      0.21s WALL (      58 calls)
     add_vuspsi   :      0.00s CPU      0.00s WALL (      58 calls)

     General routines
     calbec       :      0.01s CPU      0.01s WALL (      72 calls)
     fft          :      0.28s CPU      0.29s WALL (      78 calls)
     ffts         :      0.00s CPU      0.00s WALL (       7 calls)
     fftw         :      0.21s CPU      0.22s WALL (    1248 calls)

     Parallel routines

     PWSCF        :      1.06s CPU      1.55s WALL


   This run was terminated on:  15:56:26   5Feb2026            

=------------------------------------------------------------------------------=
   JOB DONE.
=------------------------------------------------------------------------------=
