
     Program PWSCF v.7.3.1 starts on  5Feb2026 at 15:56:58 

     This program is part of the open-source Quantum ESPRESSO suite
     for quantum simulation of materials; please cite
         "P. Giannozzi et al., J. Phys.:Condens. Matter 21 395502 (2009);
         "P. Giannozzi et al., J. Phys.:Condens. Matter 29 465901 (2017);
         "P. Giannozzi et al., J. Chem. Phys. 152 154105 (2020);
          URL http://www.quantum-espresso.org", 
     in publications or presentations arising from this work. More details at
     http://www.quantum-espresso.org/quote

     Parallel version (MPI), running on   128 processors

     MPI processes distributed on     1 nodes
     242338 MiB available memory on the printing compute node when the environment starts

     Waiting for input...
     Reading input from standard input
     Message from routine read_cards :
     DEPRECATED: no units specified in ATOMIC_POSITIONS card
     Message from routine read_cards :
     ATOMIC_POSITIONS: units set to alat

     Current dimensions of program PWSCF are:
     Max number of different atomic species (ntypx) = 10
     Max number of k-points (npk) =  40000
     Max angular momentum in pseudopotentials (lmaxx) =  4

     K-points division:     npool     =       4
     R & G space division:  proc/nbgrp/npool/nimage =      32
     Subspace diagonalization in iterative solution of the eigenvalue problem:
     a serial algorithm will be used


     Parallelization info
     --------------------
     sticks:   dense  smooth     PW     G-vecs:    dense   smooth      PW
     Min          85      85     23                 2990     2990     429
     Max          86      86     24                 2995     2995     434
     Sum        2749    2749    757                95801    95801   13803

     Using Slab Decomposition



     bravais-lattice index     =            2
     lattice parameter (alat)  =      12.2300  a.u.
     unit-cell volume          =     457.3191 (a.u.)^3
     number of atoms/cell      =            2
     number of atomic types    =            1
     number of electrons       =        28.00
     number of Kohn-Sham states=           14
     kinetic-energy cutoff     =     134.0000  Ry
     charge density cutoff     =     536.0000  Ry
     scf convergence threshold =      1.0E-07
     mixing beta               =       0.7000
     number of iterations used =            8  plain     mixing
     Exchange-correlation=  SLA  PW   GGX  GGC
                           (   1   4   2   2   0   0   0)

     celldm(1)=  12.230000  celldm(2)=   0.000000  celldm(3)=   0.000000
     celldm(4)=   0.000000  celldm(5)=   0.000000  celldm(6)=   0.000000

     crystal axes: (cart. coord. in units of alat)
               a(1) = (  -0.500000   0.000000   0.500000 )  
               a(2) = (   0.000000   0.500000   0.500000 )  
               a(3) = (  -0.500000   0.500000   0.000000 )  

     reciprocal axes: (cart. coord. in units 2 pi/alat)
               b(1) = ( -1.000000 -1.000000  1.000000 )  
               b(2) = (  1.000000  1.000000  1.000000 )  
               b(3) = ( -1.000000  1.000000 -1.000000 )  


     PseudoPot. # 1 for Sn read from file:
     ./Sn.pw91-n-van.UPF
     MD5 check sum: a38d2a872edd1a4efd76c0a1a38f7031
     Pseudo is Ultrasoft + core correction, Zval = 14.0
     Generated by new atomic code, or converted to UPF format
     Using radial grid of  891 points,  6 beta functions with: 
                l(1) =   0
                l(2) =   0
                l(3) =   1
                l(4) =   1
                l(5) =   2
                l(6) =   2
     Q(r) pseudized with  8 coefficients,  rinner =    1.100   1.100   1.100
                                                       1.100   1.100

     atomic species   valence    mass     pseudopotential
     Sn               14.00   118.70000     Sn( 1.00)

     48 Sym. Ops., with inversion, found (24 have fractional translation)



   Cartesian axes

     site n.     atom                  positions (alat units)
         1        Sn     tau(   1) = (   0.0000000   0.0000000   0.0000000  )
         2        Sn     tau(   2) = (   0.2500000   0.2500000   0.2500000  )

     number of k points=     8
                       cart. coord. in units 2pi/alat
        k(    1) = (   0.0000000   0.0000000   0.0000000), wk =   0.0312500
        k(    2) = (  -0.2500000   0.2500000  -0.2500000), wk =   0.2500000
        k(    3) = (   0.5000000  -0.5000000   0.5000000), wk =   0.1250000
        k(    4) = (   0.0000000   0.5000000   0.0000000), wk =   0.1875000
        k(    5) = (   0.7500000  -0.2500000   0.7500000), wk =   0.7500000
        k(    6) = (   0.5000000   0.0000000   0.5000000), wk =   0.3750000
        k(    7) = (   0.0000000  -1.0000000   0.0000000), wk =   0.0937500
        k(    8) = (  -0.5000000  -1.0000000   0.0000000), wk =   0.1875000

     Dense  grid:    95801 G-vectors     FFT dimensions: (  64,  64,  64)

     Estimated max dynamical RAM per process >       6.29 MB

     Estimated total dynamical RAM >     735.02 MB

     Initial potential from superposition of free atoms

     starting charge      27.9964, renormalised to      28.0000
     Starting wfcs are   18 randomized atomic wfcs

     total cpu time spent up to now is        0.8 secs

     per-process dynamical memory:    12.1 Mb

     Self-consistent Calculation

     iteration #  1     ecut=   134.00 Ry     beta= 0.70
     Davidson diagonalization with overlap
     ethr =  1.00E-02,  avg # of iterations =  1.9

     Threshold (ethr) on eigenvalues was too large:
     Diagonalizing with lowered threshold

     Davidson diagonalization with overlap
     ethr =  8.65E-05,  avg # of iterations =  2.1

     total cpu time spent up to now is        1.0 secs

     total energy              =    -325.62315870 Ry
     estimated scf accuracy    <       0.02934296 Ry

     iteration #  2     ecut=   134.00 Ry     beta= 0.70
     Davidson diagonalization with overlap
     ethr =  1.05E-04,  avg # of iterations =  1.0

     total cpu time spent up to now is        1.0 secs

     total energy              =    -325.62483873 Ry
     estimated scf accuracy    <       0.00149356 Ry

     iteration #  3     ecut=   134.00 Ry     beta= 0.70
     Davidson diagonalization with overlap
     ethr =  5.33E-06,  avg # of iterations =  2.5

     total cpu time spent up to now is        1.1 secs

     total energy              =    -325.62498555 Ry
     estimated scf accuracy    <       0.00003430 Ry

     iteration #  4     ecut=   134.00 Ry     beta= 0.70
     Davidson diagonalization with overlap
     ethr =  1.22E-07,  avg # of iterations =  3.5

     total cpu time spent up to now is        1.1 secs

     total energy              =    -325.62499517 Ry
     estimated scf accuracy    <       0.00000268 Ry

     iteration #  5     ecut=   134.00 Ry     beta= 0.70
     Davidson diagonalization with overlap
     ethr =  9.56E-09,  avg # of iterations =  3.4

     total cpu time spent up to now is        1.2 secs

     total energy              =    -325.62499560 Ry
     estimated scf accuracy    <       0.00000016 Ry

     iteration #  6     ecut=   134.00 Ry     beta= 0.70
     Davidson diagonalization with overlap
     ethr =  5.84E-10,  avg # of iterations =  2.5

     total cpu time spent up to now is        1.2 secs

     End of self-consistent calculation

          k = 0.0000 0.0000 0.0000 ( 12039 PWs)   bands (ev):

   -13.7110 -13.7110 -13.7110 -13.6517 -13.6517 -13.3342 -13.3342 -13.3342
   -13.3258 -13.3258  -2.7005   7.3364   8.0634   8.0634

          k =-0.2500 0.2500-0.2500 ( 11960 PWs)   bands (ev):

   -13.7371 -13.7371 -13.6976 -13.6108 -13.6108 -13.3799 -13.3799 -13.3510
   -13.2883 -13.2883  -2.1085   3.9183   7.3003   7.3003

          k = 0.5000-0.5000 0.5000 ( 11966 PWs)   bands (ev):

   -13.7478 -13.7478 -13.6837 -13.5896 -13.5896 -13.3960 -13.3960 -13.3689
   -13.2766 -13.2766  -1.0620   1.6349   6.8432   6.8432

          k = 0.0000 0.5000 0.0000 ( 11967 PWs)   bands (ev):

   -13.7390 -13.7390 -13.7149 -13.6030 -13.5532 -13.4667 -13.3725 -13.3039
   -13.2929 -13.2929  -1.8915   3.8044   6.3562   6.3562

          k = 0.7500-0.2500 0.7500 ( 12002 PWs)   bands (ev):

   -13.7779 -13.7573 -13.6510 -13.5522 -13.5231 -13.4949 -13.4272 -13.3786
   -13.2646 -13.2435  -0.7141   1.6733   5.0195   6.0390

          k = 0.5000 0.0000 0.5000 ( 11980 PWs)   bands (ev):

   -13.7713 -13.7593 -13.6449 -13.5867 -13.5490 -13.4411 -13.4101 -13.3959
   -13.2608 -13.2538  -1.2014   2.3657   4.9299   6.7745

          k = 0.0000-1.0000 0.0000 ( 11966 PWs)   bands (ev):

   -13.7632 -13.7632 -13.6265 -13.6265 -13.4868 -13.4868 -13.4013 -13.4013
   -13.2555 -13.2555   0.4180   0.4180   5.4845   5.4845

          k =-0.5000-1.0000 0.0000 ( 12036 PWs)   bands (ev):

   -13.7814 -13.7814 -13.5678 -13.5678 -13.4961 -13.4961 -13.4507 -13.4507
   -13.2380 -13.2380   0.4783   0.4783   4.9001   4.9001

     highest occupied level (ev):     8.0634

!    total energy              =    -325.62499564 Ry
     estimated scf accuracy    <       0.00000003 Ry

     The total energy is the sum of the following terms:
     one-electron contribution =    -150.98614593 Ry
     hartree contribution      =      93.25363059 Ry
     xc contribution           =     -95.23304994 Ry
     ewald contribution        =    -172.65943036 Ry

     convergence has been achieved in   6 iterations

     Writing all to output data dir ./alpha-sn-scf/alphatin.save/ :
     XML data file, charge density, pseudopotentials, collected wavefunctions

     init_run     :      0.41s CPU      0.50s WALL (       1 calls)
     electrons    :      0.37s CPU      0.63s WALL (       1 calls)

     Called by init_run:
     wfcinit      :      0.07s CPU      0.08s WALL (       1 calls)
     potinit      :      0.02s CPU      0.03s WALL (       1 calls)
     hinit0       :      0.29s CPU      0.30s WALL (       1 calls)

     Called by electrons:
     c_bands      :      0.20s CPU      0.22s WALL (       7 calls)
     sum_band     :      0.08s CPU      0.09s WALL (       7 calls)
     v_of_rho     :      0.05s CPU      0.06s WALL (       7 calls)
     newd         :      0.02s CPU      0.03s WALL (       7 calls)
     mix_rho      :      0.01s CPU      0.01s WALL (       7 calls)

     Called by c_bands:
     init_us_2    :      0.01s CPU      0.01s WALL (      30 calls)
     cegterg      :      0.19s CPU      0.20s WALL (      14 calls)

     Called by *egterg:
     cdiaghg      :      0.01s CPU      0.02s WALL (      52 calls)
     h_psi        :      0.21s CPU      0.23s WALL (      56 calls)
     s_psi        :      0.00s CPU      0.00s WALL (      56 calls)
     g_psi        :      0.00s CPU      0.00s WALL (      40 calls)

     Called by h_psi:
     h_psi:calbec :      0.01s CPU      0.01s WALL (      56 calls)
     vloc_psi     :      0.19s CPU      0.21s WALL (      56 calls)
     add_vuspsi   :      0.00s CPU      0.00s WALL (      56 calls)

     General routines
     calbec       :      0.01s CPU      0.01s WALL (      70 calls)
     fft          :      0.28s CPU      0.29s WALL (      78 calls)
     ffts         :      0.00s CPU      0.00s WALL (       7 calls)
     fftw         :      0.20s CPU      0.22s WALL (    1244 calls)

     Parallel routines

     PWSCF        :      1.08s CPU      4.43s WALL


   This run was terminated on:  15:57: 2   5Feb2026            

=------------------------------------------------------------------------------=
   JOB DONE.
=------------------------------------------------------------------------------=
