
     Program PWSCF v.7.3.1 starts on  5Feb2026 at 15:57:10 

     This program is part of the open-source Quantum ESPRESSO suite
     for quantum simulation of materials; please cite
         "P. Giannozzi et al., J. Phys.:Condens. Matter 21 395502 (2009);
         "P. Giannozzi et al., J. Phys.:Condens. Matter 29 465901 (2017);
         "P. Giannozzi et al., J. Chem. Phys. 152 154105 (2020);
          URL http://www.quantum-espresso.org", 
     in publications or presentations arising from this work. More details at
     http://www.quantum-espresso.org/quote

     Parallel version (MPI), running on   128 processors

     MPI processes distributed on     1 nodes
     242387 MiB available memory on the printing compute node when the environment starts

     Waiting for input...
     Reading input from standard input
     Message from routine read_cards :
     DEPRECATED: no units specified in ATOMIC_POSITIONS card
     Message from routine read_cards :
     ATOMIC_POSITIONS: units set to alat

     Current dimensions of program PWSCF are:
     Max number of different atomic species (ntypx) = 10
     Max number of k-points (npk) =  40000
     Max angular momentum in pseudopotentials (lmaxx) =  4

     K-points division:     npool     =       4
     R & G space division:  proc/nbgrp/npool/nimage =      32
     Subspace diagonalization in iterative solution of the eigenvalue problem:
     a serial algorithm will be used


     Parallelization info
     --------------------
     sticks:   dense  smooth     PW     G-vecs:    dense   smooth      PW
     Min          87      87     24                 3063     3063     441
     Max          88      88     25                 3067     3067     445
     Sum        2803    2803    769                98069    98069   14163

     Using Slab Decomposition



     bravais-lattice index     =            2
     lattice parameter (alat)  =      12.2300  a.u.
     unit-cell volume          =     457.3191 (a.u.)^3
     number of atoms/cell      =            2
     number of atomic types    =            1
     number of electrons       =        28.00
     number of Kohn-Sham states=           14
     kinetic-energy cutoff     =     136.0000  Ry
     charge density cutoff     =     544.0000  Ry
     scf convergence threshold =      1.0E-07
     mixing beta               =       0.7000
     number of iterations used =            8  plain     mixing
     Exchange-correlation=  SLA  PW   GGX  GGC
                           (   1   4   2   2   0   0   0)

     celldm(1)=  12.230000  celldm(2)=   0.000000  celldm(3)=   0.000000
     celldm(4)=   0.000000  celldm(5)=   0.000000  celldm(6)=   0.000000

     crystal axes: (cart. coord. in units of alat)
               a(1) = (  -0.500000   0.000000   0.500000 )  
               a(2) = (   0.000000   0.500000   0.500000 )  
               a(3) = (  -0.500000   0.500000   0.000000 )  

     reciprocal axes: (cart. coord. in units 2 pi/alat)
               b(1) = ( -1.000000 -1.000000  1.000000 )  
               b(2) = (  1.000000  1.000000  1.000000 )  
               b(3) = ( -1.000000  1.000000 -1.000000 )  


     PseudoPot. # 1 for Sn read from file:
     ./Sn.pw91-n-van.UPF
     MD5 check sum: a38d2a872edd1a4efd76c0a1a38f7031
     Pseudo is Ultrasoft + core correction, Zval = 14.0
     Generated by new atomic code, or converted to UPF format
     Using radial grid of  891 points,  6 beta functions with: 
                l(1) =   0
                l(2) =   0
                l(3) =   1
                l(4) =   1
                l(5) =   2
                l(6) =   2
     Q(r) pseudized with  8 coefficients,  rinner =    1.100   1.100   1.100
                                                       1.100   1.100

     atomic species   valence    mass     pseudopotential
     Sn               14.00   118.70000     Sn( 1.00)

     48 Sym. Ops., with inversion, found (24 have fractional translation)



   Cartesian axes

     site n.     atom                  positions (alat units)
         1        Sn     tau(   1) = (   0.0000000   0.0000000   0.0000000  )
         2        Sn     tau(   2) = (   0.2500000   0.2500000   0.2500000  )

     number of k points=     8
                       cart. coord. in units 2pi/alat
        k(    1) = (   0.0000000   0.0000000   0.0000000), wk =   0.0312500
        k(    2) = (  -0.2500000   0.2500000  -0.2500000), wk =   0.2500000
        k(    3) = (   0.5000000  -0.5000000   0.5000000), wk =   0.1250000
        k(    4) = (   0.0000000   0.5000000   0.0000000), wk =   0.1875000
        k(    5) = (   0.7500000  -0.2500000   0.7500000), wk =   0.7500000
        k(    6) = (   0.5000000   0.0000000   0.5000000), wk =   0.3750000
        k(    7) = (   0.0000000  -1.0000000   0.0000000), wk =   0.0937500
        k(    8) = (  -0.5000000  -1.0000000   0.0000000), wk =   0.1875000

     Dense  grid:    98069 G-vectors     FFT dimensions: (  72,  72,  72)

     Estimated max dynamical RAM per process >       6.90 MB

     Estimated total dynamical RAM >     811.43 MB

     Initial potential from superposition of free atoms

     starting charge      27.9964, renormalised to      28.0000
     Starting wfcs are   18 randomized atomic wfcs

     total cpu time spent up to now is        1.1 secs

     per-process dynamical memory:    12.7 Mb

     Self-consistent Calculation

     iteration #  1     ecut=   136.00 Ry     beta= 0.70
     Davidson diagonalization with overlap
     ethr =  1.00E-02,  avg # of iterations =  1.9

     Threshold (ethr) on eigenvalues was too large:
     Diagonalizing with lowered threshold

     Davidson diagonalization with overlap
     ethr =  8.80E-05,  avg # of iterations =  2.1

     total cpu time spent up to now is        1.2 secs

     total energy              =    -325.62352223 Ry
     estimated scf accuracy    <       0.02947303 Ry

     iteration #  2     ecut=   136.00 Ry     beta= 0.70
     Davidson diagonalization with overlap
     ethr =  1.05E-04,  avg # of iterations =  1.1

     total cpu time spent up to now is        1.3 secs

     total energy              =    -325.62534802 Ry
     estimated scf accuracy    <       0.00147652 Ry

     iteration #  3     ecut=   136.00 Ry     beta= 0.70
     Davidson diagonalization with overlap
     ethr =  5.27E-06,  avg # of iterations =  2.1

     total cpu time spent up to now is        1.4 secs

     total energy              =    -325.62549881 Ry
     estimated scf accuracy    <       0.00003193 Ry

     iteration #  4     ecut=   136.00 Ry     beta= 0.70
     Davidson diagonalization with overlap
     ethr =  1.14E-07,  avg # of iterations =  3.8

     total cpu time spent up to now is        1.5 secs

     total energy              =    -325.62550941 Ry
     estimated scf accuracy    <       0.00000249 Ry

     iteration #  5     ecut=   136.00 Ry     beta= 0.70
     Davidson diagonalization with overlap
     ethr =  8.89E-09,  avg # of iterations =  3.6

     total cpu time spent up to now is        1.6 secs

     total energy              =    -325.62550987 Ry
     estimated scf accuracy    <       0.00000013 Ry

     iteration #  6     ecut=   136.00 Ry     beta= 0.70
     Davidson diagonalization with overlap
     ethr =  4.57E-10,  avg # of iterations =  2.9

     total cpu time spent up to now is        1.6 secs

     End of self-consistent calculation

          k = 0.0000 0.0000 0.0000 ( 12195 PWs)   bands (ev):

   -13.7113 -13.7113 -13.7113 -13.6519 -13.6519 -13.3344 -13.3344 -13.3344
   -13.3260 -13.3260  -2.7006   7.3364   8.0633   8.0633

          k =-0.2500 0.2500-0.2500 ( 12245 PWs)   bands (ev):

   -13.7375 -13.7375 -13.6981 -13.6113 -13.6113 -13.3803 -13.3803 -13.3514
   -13.2888 -13.2888  -2.1085   3.9182   7.3002   7.3002

          k = 0.5000-0.5000 0.5000 ( 12260 PWs)   bands (ev):

   -13.7483 -13.7483 -13.6841 -13.5900 -13.5900 -13.3965 -13.3965 -13.3692
   -13.2770 -13.2770  -1.0621   1.6348   6.8431   6.8431

          k = 0.0000 0.5000 0.0000 ( 12247 PWs)   bands (ev):

   -13.7394 -13.7394 -13.7152 -13.6034 -13.5536 -13.4672 -13.3728 -13.3045
   -13.2934 -13.2934  -1.8916   3.8043   6.3561   6.3561

          k = 0.7500-0.2500 0.7500 ( 12251 PWs)   bands (ev):

   -13.7782 -13.7577 -13.6513 -13.5526 -13.5234 -13.4952 -13.4276 -13.3790
   -13.2650 -13.2440  -0.7142   1.6732   5.0194   6.0389

          k = 0.5000 0.0000 0.5000 ( 12252 PWs)   bands (ev):

   -13.7716 -13.7596 -13.6453 -13.5871 -13.5494 -13.4415 -13.4106 -13.3963
   -13.2612 -13.2542  -1.2015   2.3656   4.9299   6.7744

          k = 0.0000-1.0000 0.0000 ( 12278 PWs)   bands (ev):

   -13.7637 -13.7637 -13.6270 -13.6270 -13.4873 -13.4873 -13.4018 -13.4018
   -13.2560 -13.2560   0.4179   0.4179   5.4844   5.4844

          k =-0.5000-1.0000 0.0000 ( 12316 PWs)   bands (ev):

   -13.7817 -13.7817 -13.5682 -13.5682 -13.4965 -13.4965 -13.4511 -13.4511
   -13.2385 -13.2385   0.4782   0.4782   4.9000   4.9000

     highest occupied level (ev):     8.0633

!    total energy              =    -325.62550990 Ry
     estimated scf accuracy    <       0.00000002 Ry

     The total energy is the sum of the following terms:
     one-electron contribution =    -150.98704835 Ry
     hartree contribution      =      93.25412713 Ry
     xc contribution           =     -95.23315831 Ry
     ewald contribution        =    -172.65943036 Ry

     convergence has been achieved in   6 iterations

     Writing all to output data dir ./alpha-sn-scf/alphatin.save/ :
     XML data file, charge density, pseudopotentials, collected wavefunctions

     init_run     :      0.69s CPU      0.76s WALL (       1 calls)
     electrons    :      0.51s CPU      0.61s WALL (       1 calls)

     Called by init_run:
     wfcinit      :      0.03s CPU      0.04s WALL (       1 calls)
     potinit      :      0.02s CPU      0.03s WALL (       1 calls)
     hinit0       :      0.59s CPU      0.61s WALL (       1 calls)

     Called by electrons:
     c_bands      :      0.29s CPU      0.33s WALL (       7 calls)
     sum_band     :      0.10s CPU      0.12s WALL (       7 calls)
     v_of_rho     :      0.08s CPU      0.10s WALL (       7 calls)
     newd         :      0.03s CPU      0.04s WALL (       7 calls)
     mix_rho      :      0.01s CPU      0.01s WALL (       7 calls)

     Called by c_bands:
     init_us_2    :      0.01s CPU      0.01s WALL (      30 calls)
     cegterg      :      0.27s CPU      0.30s WALL (      14 calls)

     Called by *egterg:
     cdiaghg      :      0.02s CPU      0.02s WALL (      55 calls)
     h_psi        :      0.26s CPU      0.28s WALL (      59 calls)
     s_psi        :      0.00s CPU      0.00s WALL (      59 calls)
     g_psi        :      0.00s CPU      0.00s WALL (      43 calls)

     Called by h_psi:
     h_psi:calbec :      0.01s CPU      0.01s WALL (      59 calls)
     vloc_psi     :      0.25s CPU      0.27s WALL (      59 calls)
     add_vuspsi   :      0.00s CPU      0.00s WALL (      59 calls)

     General routines
     calbec       :      0.01s CPU      0.01s WALL (      73 calls)
     fft          :      0.58s CPU      0.59s WALL (      78 calls)
     ffts         :      0.00s CPU      0.00s WALL (       7 calls)
     fftw         :      0.26s CPU      0.28s WALL (    1246 calls)

     Parallel routines

     PWSCF        :      1.42s CPU      1.80s WALL


   This run was terminated on:  15:57:12   5Feb2026            

=------------------------------------------------------------------------------=
   JOB DONE.
=------------------------------------------------------------------------------=
