
     Program PWSCF v.7.3.1 starts on  5Feb2026 at 15:58:24 

     This program is part of the open-source Quantum ESPRESSO suite
     for quantum simulation of materials; please cite
         "P. Giannozzi et al., J. Phys.:Condens. Matter 21 395502 (2009);
         "P. Giannozzi et al., J. Phys.:Condens. Matter 29 465901 (2017);
         "P. Giannozzi et al., J. Chem. Phys. 152 154105 (2020);
          URL http://www.quantum-espresso.org", 
     in publications or presentations arising from this work. More details at
     http://www.quantum-espresso.org/quote

     Parallel version (MPI), running on   128 processors

     MPI processes distributed on     1 nodes
     242451 MiB available memory on the printing compute node when the environment starts

     Waiting for input...
     Reading input from standard input
     Message from routine read_cards :
     DEPRECATED: no units specified in ATOMIC_POSITIONS card
     Message from routine read_cards :
     ATOMIC_POSITIONS: units set to alat

     Current dimensions of program PWSCF are:
     Max number of different atomic species (ntypx) = 10
     Max number of k-points (npk) =  40000
     Max angular momentum in pseudopotentials (lmaxx) =  4

     K-points division:     npool     =       4
     R & G space division:  proc/nbgrp/npool/nimage =      32
     Subspace diagonalization in iterative solution of the eigenvalue problem:
     a serial algorithm will be used


     Parallelization info
     --------------------
     sticks:   dense  smooth     PW     G-vecs:    dense   smooth      PW
     Min          95      95     26                 3467     3467     501
     Max          96      96     27                 3470     3470     503
     Sum        3049    3049    847               110995   110995   16049

     Using Slab Decomposition



     bravais-lattice index     =            2
     lattice parameter (alat)  =      12.2300  a.u.
     unit-cell volume          =     457.3191 (a.u.)^3
     number of atoms/cell      =            2
     number of atomic types    =            1
     number of electrons       =        28.00
     number of Kohn-Sham states=           14
     kinetic-energy cutoff     =     148.0000  Ry
     charge density cutoff     =     592.0000  Ry
     scf convergence threshold =      1.0E-07
     mixing beta               =       0.7000
     number of iterations used =            8  plain     mixing
     Exchange-correlation=  SLA  PW   GGX  GGC
                           (   1   4   2   2   0   0   0)

     celldm(1)=  12.230000  celldm(2)=   0.000000  celldm(3)=   0.000000
     celldm(4)=   0.000000  celldm(5)=   0.000000  celldm(6)=   0.000000

     crystal axes: (cart. coord. in units of alat)
               a(1) = (  -0.500000   0.000000   0.500000 )  
               a(2) = (   0.000000   0.500000   0.500000 )  
               a(3) = (  -0.500000   0.500000   0.000000 )  

     reciprocal axes: (cart. coord. in units 2 pi/alat)
               b(1) = ( -1.000000 -1.000000  1.000000 )  
               b(2) = (  1.000000  1.000000  1.000000 )  
               b(3) = ( -1.000000  1.000000 -1.000000 )  


     PseudoPot. # 1 for Sn read from file:
     ./Sn.pw91-n-van.UPF
     MD5 check sum: a38d2a872edd1a4efd76c0a1a38f7031
     Pseudo is Ultrasoft + core correction, Zval = 14.0
     Generated by new atomic code, or converted to UPF format
     Using radial grid of  891 points,  6 beta functions with: 
                l(1) =   0
                l(2) =   0
                l(3) =   1
                l(4) =   1
                l(5) =   2
                l(6) =   2
     Q(r) pseudized with  8 coefficients,  rinner =    1.100   1.100   1.100
                                                       1.100   1.100

     atomic species   valence    mass     pseudopotential
     Sn               14.00   118.70000     Sn( 1.00)

     48 Sym. Ops., with inversion, found (24 have fractional translation)



   Cartesian axes

     site n.     atom                  positions (alat units)
         1        Sn     tau(   1) = (   0.0000000   0.0000000   0.0000000  )
         2        Sn     tau(   2) = (   0.2500000   0.2500000   0.2500000  )

     number of k points=     8
                       cart. coord. in units 2pi/alat
        k(    1) = (   0.0000000   0.0000000   0.0000000), wk =   0.0312500
        k(    2) = (  -0.2500000   0.2500000  -0.2500000), wk =   0.2500000
        k(    3) = (   0.5000000  -0.5000000   0.5000000), wk =   0.1250000
        k(    4) = (   0.0000000   0.5000000   0.0000000), wk =   0.1875000
        k(    5) = (   0.7500000  -0.2500000   0.7500000), wk =   0.7500000
        k(    6) = (   0.5000000   0.0000000   0.5000000), wk =   0.3750000
        k(    7) = (   0.0000000  -1.0000000   0.0000000), wk =   0.0937500
        k(    8) = (  -0.5000000  -1.0000000   0.0000000), wk =   0.1875000

     Dense  grid:   110995 G-vectors     FFT dimensions: (  72,  72,  72)

     Estimated max dynamical RAM per process >       7.51 MB

     Estimated total dynamical RAM >     879.45 MB

     Initial potential from superposition of free atoms

     starting charge      27.9964, renormalised to      28.0000
     Starting wfcs are   18 randomized atomic wfcs

     total cpu time spent up to now is        1.1 secs

     per-process dynamical memory:    12.9 Mb

     Self-consistent Calculation

     iteration #  1     ecut=   148.00 Ry     beta= 0.70
     Davidson diagonalization with overlap
     ethr =  1.00E-02,  avg # of iterations =  2.0

     Threshold (ethr) on eigenvalues was too large:
     Diagonalizing with lowered threshold

     Davidson diagonalization with overlap
     ethr =  9.05E-05,  avg # of iterations =  2.0

     total cpu time spent up to now is        1.3 secs

     total energy              =    -325.62415322 Ry
     estimated scf accuracy    <       0.02965308 Ry

     iteration #  2     ecut=   148.00 Ry     beta= 0.70
     Davidson diagonalization with overlap
     ethr =  1.06E-04,  avg # of iterations =  1.1

     total cpu time spent up to now is        1.3 secs

     total energy              =    -325.62654006 Ry
     estimated scf accuracy    <       0.00148125 Ry

     iteration #  3     ecut=   148.00 Ry     beta= 0.70
     Davidson diagonalization with overlap
     ethr =  5.29E-06,  avg # of iterations =  2.4

     total cpu time spent up to now is        1.4 secs

     total energy              =    -325.62671507 Ry
     estimated scf accuracy    <       0.00003658 Ry

     iteration #  4     ecut=   148.00 Ry     beta= 0.70
     Davidson diagonalization with overlap
     ethr =  1.31E-07,  avg # of iterations =  3.1

     total cpu time spent up to now is        1.5 secs

     total energy              =    -325.62672657 Ry
     estimated scf accuracy    <       0.00000274 Ry

     iteration #  5     ecut=   148.00 Ry     beta= 0.70
     Davidson diagonalization with overlap
     ethr =  9.78E-09,  avg # of iterations =  4.0

     total cpu time spent up to now is        1.6 secs

     total energy              =    -325.62672704 Ry
     estimated scf accuracy    <       0.00000020 Ry

     iteration #  6     ecut=   148.00 Ry     beta= 0.70
     Davidson diagonalization with overlap
     ethr =  7.02E-10,  avg # of iterations =  2.2

     total cpu time spent up to now is        1.7 secs

     End of self-consistent calculation

          k = 0.0000 0.0000 0.0000 ( 13851 PWs)   bands (ev):

   -13.7119 -13.7119 -13.7119 -13.6528 -13.6528 -13.3353 -13.3353 -13.3353
   -13.3267 -13.3267  -2.7007   7.3363   8.0631   8.0631

          k =-0.2500 0.2500-0.2500 ( 13905 PWs)   bands (ev):

   -13.7382 -13.7382 -13.6987 -13.6120 -13.6120 -13.3810 -13.3810 -13.3522
   -13.2895 -13.2895  -2.1086   3.9181   7.3001   7.3001

          k = 0.5000-0.5000 0.5000 ( 13870 PWs)   bands (ev):

   -13.7489 -13.7489 -13.6848 -13.5908 -13.5908 -13.3973 -13.3973 -13.3699
   -13.2777 -13.2777  -1.0622   1.6348   6.8429   6.8429

          k = 0.0000 0.5000 0.0000 ( 13944 PWs)   bands (ev):

   -13.7401 -13.7401 -13.7160 -13.6041 -13.5544 -13.4679 -13.3736 -13.3052
   -13.2941 -13.2941  -1.8916   3.8042   6.3560   6.3560

          k = 0.7500-0.2500 0.7500 ( 13909 PWs)   bands (ev):

   -13.7788 -13.7583 -13.6521 -13.5533 -13.5242 -13.4959 -13.4284 -13.3797
   -13.2657 -13.2446  -0.7143   1.6731   5.0194   6.0388

          k = 0.5000 0.0000 0.5000 ( 13873 PWs)   bands (ev):

   -13.7723 -13.7603 -13.6460 -13.5879 -13.5502 -13.4423 -13.4112 -13.3971
   -13.2619 -13.2549  -1.2016   2.3655   4.9299   6.7742

          k = 0.0000-1.0000 0.0000 ( 13888 PWs)   bands (ev):

   -13.7642 -13.7642 -13.6277 -13.6277 -13.4879 -13.4879 -13.4025 -13.4025
   -13.2566 -13.2566   0.4178   0.4178   5.4844   5.4844

          k =-0.5000-1.0000 0.0000 ( 13868 PWs)   bands (ev):

   -13.7823 -13.7823 -13.5688 -13.5688 -13.4971 -13.4971 -13.4517 -13.4517
   -13.2391 -13.2391   0.4781   0.4781   4.9000   4.9000

     highest occupied level (ev):     8.0631

!    total energy              =    -325.62672707 Ry
     estimated scf accuracy    <          2.9E-09 Ry

     The total energy is the sum of the following terms:
     one-electron contribution =    -150.98942276 Ry
     hartree contribution      =      93.25563803 Ry
     xc contribution           =     -95.23351198 Ry
     ewald contribution        =    -172.65943036 Ry

     convergence has been achieved in   6 iterations

     Writing all to output data dir ./alpha-sn-scf/alphatin.save/ :
     XML data file, charge density, pseudopotentials, collected wavefunctions

     init_run     :      0.70s CPU      0.77s WALL (       1 calls)
     electrons    :      0.56s CPU      0.63s WALL (       1 calls)

     Called by init_run:
     wfcinit      :      0.03s CPU      0.04s WALL (       1 calls)
     potinit      :      0.02s CPU      0.04s WALL (       1 calls)
     hinit0       :      0.59s CPU      0.60s WALL (       1 calls)

     Called by electrons:
     c_bands      :      0.31s CPU      0.33s WALL (       7 calls)
     sum_band     :      0.11s CPU      0.13s WALL (       7 calls)
     v_of_rho     :      0.09s CPU      0.10s WALL (       7 calls)
     newd         :      0.03s CPU      0.04s WALL (       7 calls)
     mix_rho      :      0.01s CPU      0.01s WALL (       7 calls)

     Called by c_bands:
     init_us_2    :      0.01s CPU      0.01s WALL (      30 calls)
     cegterg      :      0.30s CPU      0.30s WALL (      14 calls)

     Called by *egterg:
     cdiaghg      :      0.02s CPU      0.02s WALL (      52 calls)
     h_psi        :      0.27s CPU      0.28s WALL (      56 calls)
     s_psi        :      0.00s CPU      0.00s WALL (      56 calls)
     g_psi        :      0.00s CPU      0.00s WALL (      40 calls)

     Called by h_psi:
     h_psi:calbec :      0.01s CPU      0.01s WALL (      56 calls)
     vloc_psi     :      0.25s CPU      0.26s WALL (      56 calls)
     add_vuspsi   :      0.01s CPU      0.01s WALL (      56 calls)

     General routines
     calbec       :      0.01s CPU      0.01s WALL (      70 calls)
     fft          :      0.59s CPU      0.59s WALL (      78 calls)
     ffts         :      0.00s CPU      0.00s WALL (       7 calls)
     fftw         :      0.27s CPU      0.28s WALL (    1218 calls)

     Parallel routines

     PWSCF        :      1.53s CPU      1.87s WALL


   This run was terminated on:  15:58:26   5Feb2026            

=------------------------------------------------------------------------------=
   JOB DONE.
=------------------------------------------------------------------------------=
