
     Program PWSCF v.7.3.1 starts on  4Feb2026 at 11:19:49 

     This program is part of the open-source Quantum ESPRESSO suite
     for quantum simulation of materials; please cite
         "P. Giannozzi et al., J. Phys.:Condens. Matter 21 395502 (2009);
         "P. Giannozzi et al., J. Phys.:Condens. Matter 29 465901 (2017);
         "P. Giannozzi et al., J. Chem. Phys. 152 154105 (2020);
          URL http://www.quantum-espresso.org", 
     in publications or presentations arising from this work. More details at
     http://www.quantum-espresso.org/quote

     Parallel version (MPI), running on   128 processors

     MPI processes distributed on     1 nodes
     241875 MiB available memory on the printing compute node when the environment starts

     Waiting for input...
     Reading input from standard input
     Message from routine read_cards :
     DEPRECATED: no units specified in ATOMIC_POSITIONS card
     Message from routine read_cards :
     ATOMIC_POSITIONS: units set to alat

     Current dimensions of program PWSCF are:
     Max number of different atomic species (ntypx) = 10
     Max number of k-points (npk) =  40000
     Max angular momentum in pseudopotentials (lmaxx) =  4

     K-points division:     npool     =       4
     R & G space division:  proc/nbgrp/npool/nimage =      32
     Subspace diagonalization in iterative solution of the eigenvalue problem:
     a serial algorithm will be used


     Parallelization info
     --------------------
     sticks:   dense  smooth     PW     G-vecs:    dense   smooth      PW
     Min          96      96     26                 3543     3543     509
     Max          97      97     27                 3547     3547     514
     Sum        3091    3091    847               113443   113443   16361

     Using Slab Decomposition



     bravais-lattice index     =            2
     lattice parameter (alat)  =      12.2300  a.u.
     unit-cell volume          =     457.3191 (a.u.)^3
     number of atoms/cell      =            2
     number of atomic types    =            1
     number of electrons       =        28.00
     number of Kohn-Sham states=           14
     kinetic-energy cutoff     =     150.0000  Ry
     charge density cutoff     =     600.0000  Ry
     scf convergence threshold =      1.0E-07
     mixing beta               =       0.7000
     number of iterations used =            8  plain     mixing
     Exchange-correlation=  SLA  PW   GGX  GGC
                           (   1   4   2   2   0   0   0)

     celldm(1)=  12.230000  celldm(2)=   0.000000  celldm(3)=   0.000000
     celldm(4)=   0.000000  celldm(5)=   0.000000  celldm(6)=   0.000000

     crystal axes: (cart. coord. in units of alat)
               a(1) = (  -0.500000   0.000000   0.500000 )  
               a(2) = (   0.000000   0.500000   0.500000 )  
               a(3) = (  -0.500000   0.500000   0.000000 )  

     reciprocal axes: (cart. coord. in units 2 pi/alat)
               b(1) = ( -1.000000 -1.000000  1.000000 )  
               b(2) = (  1.000000  1.000000  1.000000 )  
               b(3) = ( -1.000000  1.000000 -1.000000 )  


     PseudoPot. # 1 for Sn read from file:
     ./Sn.pw91-n-van.UPF
     MD5 check sum: a38d2a872edd1a4efd76c0a1a38f7031
     Pseudo is Ultrasoft + core correction, Zval = 14.0
     Generated by new atomic code, or converted to UPF format
     Using radial grid of  891 points,  6 beta functions with: 
                l(1) =   0
                l(2) =   0
                l(3) =   1
                l(4) =   1
                l(5) =   2
                l(6) =   2
     Q(r) pseudized with  8 coefficients,  rinner =    1.100   1.100   1.100
                                                       1.100   1.100

     atomic species   valence    mass     pseudopotential
     Sn               14.00   118.70000     Sn( 1.00)

     48 Sym. Ops., with inversion, found (24 have fractional translation)



   Cartesian axes

     site n.     atom                  positions (alat units)
         1        Sn     tau(   1) = (   0.0000000   0.0000000   0.0000000  )
         2        Sn     tau(   2) = (   0.2500000   0.2500000   0.2500000  )

     number of k points=     8
                       cart. coord. in units 2pi/alat
        k(    1) = (   0.0000000   0.0000000   0.0000000), wk =   0.0312500
        k(    2) = (  -0.2500000   0.2500000  -0.2500000), wk =   0.2500000
        k(    3) = (   0.5000000  -0.5000000   0.5000000), wk =   0.1250000
        k(    4) = (   0.0000000   0.5000000   0.0000000), wk =   0.1875000
        k(    5) = (   0.7500000  -0.2500000   0.7500000), wk =   0.7500000
        k(    6) = (   0.5000000   0.0000000   0.5000000), wk =   0.3750000
        k(    7) = (   0.0000000  -1.0000000   0.0000000), wk =   0.0937500
        k(    8) = (  -0.5000000  -1.0000000   0.0000000), wk =   0.1875000

     Dense  grid:   113443 G-vectors     FFT dimensions: (  72,  72,  72)

     Estimated max dynamical RAM per process >       7.62 MB

     Estimated total dynamical RAM >     891.78 MB

     Initial potential from superposition of free atoms

     starting charge      27.9964, renormalised to      28.0000
     Starting wfcs are   18 randomized atomic wfcs

     total cpu time spent up to now is        1.1 secs

     per-process dynamical memory:    13.0 Mb

     Self-consistent Calculation

     iteration #  1     ecut=   150.00 Ry     beta= 0.70
     Davidson diagonalization with overlap
     ethr =  1.00E-02,  avg # of iterations =  2.0

     Threshold (ethr) on eigenvalues was too large:
     Diagonalizing with lowered threshold

     Davidson diagonalization with overlap
     ethr =  9.11E-05,  avg # of iterations =  2.0

     total cpu time spent up to now is        1.3 secs

     total energy              =    -325.62399385 Ry
     estimated scf accuracy    <       0.02973145 Ry

     iteration #  2     ecut=   150.00 Ry     beta= 0.70
     Davidson diagonalization with overlap
     ethr =  1.06E-04,  avg # of iterations =  1.1

     total cpu time spent up to now is        1.3 secs

     total energy              =    -325.62654491 Ry
     estimated scf accuracy    <       0.00148935 Ry

     iteration #  3     ecut=   150.00 Ry     beta= 0.70
     Davidson diagonalization with overlap
     ethr =  5.32E-06,  avg # of iterations =  2.4

     total cpu time spent up to now is        1.4 secs

     total energy              =    -325.62673140 Ry
     estimated scf accuracy    <       0.00003922 Ry

     iteration #  4     ecut=   150.00 Ry     beta= 0.70
     Davidson diagonalization with overlap
     ethr =  1.40E-07,  avg # of iterations =  3.9

     total cpu time spent up to now is        1.5 secs

     total energy              =    -325.62674428 Ry
     estimated scf accuracy    <       0.00000293 Ry

     iteration #  5     ecut=   150.00 Ry     beta= 0.70
     Davidson diagonalization with overlap
     ethr =  1.04E-08,  avg # of iterations =  3.2

     total cpu time spent up to now is        1.6 secs

     total energy              =    -325.62674462 Ry
     estimated scf accuracy    <       0.00000026 Ry

     iteration #  6     ecut=   150.00 Ry     beta= 0.70
     Davidson diagonalization with overlap
     ethr =  9.33E-10,  avg # of iterations =  2.5

     total cpu time spent up to now is        1.7 secs

     End of self-consistent calculation

          k = 0.0000 0.0000 0.0000 ( 14211 PWs)   bands (ev):

   -13.7121 -13.7121 -13.7121 -13.6531 -13.6531 -13.3355 -13.3355 -13.3355
   -13.3270 -13.3270  -2.7007   7.3362   8.0630   8.0630

          k =-0.2500 0.2500-0.2500 ( 14167 PWs)   bands (ev):

   -13.7384 -13.7384 -13.6989 -13.6123 -13.6123 -13.3813 -13.3813 -13.3524
   -13.2897 -13.2897  -2.1087   3.9180   7.3000   7.3000

          k = 0.5000-0.5000 0.5000 ( 14194 PWs)   bands (ev):

   -13.7491 -13.7491 -13.6850 -13.5911 -13.5911 -13.3975 -13.3975 -13.3701
   -13.2779 -13.2779  -1.0623   1.6347   6.8428   6.8428

          k = 0.0000 0.5000 0.0000 ( 14232 PWs)   bands (ev):

   -13.7403 -13.7403 -13.7162 -13.6044 -13.5546 -13.4682 -13.3738 -13.3055
   -13.2943 -13.2943  -1.8917   3.8040   6.3559   6.3559

          k = 0.7500-0.2500 0.7500 ( 14191 PWs)   bands (ev):

   -13.7791 -13.7585 -13.6523 -13.5536 -13.5244 -13.4962 -13.4286 -13.3799
   -13.2659 -13.2448  -0.7144   1.6730   5.0194   6.0387

          k = 0.5000 0.0000 0.5000 ( 14163 PWs)   bands (ev):

   -13.7725 -13.7605 -13.6462 -13.5881 -13.5504 -13.4425 -13.4114 -13.3973
   -13.2621 -13.2551  -1.2017   2.3653   4.9299   6.7741

          k = 0.0000-1.0000 0.0000 ( 14152 PWs)   bands (ev):

   -13.7644 -13.7644 -13.6280 -13.6280 -13.4882 -13.4882 -13.4028 -13.4028
   -13.2568 -13.2568   0.4177   0.4177   5.4843   5.4843

          k =-0.5000-1.0000 0.0000 ( 14208 PWs)   bands (ev):

   -13.7825 -13.7825 -13.5690 -13.5690 -13.4974 -13.4974 -13.4520 -13.4520
   -13.2393 -13.2393   0.4780   0.4780   4.9000   4.9000

     highest occupied level (ev):     8.0630

!    total energy              =    -325.62674466 Ry
     estimated scf accuracy    <          7.9E-10 Ry

     The total energy is the sum of the following terms:
     one-electron contribution =    -150.98972436 Ry
     hartree contribution      =      93.25599062 Ry
     xc contribution           =     -95.23358056 Ry
     ewald contribution        =    -172.65943036 Ry

     convergence has been achieved in   6 iterations

     Writing all to output data dir ./alpha-sn-scf/alphatin.save/ :
     XML data file, charge density, pseudopotentials, collected wavefunctions

     init_run     :      0.68s CPU      0.77s WALL (       1 calls)
     electrons    :      0.54s CPU      0.62s WALL (       1 calls)

     Called by init_run:
     wfcinit      :      0.03s CPU      0.04s WALL (       1 calls)
     potinit      :      0.01s CPU      0.03s WALL (       1 calls)
     hinit0       :      0.58s CPU      0.60s WALL (       1 calls)

     Called by electrons:
     c_bands      :      0.30s CPU      0.32s WALL (       7 calls)
     sum_band     :      0.11s CPU      0.13s WALL (       7 calls)
     v_of_rho     :      0.08s CPU      0.09s WALL (       7 calls)
     newd         :      0.04s CPU      0.05s WALL (       7 calls)
     mix_rho      :      0.01s CPU      0.01s WALL (       7 calls)

     Called by c_bands:
     init_us_2    :      0.01s CPU      0.01s WALL (      30 calls)
     cegterg      :      0.28s CPU      0.30s WALL (      14 calls)

     Called by *egterg:
     cdiaghg      :      0.02s CPU      0.02s WALL (      56 calls)
     h_psi        :      0.26s CPU      0.28s WALL (      60 calls)
     s_psi        :      0.00s CPU      0.00s WALL (      60 calls)
     g_psi        :      0.00s CPU      0.00s WALL (      44 calls)

     Called by h_psi:
     h_psi:calbec :      0.01s CPU      0.01s WALL (      60 calls)
     vloc_psi     :      0.24s CPU      0.26s WALL (      60 calls)
     add_vuspsi   :      0.00s CPU      0.01s WALL (      60 calls)

     General routines
     calbec       :      0.01s CPU      0.01s WALL (      74 calls)
     fft          :      0.58s CPU      0.59s WALL (      78 calls)
     ffts         :      0.00s CPU      0.00s WALL (       7 calls)
     fftw         :      0.27s CPU      0.28s WALL (    1230 calls)

     Parallel routines

     PWSCF        :      1.52s CPU      1.85s WALL


   This run was terminated on:  11:19:51   4Feb2026            

=------------------------------------------------------------------------------=
   JOB DONE.
=------------------------------------------------------------------------------=
