
     Program PWSCF v.7.3.1 starts on  5Feb2026 at 15:58:48 

     This program is part of the open-source Quantum ESPRESSO suite
     for quantum simulation of materials; please cite
         "P. Giannozzi et al., J. Phys.:Condens. Matter 21 395502 (2009);
         "P. Giannozzi et al., J. Phys.:Condens. Matter 29 465901 (2017);
         "P. Giannozzi et al., J. Chem. Phys. 152 154105 (2020);
          URL http://www.quantum-espresso.org", 
     in publications or presentations arising from this work. More details at
     http://www.quantum-espresso.org/quote

     Parallel version (MPI), running on   128 processors

     MPI processes distributed on     1 nodes
     242348 MiB available memory on the printing compute node when the environment starts

     Waiting for input...
     Reading input from standard input
     Message from routine read_cards :
     DEPRECATED: no units specified in ATOMIC_POSITIONS card
     Message from routine read_cards :
     ATOMIC_POSITIONS: units set to alat

     Current dimensions of program PWSCF are:
     Max number of different atomic species (ntypx) = 10
     Max number of k-points (npk) =  40000
     Max angular momentum in pseudopotentials (lmaxx) =  4

     K-points division:     npool     =       4
     R & G space division:  proc/nbgrp/npool/nimage =      32
     Subspace diagonalization in iterative solution of the eigenvalue problem:
     a serial algorithm will be used


     Parallelization info
     --------------------
     sticks:   dense  smooth     PW     G-vecs:    dense   smooth      PW
     Min          97      97     26                 3611     3611     514
     Max          98      98     27                 3615     3615     519
     Sum        3115    3115    847               115603   115603   16529

     Using Slab Decomposition



     bravais-lattice index     =            2
     lattice parameter (alat)  =      12.2300  a.u.
     unit-cell volume          =     457.3191 (a.u.)^3
     number of atoms/cell      =            2
     number of atomic types    =            1
     number of electrons       =        28.00
     number of Kohn-Sham states=           14
     kinetic-energy cutoff     =     152.0000  Ry
     charge density cutoff     =     608.0000  Ry
     scf convergence threshold =      1.0E-07
     mixing beta               =       0.7000
     number of iterations used =            8  plain     mixing
     Exchange-correlation=  SLA  PW   GGX  GGC
                           (   1   4   2   2   0   0   0)

     celldm(1)=  12.230000  celldm(2)=   0.000000  celldm(3)=   0.000000
     celldm(4)=   0.000000  celldm(5)=   0.000000  celldm(6)=   0.000000

     crystal axes: (cart. coord. in units of alat)
               a(1) = (  -0.500000   0.000000   0.500000 )  
               a(2) = (   0.000000   0.500000   0.500000 )  
               a(3) = (  -0.500000   0.500000   0.000000 )  

     reciprocal axes: (cart. coord. in units 2 pi/alat)
               b(1) = ( -1.000000 -1.000000  1.000000 )  
               b(2) = (  1.000000  1.000000  1.000000 )  
               b(3) = ( -1.000000  1.000000 -1.000000 )  


     PseudoPot. # 1 for Sn read from file:
     ./Sn.pw91-n-van.UPF
     MD5 check sum: a38d2a872edd1a4efd76c0a1a38f7031
     Pseudo is Ultrasoft + core correction, Zval = 14.0
     Generated by new atomic code, or converted to UPF format
     Using radial grid of  891 points,  6 beta functions with: 
                l(1) =   0
                l(2) =   0
                l(3) =   1
                l(4) =   1
                l(5) =   2
                l(6) =   2
     Q(r) pseudized with  8 coefficients,  rinner =    1.100   1.100   1.100
                                                       1.100   1.100

     atomic species   valence    mass     pseudopotential
     Sn               14.00   118.70000     Sn( 1.00)

     48 Sym. Ops., with inversion, found (24 have fractional translation)



   Cartesian axes

     site n.     atom                  positions (alat units)
         1        Sn     tau(   1) = (   0.0000000   0.0000000   0.0000000  )
         2        Sn     tau(   2) = (   0.2500000   0.2500000   0.2500000  )

     number of k points=     8
                       cart. coord. in units 2pi/alat
        k(    1) = (   0.0000000   0.0000000   0.0000000), wk =   0.0312500
        k(    2) = (  -0.2500000   0.2500000  -0.2500000), wk =   0.2500000
        k(    3) = (   0.5000000  -0.5000000   0.5000000), wk =   0.1250000
        k(    4) = (   0.0000000   0.5000000   0.0000000), wk =   0.1875000
        k(    5) = (   0.7500000  -0.2500000   0.7500000), wk =   0.7500000
        k(    6) = (   0.5000000   0.0000000   0.5000000), wk =   0.3750000
        k(    7) = (   0.0000000  -1.0000000   0.0000000), wk =   0.0937500
        k(    8) = (  -0.5000000  -1.0000000   0.0000000), wk =   0.1875000

     Dense  grid:   115603 G-vectors     FFT dimensions: (  72,  72,  72)

     Estimated max dynamical RAM per process >       7.72 MB

     Estimated total dynamical RAM >     903.16 MB

     Initial potential from superposition of free atoms

     starting charge      27.9964, renormalised to      28.0000
     Starting wfcs are   18 randomized atomic wfcs

     total cpu time spent up to now is        1.1 secs

     per-process dynamical memory:    13.1 Mb

     Self-consistent Calculation

     iteration #  1     ecut=   152.00 Ry     beta= 0.70
     Davidson diagonalization with overlap
     ethr =  1.00E-02,  avg # of iterations =  2.0

     Threshold (ethr) on eigenvalues was too large:
     Diagonalizing with lowered threshold

     Davidson diagonalization with overlap
     ethr =  9.16E-05,  avg # of iterations =  2.1

     total cpu time spent up to now is        1.2 secs

     total energy              =    -325.62379238 Ry
     estimated scf accuracy    <       0.02984287 Ry

     iteration #  2     ecut=   152.00 Ry     beta= 0.70
     Davidson diagonalization with overlap
     ethr =  1.07E-04,  avg # of iterations =  1.1

     total cpu time spent up to now is        1.3 secs

     total energy              =    -325.62653510 Ry
     estimated scf accuracy    <       0.00149021 Ry

     iteration #  3     ecut=   152.00 Ry     beta= 0.70
     Davidson diagonalization with overlap
     ethr =  5.32E-06,  avg # of iterations =  2.4

     total cpu time spent up to now is        1.4 secs

     total energy              =    -325.62673752 Ry
     estimated scf accuracy    <       0.00004232 Ry

     iteration #  4     ecut=   152.00 Ry     beta= 0.70
     Davidson diagonalization with overlap
     ethr =  1.51E-07,  avg # of iterations =  3.6

     total cpu time spent up to now is        1.5 secs

     total energy              =    -325.62675146 Ry
     estimated scf accuracy    <       0.00000309 Ry

     iteration #  5     ecut=   152.00 Ry     beta= 0.70
     Davidson diagonalization with overlap
     ethr =  1.10E-08,  avg # of iterations =  2.9

     total cpu time spent up to now is        1.6 secs

     total energy              =    -325.62675185 Ry
     estimated scf accuracy    <       0.00000029 Ry

     iteration #  6     ecut=   152.00 Ry     beta= 0.70
     Davidson diagonalization with overlap
     ethr =  1.03E-09,  avg # of iterations =  2.8

     total cpu time spent up to now is        1.7 secs

     End of self-consistent calculation

          k = 0.0000 0.0000 0.0000 ( 14331 PWs)   bands (ev):

   -13.7121 -13.7121 -13.7121 -13.6532 -13.6532 -13.3355 -13.3355 -13.3355
   -13.3271 -13.3271  -2.7007   7.3361   8.0630   8.0630

          k =-0.2500 0.2500-0.2500 ( 14470 PWs)   bands (ev):

   -13.7384 -13.7384 -13.6989 -13.6124 -13.6124 -13.3814 -13.3814 -13.3524
   -13.2897 -13.2897  -2.1087   3.9180   7.3000   7.3000

          k = 0.5000-0.5000 0.5000 ( 14464 PWs)   bands (ev):

   -13.7491 -13.7491 -13.6850 -13.5911 -13.5911 -13.3976 -13.3976 -13.3701
   -13.2779 -13.2779  -1.0623   1.6347   6.8428   6.8428

          k = 0.0000 0.5000 0.0000 ( 14416 PWs)   bands (ev):

   -13.7403 -13.7403 -13.7162 -13.6045 -13.5547 -13.4682 -13.3739 -13.3055
   -13.2943 -13.2943  -1.8917   3.8040   6.3559   6.3559

          k = 0.7500-0.2500 0.7500 ( 14485 PWs)   bands (ev):

   -13.7791 -13.7585 -13.6523 -13.5537 -13.5245 -13.4962 -13.4287 -13.3800
   -13.2659 -13.2449  -0.7144   1.6730   5.0194   6.0387

          k = 0.5000 0.0000 0.5000 ( 14475 PWs)   bands (ev):

   -13.7725 -13.7605 -13.6462 -13.5882 -13.5505 -13.4426 -13.4114 -13.3974
   -13.2622 -13.2552  -1.2017   2.3653   4.9299   6.7741

          k = 0.0000-1.0000 0.0000 ( 14472 PWs)   bands (ev):

   -13.7645 -13.7645 -13.6280 -13.6280 -13.4883 -13.4883 -13.4028 -13.4028
   -13.2568 -13.2568   0.4177   0.4177   5.4843   5.4843

          k =-0.5000-1.0000 0.0000 ( 14492 PWs)   bands (ev):

   -13.7825 -13.7825 -13.5691 -13.5691 -13.4975 -13.4975 -13.4520 -13.4520
   -13.2393 -13.2393   0.4780   0.4780   4.9000   4.9000

     highest occupied level (ev):     8.0630

!    total energy              =    -325.62675190 Ry
     estimated scf accuracy    <          9.1E-10 Ry

     The total energy is the sum of the following terms:
     one-electron contribution =    -150.98984486 Ry
     hartree contribution      =      93.25613041 Ry
     xc contribution           =     -95.23360708 Ry
     ewald contribution        =    -172.65943036 Ry

     convergence has been achieved in   6 iterations

     Writing all to output data dir ./alpha-sn-scf/alphatin.save/ :
     XML data file, charge density, pseudopotentials, collected wavefunctions

     init_run     :      0.70s CPU      0.78s WALL (       1 calls)
     electrons    :      0.57s CPU      0.64s WALL (       1 calls)

     Called by init_run:
     wfcinit      :      0.02s CPU      0.04s WALL (       1 calls)
     potinit      :      0.02s CPU      0.04s WALL (       1 calls)
     hinit0       :      0.59s CPU      0.61s WALL (       1 calls)

     Called by electrons:
     c_bands      :      0.31s CPU      0.33s WALL (       7 calls)
     sum_band     :      0.12s CPU      0.13s WALL (       7 calls)
     v_of_rho     :      0.08s CPU      0.10s WALL (       7 calls)
     newd         :      0.03s CPU      0.04s WALL (       7 calls)
     mix_rho      :      0.01s CPU      0.01s WALL (       7 calls)

     Called by c_bands:
     init_us_2    :      0.01s CPU      0.01s WALL (      30 calls)
     cegterg      :      0.29s CPU      0.30s WALL (      14 calls)

     Called by *egterg:
     cdiaghg      :      0.02s CPU      0.02s WALL (      54 calls)
     h_psi        :      0.26s CPU      0.28s WALL (      58 calls)
     s_psi        :      0.00s CPU      0.00s WALL (      58 calls)
     g_psi        :      0.00s CPU      0.00s WALL (      42 calls)

     Called by h_psi:
     h_psi:calbec :      0.01s CPU      0.01s WALL (      58 calls)
     vloc_psi     :      0.25s CPU      0.26s WALL (      58 calls)
     add_vuspsi   :      0.01s CPU      0.01s WALL (      58 calls)

     General routines
     calbec       :      0.01s CPU      0.01s WALL (      72 calls)
     fft          :      0.58s CPU      0.59s WALL (      78 calls)
     ffts         :      0.00s CPU      0.00s WALL (       7 calls)
     fftw         :      0.26s CPU      0.28s WALL (    1230 calls)

     Parallel routines

     PWSCF        :      1.52s CPU      1.83s WALL


   This run was terminated on:  15:58:49   5Feb2026            

=------------------------------------------------------------------------------=
   JOB DONE.
=------------------------------------------------------------------------------=
