
     Program PWSCF v.7.3.1 starts on  5Feb2026 at 15:59: 8 

     This program is part of the open-source Quantum ESPRESSO suite
     for quantum simulation of materials; please cite
         "P. Giannozzi et al., J. Phys.:Condens. Matter 21 395502 (2009);
         "P. Giannozzi et al., J. Phys.:Condens. Matter 29 465901 (2017);
         "P. Giannozzi et al., J. Chem. Phys. 152 154105 (2020);
          URL http://www.quantum-espresso.org", 
     in publications or presentations arising from this work. More details at
     http://www.quantum-espresso.org/quote

     Parallel version (MPI), running on   128 processors

     MPI processes distributed on     1 nodes
     242308 MiB available memory on the printing compute node when the environment starts

     Waiting for input...
     Reading input from standard input
     Message from routine read_cards :
     DEPRECATED: no units specified in ATOMIC_POSITIONS card
     Message from routine read_cards :
     ATOMIC_POSITIONS: units set to alat

     Current dimensions of program PWSCF are:
     Max number of different atomic species (ntypx) = 10
     Max number of k-points (npk) =  40000
     Max angular momentum in pseudopotentials (lmaxx) =  4

     K-points division:     npool     =       4
     R & G space division:  proc/nbgrp/npool/nimage =      32
     Subspace diagonalization in iterative solution of the eigenvalue problem:
     a serial algorithm will be used


     Parallelization info
     --------------------
     sticks:   dense  smooth     PW     G-vecs:    dense   smooth      PW
     Min         100     100     27                 3763     3763     535
     Max         101     101     28                 3769     3769     537
     Sum        3217    3217    871               120501   120501   17153

     Using Slab Decomposition



     bravais-lattice index     =            2
     lattice parameter (alat)  =      12.2300  a.u.
     unit-cell volume          =     457.3191 (a.u.)^3
     number of atoms/cell      =            2
     number of atomic types    =            1
     number of electrons       =        28.00
     number of Kohn-Sham states=           14
     kinetic-energy cutoff     =     156.0000  Ry
     charge density cutoff     =     624.0000  Ry
     scf convergence threshold =      1.0E-07
     mixing beta               =       0.7000
     number of iterations used =            8  plain     mixing
     Exchange-correlation=  SLA  PW   GGX  GGC
                           (   1   4   2   2   0   0   0)

     celldm(1)=  12.230000  celldm(2)=   0.000000  celldm(3)=   0.000000
     celldm(4)=   0.000000  celldm(5)=   0.000000  celldm(6)=   0.000000

     crystal axes: (cart. coord. in units of alat)
               a(1) = (  -0.500000   0.000000   0.500000 )  
               a(2) = (   0.000000   0.500000   0.500000 )  
               a(3) = (  -0.500000   0.500000   0.000000 )  

     reciprocal axes: (cart. coord. in units 2 pi/alat)
               b(1) = ( -1.000000 -1.000000  1.000000 )  
               b(2) = (  1.000000  1.000000  1.000000 )  
               b(3) = ( -1.000000  1.000000 -1.000000 )  


     PseudoPot. # 1 for Sn read from file:
     ./Sn.pw91-n-van.UPF
     MD5 check sum: a38d2a872edd1a4efd76c0a1a38f7031
     Pseudo is Ultrasoft + core correction, Zval = 14.0
     Generated by new atomic code, or converted to UPF format
     Using radial grid of  891 points,  6 beta functions with: 
                l(1) =   0
                l(2) =   0
                l(3) =   1
                l(4) =   1
                l(5) =   2
                l(6) =   2
     Q(r) pseudized with  8 coefficients,  rinner =    1.100   1.100   1.100
                                                       1.100   1.100

     atomic species   valence    mass     pseudopotential
     Sn               14.00   118.70000     Sn( 1.00)

     48 Sym. Ops., with inversion, found (24 have fractional translation)



   Cartesian axes

     site n.     atom                  positions (alat units)
         1        Sn     tau(   1) = (   0.0000000   0.0000000   0.0000000  )
         2        Sn     tau(   2) = (   0.2500000   0.2500000   0.2500000  )

     number of k points=     8
                       cart. coord. in units 2pi/alat
        k(    1) = (   0.0000000   0.0000000   0.0000000), wk =   0.0312500
        k(    2) = (  -0.2500000   0.2500000  -0.2500000), wk =   0.2500000
        k(    3) = (   0.5000000  -0.5000000   0.5000000), wk =   0.1250000
        k(    4) = (   0.0000000   0.5000000   0.0000000), wk =   0.1875000
        k(    5) = (   0.7500000  -0.2500000   0.7500000), wk =   0.7500000
        k(    6) = (   0.5000000   0.0000000   0.5000000), wk =   0.3750000
        k(    7) = (   0.0000000  -1.0000000   0.0000000), wk =   0.0937500
        k(    8) = (  -0.5000000  -1.0000000   0.0000000), wk =   0.1875000

     Dense  grid:   120501 G-vectors     FFT dimensions: (  72,  72,  72)

     Estimated max dynamical RAM per process >       7.94 MB

     Estimated total dynamical RAM >     927.89 MB

     Initial potential from superposition of free atoms

     starting charge      27.9964, renormalised to      28.0000
     Starting wfcs are   18 randomized atomic wfcs

     total cpu time spent up to now is        1.1 secs

     per-process dynamical memory:    14.6 Mb

     Self-consistent Calculation

     iteration #  1     ecut=   156.00 Ry     beta= 0.70
     Davidson diagonalization with overlap
     ethr =  1.00E-02,  avg # of iterations =  2.0

     Threshold (ethr) on eigenvalues was too large:
     Diagonalizing with lowered threshold

     Davidson diagonalization with overlap
     ethr =  9.05E-05,  avg # of iterations =  2.1

     total cpu time spent up to now is        1.3 secs

     total energy              =    -325.62374547 Ry
     estimated scf accuracy    <       0.02980139 Ry

     iteration #  2     ecut=   156.00 Ry     beta= 0.70
     Davidson diagonalization with overlap
     ethr =  1.06E-04,  avg # of iterations =  1.1

     total cpu time spent up to now is        1.3 secs

     total energy              =    -325.62658723 Ry
     estimated scf accuracy    <       0.00150437 Ry

     iteration #  3     ecut=   156.00 Ry     beta= 0.70
     Davidson diagonalization with overlap
     ethr =  5.37E-06,  avg # of iterations =  2.4

     negative rho (up, down):  1.347E-07 0.000E+00

     total cpu time spent up to now is        1.4 secs

     total energy              =    -325.62678763 Ry
     estimated scf accuracy    <       0.00004470 Ry

     iteration #  4     ecut=   156.00 Ry     beta= 0.70
     Davidson diagonalization with overlap
     ethr =  1.60E-07,  avg # of iterations =  3.6

     negative rho (up, down):  1.360E-06 0.000E+00

     total cpu time spent up to now is        1.5 secs

     total energy              =    -325.62680192 Ry
     estimated scf accuracy    <       0.00000332 Ry

     iteration #  5     ecut=   156.00 Ry     beta= 0.70
     Davidson diagonalization with overlap
     ethr =  1.19E-08,  avg # of iterations =  3.0

     negative rho (up, down):  1.276E-06 0.000E+00

     total cpu time spent up to now is        1.6 secs

     total energy              =    -325.62680220 Ry
     estimated scf accuracy    <       0.00000036 Ry

     iteration #  6     ecut=   156.00 Ry     beta= 0.70
     Davidson diagonalization with overlap
     ethr =  1.29E-09,  avg # of iterations =  2.9

     negative rho (up, down):  1.288E-06 0.000E+00

     total cpu time spent up to now is        1.7 secs

     End of self-consistent calculation

          k = 0.0000 0.0000 0.0000 ( 15065 PWs)   bands (ev):

   -13.7122 -13.7122 -13.7122 -13.6532 -13.6532 -13.3357 -13.3357 -13.3357
   -13.3272 -13.3272  -2.7008   7.3361   8.0630   8.0630

          k =-0.2500 0.2500-0.2500 ( 15013 PWs)   bands (ev):

   -13.7385 -13.7385 -13.6991 -13.6124 -13.6124 -13.3814 -13.3814 -13.3525
   -13.2898 -13.2898  -2.1087   3.9180   7.3000   7.3000

          k = 0.5000-0.5000 0.5000 ( 15064 PWs)   bands (ev):

   -13.7493 -13.7493 -13.6851 -13.5912 -13.5912 -13.3977 -13.3977 -13.3702
   -13.2781 -13.2781  -1.0623   1.6347   6.8428   6.8428

          k = 0.0000 0.5000 0.0000 ( 15024 PWs)   bands (ev):

   -13.7404 -13.7404 -13.7163 -13.6045 -13.5548 -13.4683 -13.3740 -13.3056
   -13.2944 -13.2944  -1.8918   3.8040   6.3559   6.3559

          k = 0.7500-0.2500 0.7500 ( 15045 PWs)   bands (ev):

   -13.7792 -13.7586 -13.6524 -13.5537 -13.5245 -13.4963 -13.4288 -13.3801
   -13.2661 -13.2450  -0.7144   1.6729   5.0194   6.0387

          k = 0.5000 0.0000 0.5000 ( 15035 PWs)   bands (ev):

   -13.7726 -13.7606 -13.6463 -13.5882 -13.5505 -13.4427 -13.4115 -13.3975
   -13.2623 -13.2553  -1.2018   2.3653   4.9299   6.7741

          k = 0.0000-1.0000 0.0000 ( 15060 PWs)   bands (ev):

   -13.7646 -13.7646 -13.6281 -13.6281 -13.4883 -13.4883 -13.4029 -13.4029
   -13.2570 -13.2570   0.4177   0.4177   5.4843   5.4843

          k =-0.5000-1.0000 0.0000 ( 15048 PWs)   bands (ev):

   -13.7826 -13.7826 -13.5692 -13.5692 -13.4975 -13.4975 -13.4521 -13.4521
   -13.2394 -13.2394   0.4780   0.4780   4.9000   4.9000

     highest occupied level (ev):     8.0630

!    total energy              =    -325.62680226 Ry
     estimated scf accuracy    <          1.3E-09 Ry

     The total energy is the sum of the following terms:
     one-electron contribution =    -150.98991056 Ry
     hartree contribution      =      93.25614822 Ry
     xc contribution           =     -95.23360957 Ry
     ewald contribution        =    -172.65943036 Ry

     convergence has been achieved in   6 iterations

     Writing all to output data dir ./alpha-sn-scf/alphatin.save/ :
     XML data file, charge density, pseudopotentials, collected wavefunctions

     init_run     :      0.69s CPU      0.77s WALL (       1 calls)
     electrons    :      0.55s CPU      0.64s WALL (       1 calls)

     Called by init_run:
     wfcinit      :      0.03s CPU      0.04s WALL (       1 calls)
     potinit      :      0.02s CPU      0.04s WALL (       1 calls)
     hinit0       :      0.57s CPU      0.60s WALL (       1 calls)

     Called by electrons:
     c_bands      :      0.31s CPU      0.33s WALL (       7 calls)
     sum_band     :      0.11s CPU      0.13s WALL (       7 calls)
     v_of_rho     :      0.08s CPU      0.10s WALL (       7 calls)
     newd         :      0.03s CPU      0.04s WALL (       7 calls)
     mix_rho      :      0.01s CPU      0.01s WALL (       7 calls)

     Called by c_bands:
     init_us_2    :      0.01s CPU      0.01s WALL (      30 calls)
     cegterg      :      0.30s CPU      0.31s WALL (      14 calls)

     Called by *egterg:
     cdiaghg      :      0.02s CPU      0.02s WALL (      58 calls)
     h_psi        :      0.27s CPU      0.29s WALL (      62 calls)
     s_psi        :      0.00s CPU      0.00s WALL (      62 calls)
     g_psi        :      0.00s CPU      0.00s WALL (      46 calls)

     Called by h_psi:
     h_psi:calbec :      0.01s CPU      0.01s WALL (      62 calls)
     vloc_psi     :      0.26s CPU      0.27s WALL (      62 calls)
     add_vuspsi   :      0.00s CPU      0.01s WALL (      62 calls)

     General routines
     calbec       :      0.01s CPU      0.01s WALL (      76 calls)
     fft          :      0.59s CPU      0.59s WALL (      78 calls)
     ffts         :      0.00s CPU      0.00s WALL (       7 calls)
     fftw         :      0.27s CPU      0.28s WALL (    1214 calls)

     Parallel routines

     PWSCF        :      1.50s CPU      3.78s WALL


   This run was terminated on:  15:59:12   5Feb2026            

=------------------------------------------------------------------------------=
   JOB DONE.
=------------------------------------------------------------------------------=
