
     Program PWSCF v.7.3.1 starts on  5Feb2026 at 16: 0:17 

     This program is part of the open-source Quantum ESPRESSO suite
     for quantum simulation of materials; please cite
         "P. Giannozzi et al., J. Phys.:Condens. Matter 21 395502 (2009);
         "P. Giannozzi et al., J. Phys.:Condens. Matter 29 465901 (2017);
         "P. Giannozzi et al., J. Chem. Phys. 152 154105 (2020);
          URL http://www.quantum-espresso.org", 
     in publications or presentations arising from this work. More details at
     http://www.quantum-espresso.org/quote

     Parallel version (MPI), running on   128 processors

     MPI processes distributed on     1 nodes
     242367 MiB available memory on the printing compute node when the environment starts

     Waiting for input...
     Reading input from standard input
     Message from routine read_cards :
     DEPRECATED: no units specified in ATOMIC_POSITIONS card
     Message from routine read_cards :
     ATOMIC_POSITIONS: units set to alat

     Current dimensions of program PWSCF are:
     Max number of different atomic species (ntypx) = 10
     Max number of k-points (npk) =  40000
     Max angular momentum in pseudopotentials (lmaxx) =  4

     K-points division:     npool     =       4
     R & G space division:  proc/nbgrp/npool/nimage =      32
     Subspace diagonalization in iterative solution of the eigenvalue problem:
     a serial algorithm will be used


     Parallelization info
     --------------------
     sticks:   dense  smooth     PW     G-vecs:    dense   smooth      PW
     Min         106     106     28                 4062     4062     575
     Max         107     107     29                 4064     4064     579
     Sum        3403    3403    925               130005   130005   18499

     Using Slab Decomposition



     bravais-lattice index     =            2
     lattice parameter (alat)  =      12.2300  a.u.
     unit-cell volume          =     457.3191 (a.u.)^3
     number of atoms/cell      =            2
     number of atomic types    =            1
     number of electrons       =        28.00
     number of Kohn-Sham states=           14
     kinetic-energy cutoff     =     164.0000  Ry
     charge density cutoff     =     656.0000  Ry
     scf convergence threshold =      1.0E-07
     mixing beta               =       0.7000
     number of iterations used =            8  plain     mixing
     Exchange-correlation=  SLA  PW   GGX  GGC
                           (   1   4   2   2   0   0   0)

     celldm(1)=  12.230000  celldm(2)=   0.000000  celldm(3)=   0.000000
     celldm(4)=   0.000000  celldm(5)=   0.000000  celldm(6)=   0.000000

     crystal axes: (cart. coord. in units of alat)
               a(1) = (  -0.500000   0.000000   0.500000 )  
               a(2) = (   0.000000   0.500000   0.500000 )  
               a(3) = (  -0.500000   0.500000   0.000000 )  

     reciprocal axes: (cart. coord. in units 2 pi/alat)
               b(1) = ( -1.000000 -1.000000  1.000000 )  
               b(2) = (  1.000000  1.000000  1.000000 )  
               b(3) = ( -1.000000  1.000000 -1.000000 )  


     PseudoPot. # 1 for Sn read from file:
     ./Sn.pw91-n-van.UPF
     MD5 check sum: a38d2a872edd1a4efd76c0a1a38f7031
     Pseudo is Ultrasoft + core correction, Zval = 14.0
     Generated by new atomic code, or converted to UPF format
     Using radial grid of  891 points,  6 beta functions with: 
                l(1) =   0
                l(2) =   0
                l(3) =   1
                l(4) =   1
                l(5) =   2
                l(6) =   2
     Q(r) pseudized with  8 coefficients,  rinner =    1.100   1.100   1.100
                                                       1.100   1.100

     atomic species   valence    mass     pseudopotential
     Sn               14.00   118.70000     Sn( 1.00)

     48 Sym. Ops., with inversion, found (24 have fractional translation)



   Cartesian axes

     site n.     atom                  positions (alat units)
         1        Sn     tau(   1) = (   0.0000000   0.0000000   0.0000000  )
         2        Sn     tau(   2) = (   0.2500000   0.2500000   0.2500000  )

     number of k points=     8
                       cart. coord. in units 2pi/alat
        k(    1) = (   0.0000000   0.0000000   0.0000000), wk =   0.0312500
        k(    2) = (  -0.2500000   0.2500000  -0.2500000), wk =   0.2500000
        k(    3) = (   0.5000000  -0.5000000   0.5000000), wk =   0.1250000
        k(    4) = (   0.0000000   0.5000000   0.0000000), wk =   0.1875000
        k(    5) = (   0.7500000  -0.2500000   0.7500000), wk =   0.7500000
        k(    6) = (   0.5000000   0.0000000   0.5000000), wk =   0.3750000
        k(    7) = (   0.0000000  -1.0000000   0.0000000), wk =   0.0937500
        k(    8) = (  -0.5000000  -1.0000000   0.0000000), wk =   0.1875000

     Dense  grid:   130005 G-vectors     FFT dimensions: (  72,  72,  72)

     Estimated max dynamical RAM per process >       8.38 MB

     Estimated total dynamical RAM >     976.85 MB

     Initial potential from superposition of free atoms

     starting charge      27.9964, renormalised to      28.0000
     Starting wfcs are   18 randomized atomic wfcs

     total cpu time spent up to now is        1.1 secs

     per-process dynamical memory:    14.7 Mb

     Self-consistent Calculation

     iteration #  1     ecut=   164.00 Ry     beta= 0.70
     Davidson diagonalization with overlap
     ethr =  1.00E-02,  avg # of iterations =  2.0

     Threshold (ethr) on eigenvalues was too large:
     Diagonalizing with lowered threshold

     Davidson diagonalization with overlap
     ethr =  9.07E-05,  avg # of iterations =  2.0

     total cpu time spent up to now is        1.2 secs

     total energy              =    -325.62359973 Ry
     estimated scf accuracy    <       0.02964325 Ry

     iteration #  2     ecut=   164.00 Ry     beta= 0.70
     Davidson diagonalization with overlap
     ethr =  1.06E-04,  avg # of iterations =  1.1

     negative rho (up, down):  1.204E-08 0.000E+00

     total cpu time spent up to now is        1.3 secs

     total energy              =    -325.62711298 Ry
     estimated scf accuracy    <       0.00155893 Ry

     iteration #  3     ecut=   164.00 Ry     beta= 0.70
     Davidson diagonalization with overlap
     ethr =  5.57E-06,  avg # of iterations =  2.4

     negative rho (up, down):  2.822E-06 0.000E+00

     total cpu time spent up to now is        1.4 secs

     total energy              =    -325.62734661 Ry
     estimated scf accuracy    <       0.00005448 Ry

     iteration #  4     ecut=   164.00 Ry     beta= 0.70
     Davidson diagonalization with overlap
     ethr =  1.95E-07,  avg # of iterations =  3.1

     negative rho (up, down):  4.456E-06 0.000E+00

     total cpu time spent up to now is        1.5 secs

     total energy              =    -325.62736585 Ry
     estimated scf accuracy    <       0.00000418 Ry

     iteration #  5     ecut=   164.00 Ry     beta= 0.70
     Davidson diagonalization with overlap
     ethr =  1.49E-08,  avg # of iterations =  3.4

     negative rho (up, down):  4.358E-06 0.000E+00

     total cpu time spent up to now is        1.6 secs

     total energy              =    -325.62736626 Ry
     estimated scf accuracy    <       0.00000067 Ry

     iteration #  6     ecut=   164.00 Ry     beta= 0.70
     Davidson diagonalization with overlap
     ethr =  2.41E-09,  avg # of iterations =  2.0

     negative rho (up, down):  4.355E-06 0.000E+00

     total cpu time spent up to now is        1.7 secs

     End of self-consistent calculation

          k = 0.0000 0.0000 0.0000 ( 16361 PWs)   bands (ev):

   -13.7130 -13.7130 -13.7130 -13.6539 -13.6539 -13.3366 -13.3366 -13.3366
   -13.3279 -13.3279  -2.7010   7.3359   8.0627   8.0627

          k =-0.2500 0.2500-0.2500 ( 16229 PWs)   bands (ev):

   -13.7392 -13.7392 -13.6998 -13.6131 -13.6131 -13.3821 -13.3821 -13.3533
   -13.2906 -13.2906  -2.1090   3.9177   7.2998   7.2998

          k = 0.5000-0.5000 0.5000 ( 16258 PWs)   bands (ev):

   -13.7500 -13.7500 -13.6858 -13.5919 -13.5919 -13.3984 -13.3984 -13.3710
   -13.2788 -13.2788  -1.0626   1.6344   6.8426   6.8426

          k = 0.0000 0.5000 0.0000 ( 16217 PWs)   bands (ev):

   -13.7411 -13.7411 -13.7170 -13.6051 -13.5555 -13.4690 -13.3747 -13.3063
   -13.2952 -13.2952  -1.8920   3.8038   6.3556   6.3556

          k = 0.7500-0.2500 0.7500 ( 16218 PWs)   bands (ev):

   -13.7799 -13.7593 -13.6531 -13.5544 -13.5252 -13.4970 -13.4295 -13.3808
   -13.2668 -13.2457  -0.7146   1.6727   5.0191   6.0385

          k = 0.5000 0.0000 0.5000 ( 16210 PWs)   bands (ev):

   -13.7733 -13.7613 -13.6470 -13.5889 -13.5512 -13.4434 -13.4123 -13.3981
   -13.2630 -13.2560  -1.2020   2.3651   4.9296   6.7739

          k = 0.0000-1.0000 0.0000 ( 16204 PWs)   bands (ev):

   -13.7653 -13.7653 -13.6288 -13.6288 -13.4890 -13.4890 -13.4036 -13.4036
   -13.2577 -13.2577   0.4174   0.4174   5.4840   5.4840

          k =-0.5000-1.0000 0.0000 ( 16244 PWs)   bands (ev):

   -13.7833 -13.7833 -13.5699 -13.5699 -13.4982 -13.4982 -13.4528 -13.4528
   -13.2402 -13.2402   0.4777   0.4777   4.8997   4.8997

     highest occupied level (ev):     8.0627

!    total energy              =    -325.62736633 Ry
     estimated scf accuracy    <          9.6E-09 Ry

     The total energy is the sum of the following terms:
     one-electron contribution =    -150.99074738 Ry
     hartree contribution      =      93.25644925 Ry
     xc contribution           =     -95.23363784 Ry
     ewald contribution        =    -172.65943036 Ry

     convergence has been achieved in   6 iterations

     Writing all to output data dir ./alpha-sn-scf/alphatin.save/ :
     XML data file, charge density, pseudopotentials, collected wavefunctions

     init_run     :      0.70s CPU      0.78s WALL (       1 calls)
     electrons    :      0.56s CPU      0.91s WALL (       1 calls)

     Called by init_run:
     wfcinit      :      0.03s CPU      0.04s WALL (       1 calls)
     potinit      :      0.02s CPU      0.03s WALL (       1 calls)
     hinit0       :      0.58s CPU      0.60s WALL (       1 calls)

     Called by electrons:
     c_bands      :      0.30s CPU      0.32s WALL (       7 calls)
     sum_band     :      0.12s CPU      0.14s WALL (       7 calls)
     v_of_rho     :      0.09s CPU      0.10s WALL (       7 calls)
     newd         :      0.04s CPU      0.05s WALL (       7 calls)
     mix_rho      :      0.01s CPU      0.01s WALL (       7 calls)

     Called by c_bands:
     init_us_2    :      0.01s CPU      0.01s WALL (      30 calls)
     cegterg      :      0.28s CPU      0.29s WALL (      14 calls)

     Called by *egterg:
     cdiaghg      :      0.02s CPU      0.02s WALL (      50 calls)
     h_psi        :      0.27s CPU      0.28s WALL (      54 calls)
     s_psi        :      0.00s CPU      0.00s WALL (      54 calls)
     g_psi        :      0.00s CPU      0.00s WALL (      38 calls)

     Called by h_psi:
     h_psi:calbec :      0.01s CPU      0.01s WALL (      54 calls)
     vloc_psi     :      0.25s CPU      0.26s WALL (      54 calls)
     add_vuspsi   :      0.01s CPU      0.01s WALL (      54 calls)

     General routines
     calbec       :      0.01s CPU      0.01s WALL (      68 calls)
     fft          :      0.58s CPU      0.59s WALL (      78 calls)
     ffts         :      0.00s CPU      0.00s WALL (       7 calls)
     fftw         :      0.27s CPU      0.28s WALL (    1192 calls)

     Parallel routines

     PWSCF        :      1.59s CPU      2.24s WALL


   This run was terminated on:  16: 0:19   5Feb2026            

=------------------------------------------------------------------------------=
   JOB DONE.
=------------------------------------------------------------------------------=
