
     Program PWSCF v.7.3.1 starts on  5Feb2026 at 16: 0:27 

     This program is part of the open-source Quantum ESPRESSO suite
     for quantum simulation of materials; please cite
         "P. Giannozzi et al., J. Phys.:Condens. Matter 21 395502 (2009);
         "P. Giannozzi et al., J. Phys.:Condens. Matter 29 465901 (2017);
         "P. Giannozzi et al., J. Chem. Phys. 152 154105 (2020);
          URL http://www.quantum-espresso.org", 
     in publications or presentations arising from this work. More details at
     http://www.quantum-espresso.org/quote

     Parallel version (MPI), running on   128 processors

     MPI processes distributed on     1 nodes
     242266 MiB available memory on the printing compute node when the environment starts

     Waiting for input...
     Reading input from standard input
     Message from routine read_cards :
     DEPRECATED: no units specified in ATOMIC_POSITIONS card
     Message from routine read_cards :
     ATOMIC_POSITIONS: units set to alat

     Current dimensions of program PWSCF are:
     Max number of different atomic species (ntypx) = 10
     Max number of k-points (npk) =  40000
     Max angular momentum in pseudopotentials (lmaxx) =  4

     K-points division:     npool     =       4
     R & G space division:  proc/nbgrp/npool/nimage =      32
     Subspace diagonalization in iterative solution of the eigenvalue problem:
     a serial algorithm will be used


     Parallelization info
     --------------------
     sticks:   dense  smooth     PW     G-vecs:    dense   smooth      PW
     Min         107     107     29                 4126     4126     589
     Max         108     108     30                 4129     4129     591
     Sum        3427    3427    931               132099   132099   18883

     Using Slab Decomposition



     bravais-lattice index     =            2
     lattice parameter (alat)  =      12.2300  a.u.
     unit-cell volume          =     457.3191 (a.u.)^3
     number of atoms/cell      =            2
     number of atomic types    =            1
     number of electrons       =        28.00
     number of Kohn-Sham states=           14
     kinetic-energy cutoff     =     166.0000  Ry
     charge density cutoff     =     664.0000  Ry
     scf convergence threshold =      1.0E-07
     mixing beta               =       0.7000
     number of iterations used =            8  plain     mixing
     Exchange-correlation=  SLA  PW   GGX  GGC
                           (   1   4   2   2   0   0   0)

     celldm(1)=  12.230000  celldm(2)=   0.000000  celldm(3)=   0.000000
     celldm(4)=   0.000000  celldm(5)=   0.000000  celldm(6)=   0.000000

     crystal axes: (cart. coord. in units of alat)
               a(1) = (  -0.500000   0.000000   0.500000 )  
               a(2) = (   0.000000   0.500000   0.500000 )  
               a(3) = (  -0.500000   0.500000   0.000000 )  

     reciprocal axes: (cart. coord. in units 2 pi/alat)
               b(1) = ( -1.000000 -1.000000  1.000000 )  
               b(2) = (  1.000000  1.000000  1.000000 )  
               b(3) = ( -1.000000  1.000000 -1.000000 )  


     PseudoPot. # 1 for Sn read from file:
     ./Sn.pw91-n-van.UPF
     MD5 check sum: a38d2a872edd1a4efd76c0a1a38f7031
     Pseudo is Ultrasoft + core correction, Zval = 14.0
     Generated by new atomic code, or converted to UPF format
     Using radial grid of  891 points,  6 beta functions with: 
                l(1) =   0
                l(2) =   0
                l(3) =   1
                l(4) =   1
                l(5) =   2
                l(6) =   2
     Q(r) pseudized with  8 coefficients,  rinner =    1.100   1.100   1.100
                                                       1.100   1.100

     atomic species   valence    mass     pseudopotential
     Sn               14.00   118.70000     Sn( 1.00)

     48 Sym. Ops., with inversion, found (24 have fractional translation)



   Cartesian axes

     site n.     atom                  positions (alat units)
         1        Sn     tau(   1) = (   0.0000000   0.0000000   0.0000000  )
         2        Sn     tau(   2) = (   0.2500000   0.2500000   0.2500000  )

     number of k points=     8
                       cart. coord. in units 2pi/alat
        k(    1) = (   0.0000000   0.0000000   0.0000000), wk =   0.0312500
        k(    2) = (  -0.2500000   0.2500000  -0.2500000), wk =   0.2500000
        k(    3) = (   0.5000000  -0.5000000   0.5000000), wk =   0.1250000
        k(    4) = (   0.0000000   0.5000000   0.0000000), wk =   0.1875000
        k(    5) = (   0.7500000  -0.2500000   0.7500000), wk =   0.7500000
        k(    6) = (   0.5000000   0.0000000   0.5000000), wk =   0.3750000
        k(    7) = (   0.0000000  -1.0000000   0.0000000), wk =   0.0937500
        k(    8) = (  -0.5000000  -1.0000000   0.0000000), wk =   0.1875000

     Dense  grid:   132099 G-vectors     FFT dimensions: (  72,  72,  72)

     Estimated max dynamical RAM per process >       8.47 MB

     Estimated total dynamical RAM >     987.39 MB

     Initial potential from superposition of free atoms

     starting charge      27.9964, renormalised to      28.0000
     Starting wfcs are   18 randomized atomic wfcs

     total cpu time spent up to now is        1.1 secs

     per-process dynamical memory:    14.6 Mb

     Self-consistent Calculation

     iteration #  1     ecut=   166.00 Ry     beta= 0.70
     Davidson diagonalization with overlap
     ethr =  1.00E-02,  avg # of iterations =  2.0

     Threshold (ethr) on eigenvalues was too large:
     Diagonalizing with lowered threshold

     Davidson diagonalization with overlap
     ethr =  9.00E-05,  avg # of iterations =  2.0

     total cpu time spent up to now is        1.3 secs

     total energy              =    -325.62359675 Ry
     estimated scf accuracy    <       0.02948475 Ry

     iteration #  2     ecut=   166.00 Ry     beta= 0.70
     Davidson diagonalization with overlap
     ethr =  1.05E-04,  avg # of iterations =  1.1

     negative rho (up, down):  6.890E-07 0.000E+00

     total cpu time spent up to now is        1.3 secs

     total energy              =    -325.62736376 Ry
     estimated scf accuracy    <       0.00159760 Ry

     iteration #  3     ecut=   166.00 Ry     beta= 0.70
     Davidson diagonalization with overlap
     ethr =  5.71E-06,  avg # of iterations =  2.4

     negative rho (up, down):  3.275E-06 0.000E+00

     total cpu time spent up to now is        1.4 secs

     total energy              =    -325.62760282 Ry
     estimated scf accuracy    <       0.00006087 Ry

     iteration #  4     ecut=   166.00 Ry     beta= 0.70
     Davidson diagonalization with overlap
     ethr =  2.17E-07,  avg # of iterations =  2.6

     negative rho (up, down):  4.946E-06 0.000E+00

     total cpu time spent up to now is        1.5 secs

     total energy              =    -325.62762382 Ry
     estimated scf accuracy    <       0.00000483 Ry

     iteration #  5     ecut=   166.00 Ry     beta= 0.70
     Davidson diagonalization with overlap
     ethr =  1.73E-08,  avg # of iterations =  3.6

     negative rho (up, down):  4.827E-06 0.000E+00

     total cpu time spent up to now is        1.6 secs

     total energy              =    -325.62762428 Ry
     estimated scf accuracy    <       0.00000088 Ry

     iteration #  6     ecut=   166.00 Ry     beta= 0.70
     Davidson diagonalization with overlap
     ethr =  3.14E-09,  avg # of iterations =  2.5

     negative rho (up, down):  4.819E-06 0.000E+00

     total cpu time spent up to now is        1.7 secs

     End of self-consistent calculation

          k = 0.0000 0.0000 0.0000 ( 16529 PWs)   bands (ev):

   -13.7131 -13.7131 -13.7131 -13.6541 -13.6541 -13.3367 -13.3367 -13.3367
   -13.3280 -13.3280  -2.7011   7.3358   8.0627   8.0627

          k =-0.2500 0.2500-0.2500 ( 16511 PWs)   bands (ev):

   -13.7394 -13.7394 -13.7000 -13.6133 -13.6133 -13.3823 -13.3823 -13.3535
   -13.2908 -13.2908  -2.1090   3.9177   7.2997   7.2997

          k = 0.5000-0.5000 0.5000 ( 16558 PWs)   bands (ev):

   -13.7502 -13.7502 -13.6860 -13.5921 -13.5921 -13.3986 -13.3986 -13.3713
   -13.2791 -13.2791  -1.0626   1.6344   6.8425   6.8425

          k = 0.0000 0.5000 0.0000 ( 16505 PWs)   bands (ev):

   -13.7413 -13.7413 -13.7172 -13.6054 -13.5557 -13.4692 -13.3748 -13.3066
   -13.2954 -13.2954  -1.8921   3.8037   6.3556   6.3556

          k = 0.7500-0.2500 0.7500 ( 16525 PWs)   bands (ev):

   -13.7801 -13.7596 -13.6534 -13.5546 -13.5254 -13.4972 -13.4297 -13.3810
   -13.2671 -13.2460  -0.7147   1.6727   5.0190   6.0385

          k = 0.5000 0.0000 0.5000 ( 16524 PWs)   bands (ev):

   -13.7735 -13.7616 -13.6472 -13.5891 -13.5514 -13.4436 -13.4125 -13.3983
   -13.2633 -13.2563  -1.2021   2.3650   4.9295   6.7738

          k = 0.0000-1.0000 0.0000 ( 16446 PWs)   bands (ev):

   -13.7655 -13.7655 -13.6290 -13.6290 -13.4891 -13.4891 -13.4038 -13.4038
   -13.2580 -13.2580   0.4174   0.4174   5.4840   5.4840

          k =-0.5000-1.0000 0.0000 ( 16472 PWs)   bands (ev):

   -13.7835 -13.7835 -13.5701 -13.5701 -13.4984 -13.4984 -13.4530 -13.4530
   -13.2404 -13.2404   0.4777   0.4777   4.8996   4.8996

     highest occupied level (ev):     8.0627

!    total energy              =    -325.62762436 Ry
     estimated scf accuracy    <       0.00000001 Ry

     The total energy is the sum of the following terms:
     one-electron contribution =    -150.99115648 Ry
     hartree contribution      =      93.25662923 Ry
     xc contribution           =     -95.23366675 Ry
     ewald contribution        =    -172.65943036 Ry

     convergence has been achieved in   6 iterations

     Writing all to output data dir ./alpha-sn-scf/alphatin.save/ :
     XML data file, charge density, pseudopotentials, collected wavefunctions

     init_run     :      0.71s CPU      0.78s WALL (       1 calls)
     electrons    :      0.55s CPU      0.66s WALL (       1 calls)

     Called by init_run:
     wfcinit      :      0.03s CPU      0.04s WALL (       1 calls)
     potinit      :      0.02s CPU      0.03s WALL (       1 calls)
     hinit0       :      0.59s CPU      0.60s WALL (       1 calls)

     Called by electrons:
     c_bands      :      0.30s CPU      0.33s WALL (       7 calls)
     sum_band     :      0.12s CPU      0.14s WALL (       7 calls)
     v_of_rho     :      0.08s CPU      0.10s WALL (       7 calls)
     newd         :      0.04s CPU      0.05s WALL (       7 calls)
     mix_rho      :      0.01s CPU      0.01s WALL (       7 calls)

     Called by c_bands:
     init_us_2    :      0.01s CPU      0.01s WALL (      30 calls)
     cegterg      :      0.28s CPU      0.30s WALL (      14 calls)

     Called by *egterg:
     cdiaghg      :      0.02s CPU      0.02s WALL (      52 calls)
     h_psi        :      0.26s CPU      0.28s WALL (      56 calls)
     s_psi        :      0.00s CPU      0.00s WALL (      56 calls)
     g_psi        :      0.00s CPU      0.00s WALL (      40 calls)

     Called by h_psi:
     h_psi:calbec :      0.01s CPU      0.01s WALL (      56 calls)
     vloc_psi     :      0.24s CPU      0.26s WALL (      56 calls)
     add_vuspsi   :      0.01s CPU      0.01s WALL (      56 calls)

     General routines
     calbec       :      0.01s CPU      0.01s WALL (      70 calls)
     fft          :      0.59s CPU      0.60s WALL (      78 calls)
     ffts         :      0.00s CPU      0.00s WALL (       7 calls)
     fftw         :      0.25s CPU      0.28s WALL (    1194 calls)

     Parallel routines

     PWSCF        :      1.50s CPU      1.87s WALL


   This run was terminated on:  16: 0:29   5Feb2026            

=------------------------------------------------------------------------------=
   JOB DONE.
=------------------------------------------------------------------------------=
