
     Program PWSCF v.7.3.1 starts on  5Feb2026 at 16: 1:16 

     This program is part of the open-source Quantum ESPRESSO suite
     for quantum simulation of materials; please cite
         "P. Giannozzi et al., J. Phys.:Condens. Matter 21 395502 (2009);
         "P. Giannozzi et al., J. Phys.:Condens. Matter 29 465901 (2017);
         "P. Giannozzi et al., J. Chem. Phys. 152 154105 (2020);
          URL http://www.quantum-espresso.org", 
     in publications or presentations arising from this work. More details at
     http://www.quantum-espresso.org/quote

     Parallel version (MPI), running on   128 processors

     MPI processes distributed on     1 nodes
     242398 MiB available memory on the printing compute node when the environment starts

     Waiting for input...
     Reading input from standard input
     Message from routine read_cards :
     DEPRECATED: no units specified in ATOMIC_POSITIONS card
     Message from routine read_cards :
     ATOMIC_POSITIONS: units set to alat

     Current dimensions of program PWSCF are:
     Max number of different atomic species (ntypx) = 10
     Max number of k-points (npk) =  40000
     Max angular momentum in pseudopotentials (lmaxx) =  4

     K-points division:     npool     =       4
     R & G space division:  proc/nbgrp/npool/nimage =      32
     Subspace diagonalization in iterative solution of the eigenvalue problem:
     a serial algorithm will be used


     Parallelization info
     --------------------
     sticks:   dense  smooth     PW     G-vecs:    dense   smooth      PW
     Min         112     112     30                 4432     4432     627
     Max         113     113     32                 4437     4437     629
     Sum        3595    3595    967               141911   141911   20107

     Using Slab Decomposition



     bravais-lattice index     =            2
     lattice parameter (alat)  =      12.2300  a.u.
     unit-cell volume          =     457.3191 (a.u.)^3
     number of atoms/cell      =            2
     number of atomic types    =            1
     number of electrons       =        28.00
     number of Kohn-Sham states=           14
     kinetic-energy cutoff     =     174.0000  Ry
     charge density cutoff     =     696.0000  Ry
     scf convergence threshold =      1.0E-07
     mixing beta               =       0.7000
     number of iterations used =            8  plain     mixing
     Exchange-correlation=  SLA  PW   GGX  GGC
                           (   1   4   2   2   0   0   0)

     celldm(1)=  12.230000  celldm(2)=   0.000000  celldm(3)=   0.000000
     celldm(4)=   0.000000  celldm(5)=   0.000000  celldm(6)=   0.000000

     crystal axes: (cart. coord. in units of alat)
               a(1) = (  -0.500000   0.000000   0.500000 )  
               a(2) = (   0.000000   0.500000   0.500000 )  
               a(3) = (  -0.500000   0.500000   0.000000 )  

     reciprocal axes: (cart. coord. in units 2 pi/alat)
               b(1) = ( -1.000000 -1.000000  1.000000 )  
               b(2) = (  1.000000  1.000000  1.000000 )  
               b(3) = ( -1.000000  1.000000 -1.000000 )  


     PseudoPot. # 1 for Sn read from file:
     ./Sn.pw91-n-van.UPF
     MD5 check sum: a38d2a872edd1a4efd76c0a1a38f7031
     Pseudo is Ultrasoft + core correction, Zval = 14.0
     Generated by new atomic code, or converted to UPF format
     Using radial grid of  891 points,  6 beta functions with: 
                l(1) =   0
                l(2) =   0
                l(3) =   1
                l(4) =   1
                l(5) =   2
                l(6) =   2
     Q(r) pseudized with  8 coefficients,  rinner =    1.100   1.100   1.100
                                                       1.100   1.100

     atomic species   valence    mass     pseudopotential
     Sn               14.00   118.70000     Sn( 1.00)

     48 Sym. Ops., with inversion, found (24 have fractional translation)



   Cartesian axes

     site n.     atom                  positions (alat units)
         1        Sn     tau(   1) = (   0.0000000   0.0000000   0.0000000  )
         2        Sn     tau(   2) = (   0.2500000   0.2500000   0.2500000  )

     number of k points=     8
                       cart. coord. in units 2pi/alat
        k(    1) = (   0.0000000   0.0000000   0.0000000), wk =   0.0312500
        k(    2) = (  -0.2500000   0.2500000  -0.2500000), wk =   0.2500000
        k(    3) = (   0.5000000  -0.5000000   0.5000000), wk =   0.1250000
        k(    4) = (   0.0000000   0.5000000   0.0000000), wk =   0.1875000
        k(    5) = (   0.7500000  -0.2500000   0.7500000), wk =   0.7500000
        k(    6) = (   0.5000000   0.0000000   0.5000000), wk =   0.3750000
        k(    7) = (   0.0000000  -1.0000000   0.0000000), wk =   0.0937500
        k(    8) = (  -0.5000000  -1.0000000   0.0000000), wk =   0.1875000

     Dense  grid:   141911 G-vectors     FFT dimensions: (  80,  80,  80)

     Estimated max dynamical RAM per process >       9.17 MB

     Estimated total dynamical RAM >       1.04 GB

     Initial potential from superposition of free atoms

     starting charge      27.9964, renormalised to      28.0000
     Starting wfcs are   18 randomized atomic wfcs

     total cpu time spent up to now is        1.1 secs

     per-process dynamical memory:    13.9 Mb

     Self-consistent Calculation

     iteration #  1     ecut=   174.00 Ry     beta= 0.70
     Davidson diagonalization with overlap
     ethr =  1.00E-02,  avg # of iterations =  2.0

     Threshold (ethr) on eigenvalues was too large:
     Diagonalizing with lowered threshold

     Davidson diagonalization with overlap
     ethr =  8.92E-05,  avg # of iterations =  2.0

     total cpu time spent up to now is        1.3 secs

     total energy              =    -325.62447165 Ry
     estimated scf accuracy    <       0.02914152 Ry

     iteration #  2     ecut=   174.00 Ry     beta= 0.70
     Davidson diagonalization with overlap
     ethr =  1.04E-04,  avg # of iterations =  1.5

     negative rho (up, down):  6.888E-07 0.000E+00

     total cpu time spent up to now is        1.4 secs

     total energy              =    -325.62881161 Ry
     estimated scf accuracy    <       0.00164420 Ry

     iteration #  3     ecut=   174.00 Ry     beta= 0.70
     Davidson diagonalization with overlap
     ethr =  5.87E-06,  avg # of iterations =  2.4

     negative rho (up, down):  2.459E-06 0.000E+00

     total cpu time spent up to now is        1.5 secs

     total energy              =    -325.62906316 Ry
     estimated scf accuracy    <       0.00006431 Ry

     iteration #  4     ecut=   174.00 Ry     beta= 0.70
     Davidson diagonalization with overlap
     ethr =  2.30E-07,  avg # of iterations =  3.2

     negative rho (up, down):  3.687E-06 0.000E+00

     total cpu time spent up to now is        1.6 secs

     total energy              =    -325.62908920 Ry
     estimated scf accuracy    <       0.00000538 Ry

     iteration #  5     ecut=   174.00 Ry     beta= 0.70
     Davidson diagonalization with overlap
     ethr =  1.92E-08,  avg # of iterations =  3.9

     negative rho (up, down):  3.588E-06 0.000E+00

     total cpu time spent up to now is        1.7 secs

     total energy              =    -325.62908975 Ry
     estimated scf accuracy    <       0.00000108 Ry

     iteration #  6     ecut=   174.00 Ry     beta= 0.70
     Davidson diagonalization with overlap
     ethr =  3.85E-09,  avg # of iterations =  2.0

     negative rho (up, down):  3.570E-06 0.000E+00

     total cpu time spent up to now is        1.8 secs

     End of self-consistent calculation

          k = 0.0000 0.0000 0.0000 ( 17837 PWs)   bands (ev):

   -13.7142 -13.7142 -13.7142 -13.6550 -13.6550 -13.3377 -13.3377 -13.3377
   -13.3291 -13.3291  -2.7012   7.3357   8.0625   8.0625

          k =-0.2500 0.2500-0.2500 ( 17712 PWs)   bands (ev):

   -13.7403 -13.7403 -13.7010 -13.6141 -13.6141 -13.3832 -13.3832 -13.3544
   -13.2918 -13.2918  -2.1092   3.9176   7.2996   7.2996

          k = 0.5000-0.5000 0.5000 ( 17724 PWs)   bands (ev):

   -13.7510 -13.7510 -13.6871 -13.5930 -13.5930 -13.3994 -13.3994 -13.3722
   -13.2801 -13.2801  -1.0628   1.6343   6.8424   6.8424

          k = 0.0000 0.5000 0.0000 ( 17742 PWs)   bands (ev):

   -13.7423 -13.7423 -13.7181 -13.6062 -13.5565 -13.4702 -13.3758 -13.3075
   -13.2964 -13.2964  -1.8922   3.8036   6.3555   6.3555

          k = 0.7500-0.2500 0.7500 ( 17750 PWs)   bands (ev):

   -13.7811 -13.7605 -13.6543 -13.5555 -13.5263 -13.4981 -13.4305 -13.3819
   -13.2681 -13.2470  -0.7148   1.6725   5.0189   6.0383

          k = 0.5000 0.0000 0.5000 ( 17724 PWs)   bands (ev):

   -13.7744 -13.7625 -13.6482 -13.5900 -13.5523 -13.4445 -13.4135 -13.3992
   -13.2642 -13.2573  -1.2022   2.3649   4.9294   6.7737

          k = 0.0000-1.0000 0.0000 ( 17726 PWs)   bands (ev):

   -13.7665 -13.7665 -13.6299 -13.6299 -13.4900 -13.4900 -13.4047 -13.4047
   -13.2590 -13.2590   0.4173   0.4173   5.4839   5.4839

          k =-0.5000-1.0000 0.0000 ( 17668 PWs)   bands (ev):

   -13.7845 -13.7845 -13.5710 -13.5710 -13.4992 -13.4992 -13.4539 -13.4539
   -13.2414 -13.2414   0.4776   0.4776   4.8995   4.8995

     highest occupied level (ev):     8.0625

!    total energy              =    -325.62908983 Ry
     estimated scf accuracy    <       0.00000003 Ry

     The total energy is the sum of the following terms:
     one-electron contribution =    -150.99345339 Ry
     hartree contribution      =      93.25767512 Ry
     xc contribution           =     -95.23388120 Ry
     ewald contribution        =    -172.65943036 Ry

     convergence has been achieved in   6 iterations

     Writing all to output data dir ./alpha-sn-scf/alphatin.save/ :
     XML data file, charge density, pseudopotentials, collected wavefunctions

     init_run     :      0.75s CPU      0.81s WALL (       1 calls)
     electrons    :      0.65s CPU      0.74s WALL (       1 calls)

     Called by init_run:
     wfcinit      :      0.04s CPU      0.05s WALL (       1 calls)
     potinit      :      0.03s CPU      0.05s WALL (       1 calls)
     hinit0       :      0.58s CPU      0.59s WALL (       1 calls)

     Called by electrons:
     c_bands      :      0.36s CPU      0.37s WALL (       7 calls)
     sum_band     :      0.14s CPU      0.16s WALL (       7 calls)
     v_of_rho     :      0.11s CPU      0.12s WALL (       7 calls)
     newd         :      0.04s CPU      0.05s WALL (       7 calls)
     mix_rho      :      0.01s CPU      0.01s WALL (       7 calls)

     Called by c_bands:
     init_us_2    :      0.01s CPU      0.01s WALL (      30 calls)
     cegterg      :      0.34s CPU      0.34s WALL (      14 calls)

     Called by *egterg:
     cdiaghg      :      0.02s CPU      0.02s WALL (      52 calls)
     h_psi        :      0.32s CPU      0.33s WALL (      56 calls)
     s_psi        :      0.01s CPU      0.01s WALL (      56 calls)
     g_psi        :      0.00s CPU      0.00s WALL (      40 calls)

     Called by h_psi:
     h_psi:calbec :      0.01s CPU      0.01s WALL (      56 calls)
     vloc_psi     :      0.30s CPU      0.31s WALL (      56 calls)
     add_vuspsi   :      0.01s CPU      0.01s WALL (      56 calls)

     General routines
     calbec       :      0.01s CPU      0.01s WALL (      70 calls)
     fft          :      0.59s CPU      0.60s WALL (      78 calls)
     ffts         :      0.00s CPU      0.00s WALL (       7 calls)
     fftw         :      0.32s CPU      0.32s WALL (    1204 calls)

     Parallel routines

     PWSCF        :      1.67s CPU      2.00s WALL


   This run was terminated on:  16: 1:18   5Feb2026            

=------------------------------------------------------------------------------=
   JOB DONE.
=------------------------------------------------------------------------------=
