
     Program PWSCF v.7.3.1 starts on  5Feb2026 at 16: 1:40 

     This program is part of the open-source Quantum ESPRESSO suite
     for quantum simulation of materials; please cite
         "P. Giannozzi et al., J. Phys.:Condens. Matter 21 395502 (2009);
         "P. Giannozzi et al., J. Phys.:Condens. Matter 29 465901 (2017);
         "P. Giannozzi et al., J. Chem. Phys. 152 154105 (2020);
          URL http://www.quantum-espresso.org", 
     in publications or presentations arising from this work. More details at
     http://www.quantum-espresso.org/quote

     Parallel version (MPI), running on   128 processors

     MPI processes distributed on     1 nodes
     242363 MiB available memory on the printing compute node when the environment starts

     Waiting for input...
     Reading input from standard input
     Message from routine read_cards :
     DEPRECATED: no units specified in ATOMIC_POSITIONS card
     Message from routine read_cards :
     ATOMIC_POSITIONS: units set to alat

     Current dimensions of program PWSCF are:
     Max number of different atomic species (ntypx) = 10
     Max number of k-points (npk) =  40000
     Max angular momentum in pseudopotentials (lmaxx) =  4

     K-points division:     npool     =       4
     R & G space division:  proc/nbgrp/npool/nimage =      32
     Subspace diagonalization in iterative solution of the eigenvalue problem:
     a serial algorithm will be used


     Parallelization info
     --------------------
     sticks:   dense  smooth     PW     G-vecs:    dense   smooth      PW
     Min         114     114     31                 4583     4583     650
     Max         116     116     32                 4585     4585     653
     Sum        3679    3679   1003               146687   146687   20827

     Using Slab Decomposition



     bravais-lattice index     =            2
     lattice parameter (alat)  =      12.2300  a.u.
     unit-cell volume          =     457.3191 (a.u.)^3
     number of atoms/cell      =            2
     number of atomic types    =            1
     number of electrons       =        28.00
     number of Kohn-Sham states=           14
     kinetic-energy cutoff     =     178.0000  Ry
     charge density cutoff     =     712.0000  Ry
     scf convergence threshold =      1.0E-07
     mixing beta               =       0.7000
     number of iterations used =            8  plain     mixing
     Exchange-correlation=  SLA  PW   GGX  GGC
                           (   1   4   2   2   0   0   0)

     celldm(1)=  12.230000  celldm(2)=   0.000000  celldm(3)=   0.000000
     celldm(4)=   0.000000  celldm(5)=   0.000000  celldm(6)=   0.000000

     crystal axes: (cart. coord. in units of alat)
               a(1) = (  -0.500000   0.000000   0.500000 )  
               a(2) = (   0.000000   0.500000   0.500000 )  
               a(3) = (  -0.500000   0.500000   0.000000 )  

     reciprocal axes: (cart. coord. in units 2 pi/alat)
               b(1) = ( -1.000000 -1.000000  1.000000 )  
               b(2) = (  1.000000  1.000000  1.000000 )  
               b(3) = ( -1.000000  1.000000 -1.000000 )  


     PseudoPot. # 1 for Sn read from file:
     ./Sn.pw91-n-van.UPF
     MD5 check sum: a38d2a872edd1a4efd76c0a1a38f7031
     Pseudo is Ultrasoft + core correction, Zval = 14.0
     Generated by new atomic code, or converted to UPF format
     Using radial grid of  891 points,  6 beta functions with: 
                l(1) =   0
                l(2) =   0
                l(3) =   1
                l(4) =   1
                l(5) =   2
                l(6) =   2
     Q(r) pseudized with  8 coefficients,  rinner =    1.100   1.100   1.100
                                                       1.100   1.100

     atomic species   valence    mass     pseudopotential
     Sn               14.00   118.70000     Sn( 1.00)

     48 Sym. Ops., with inversion, found (24 have fractional translation)



   Cartesian axes

     site n.     atom                  positions (alat units)
         1        Sn     tau(   1) = (   0.0000000   0.0000000   0.0000000  )
         2        Sn     tau(   2) = (   0.2500000   0.2500000   0.2500000  )

     number of k points=     8
                       cart. coord. in units 2pi/alat
        k(    1) = (   0.0000000   0.0000000   0.0000000), wk =   0.0312500
        k(    2) = (  -0.2500000   0.2500000  -0.2500000), wk =   0.2500000
        k(    3) = (   0.5000000  -0.5000000   0.5000000), wk =   0.1250000
        k(    4) = (   0.0000000   0.5000000   0.0000000), wk =   0.1875000
        k(    5) = (   0.7500000  -0.2500000   0.7500000), wk =   0.7500000
        k(    6) = (   0.5000000   0.0000000   0.5000000), wk =   0.3750000
        k(    7) = (   0.0000000  -1.0000000   0.0000000), wk =   0.0937500
        k(    8) = (  -0.5000000  -1.0000000   0.0000000), wk =   0.1875000

     Dense  grid:   146687 G-vectors     FFT dimensions: (  80,  80,  80)

     Estimated max dynamical RAM per process >       9.39 MB

     Estimated total dynamical RAM >       1.07 GB

     Initial potential from superposition of free atoms

     starting charge      27.9964, renormalised to      28.0000
     Starting wfcs are   18 randomized atomic wfcs

     total cpu time spent up to now is        1.1 secs

     per-process dynamical memory:    16.0 Mb

     Self-consistent Calculation

     iteration #  1     ecut=   178.00 Ry     beta= 0.70
     Davidson diagonalization with overlap
     ethr =  1.00E-02,  avg # of iterations =  2.0

     Threshold (ethr) on eigenvalues was too large:
     Diagonalizing with lowered threshold

     Davidson diagonalization with overlap
     ethr =  8.84E-05,  avg # of iterations =  2.0

     total cpu time spent up to now is        1.3 secs

     total energy              =    -325.62477888 Ry
     estimated scf accuracy    <       0.02874207 Ry

     iteration #  2     ecut=   178.00 Ry     beta= 0.70
     Davidson diagonalization with overlap
     ethr =  1.03E-04,  avg # of iterations =  1.6

     total cpu time spent up to now is        1.4 secs

     total energy              =    -325.62962079 Ry
     estimated scf accuracy    <       0.00172544 Ry

     iteration #  3     ecut=   178.00 Ry     beta= 0.70
     Davidson diagonalization with overlap
     ethr =  6.16E-06,  avg # of iterations =  2.2

     negative rho (up, down):  1.573E-06 0.000E+00

     total cpu time spent up to now is        1.5 secs

     total energy              =    -325.62988602 Ry
     estimated scf accuracy    <       0.00006998 Ry

     iteration #  4     ecut=   178.00 Ry     beta= 0.70
     Davidson diagonalization with overlap
     ethr =  2.50E-07,  avg # of iterations =  3.4

     negative rho (up, down):  3.016E-06 0.000E+00

     total cpu time spent up to now is        1.6 secs

     total energy              =    -325.62991567 Ry
     estimated scf accuracy    <       0.00000606 Ry

     iteration #  5     ecut=   178.00 Ry     beta= 0.70
     Davidson diagonalization with overlap
     ethr =  2.17E-08,  avg # of iterations =  3.2

     negative rho (up, down):  2.931E-06 0.000E+00

     total cpu time spent up to now is        1.7 secs

     total energy              =    -325.62991626 Ry
     estimated scf accuracy    <       0.00000125 Ry

     iteration #  6     ecut=   178.00 Ry     beta= 0.70
     Davidson diagonalization with overlap
     ethr =  4.47E-09,  avg # of iterations =  2.0

     negative rho (up, down):  2.913E-06 0.000E+00

     total cpu time spent up to now is        1.8 secs

     End of self-consistent calculation

          k = 0.0000 0.0000 0.0000 ( 18197 PWs)   bands (ev):

   -13.7144 -13.7144 -13.7144 -13.6549 -13.6549 -13.3378 -13.3378 -13.3378
   -13.3290 -13.3290  -2.7011   7.3358   8.0625   8.0625

          k =-0.2500 0.2500-0.2500 ( 18396 PWs)   bands (ev):

   -13.7407 -13.7407 -13.7013 -13.6145 -13.6145 -13.3835 -13.3835 -13.3548
   -13.2921 -13.2921  -2.1091   3.9176   7.2996   7.2996

          k = 0.5000-0.5000 0.5000 ( 18366 PWs)   bands (ev):

   -13.7515 -13.7515 -13.6872 -13.5931 -13.5931 -13.3998 -13.3998 -13.3725
   -13.2803 -13.2803  -1.0627   1.6343   6.8424   6.8424

          k = 0.0000 0.5000 0.0000 ( 18342 PWs)   bands (ev):

   -13.7426 -13.7426 -13.7185 -13.6064 -13.5568 -13.4705 -13.3759 -13.3077
   -13.2967 -13.2967  -1.8921   3.8036   6.3555   6.3555

          k = 0.7500-0.2500 0.7500 ( 18350 PWs)   bands (ev):

   -13.7814 -13.7608 -13.6546 -13.5557 -13.5266 -13.4984 -13.4308 -13.3821
   -13.2683 -13.2472  -0.7148   1.6726   5.0189   6.0384

          k = 0.5000 0.0000 0.5000 ( 18340 PWs)   bands (ev):

   -13.7748 -13.7628 -13.6485 -13.5902 -13.5526 -13.4447 -13.4138 -13.3995
   -13.2645 -13.2575  -1.2021   2.3649   4.9294   6.7737

          k = 0.0000-1.0000 0.0000 ( 18342 PWs)   bands (ev):

   -13.7668 -13.7668 -13.6302 -13.6302 -13.4903 -13.4903 -13.4050 -13.4050
   -13.2592 -13.2592   0.4173   0.4173   5.4839   5.4839

          k =-0.5000-1.0000 0.0000 ( 18316 PWs)   bands (ev):

   -13.7848 -13.7848 -13.5713 -13.5713 -13.4995 -13.4995 -13.4542 -13.4542
   -13.2417 -13.2417   0.4776   0.4776   4.8996   4.8996

     highest occupied level (ev):     8.0625

!    total energy              =    -325.62991636 Ry
     estimated scf accuracy    <       0.00000004 Ry

     The total energy is the sum of the following terms:
     one-electron contribution =    -150.99469614 Ry
     hartree contribution      =      93.25821796 Ry
     xc contribution           =     -95.23400782 Ry
     ewald contribution        =    -172.65943036 Ry

     convergence has been achieved in   6 iterations

     Writing all to output data dir ./alpha-sn-scf/alphatin.save/ :
     XML data file, charge density, pseudopotentials, collected wavefunctions

     init_run     :      0.73s CPU      0.79s WALL (       1 calls)
     electrons    :      0.67s CPU      0.75s WALL (       1 calls)

     Called by init_run:
     wfcinit      :      0.04s CPU      0.05s WALL (       1 calls)
     potinit      :      0.02s CPU      0.04s WALL (       1 calls)
     hinit0       :      0.59s CPU      0.60s WALL (       1 calls)

     Called by electrons:
     c_bands      :      0.36s CPU      0.37s WALL (       7 calls)
     sum_band     :      0.15s CPU      0.16s WALL (       7 calls)
     v_of_rho     :      0.10s CPU      0.12s WALL (       7 calls)
     newd         :      0.04s CPU      0.05s WALL (       7 calls)
     mix_rho      :      0.01s CPU      0.01s WALL (       7 calls)

     Called by c_bands:
     init_us_2    :      0.01s CPU      0.01s WALL (      30 calls)
     cegterg      :      0.33s CPU      0.34s WALL (      14 calls)

     Called by *egterg:
     cdiaghg      :      0.02s CPU      0.02s WALL (      52 calls)
     h_psi        :      0.32s CPU      0.33s WALL (      56 calls)
     s_psi        :      0.01s CPU      0.01s WALL (      56 calls)
     g_psi        :      0.00s CPU      0.00s WALL (      40 calls)

     Called by h_psi:
     h_psi:calbec :      0.01s CPU      0.01s WALL (      56 calls)
     vloc_psi     :      0.30s CPU      0.31s WALL (      56 calls)
     add_vuspsi   :      0.01s CPU      0.01s WALL (      56 calls)

     General routines
     calbec       :      0.01s CPU      0.01s WALL (      70 calls)
     fft          :      0.58s CPU      0.59s WALL (      78 calls)
     ffts         :      0.00s CPU      0.00s WALL (       7 calls)
     fftw         :      0.32s CPU      0.33s WALL (    1196 calls)

     Parallel routines

     PWSCF        :      3.97s CPU      4.30s WALL


   This run was terminated on:  16: 1:45   5Feb2026            

=------------------------------------------------------------------------------=
   JOB DONE.
=------------------------------------------------------------------------------=
