
     Program PWSCF v.7.3.1 starts on  5Feb2026 at 16: 2:24 

     This program is part of the open-source Quantum ESPRESSO suite
     for quantum simulation of materials; please cite
         "P. Giannozzi et al., J. Phys.:Condens. Matter 21 395502 (2009);
         "P. Giannozzi et al., J. Phys.:Condens. Matter 29 465901 (2017);
         "P. Giannozzi et al., J. Chem. Phys. 152 154105 (2020);
          URL http://www.quantum-espresso.org", 
     in publications or presentations arising from this work. More details at
     http://www.quantum-espresso.org/quote

     Parallel version (MPI), running on   128 processors

     MPI processes distributed on     1 nodes
     242280 MiB available memory on the printing compute node when the environment starts

     Waiting for input...
     Reading input from standard input
     Message from routine read_cards :
     DEPRECATED: no units specified in ATOMIC_POSITIONS card
     Message from routine read_cards :
     ATOMIC_POSITIONS: units set to alat

     Current dimensions of program PWSCF are:
     Max number of different atomic species (ntypx) = 10
     Max number of k-points (npk) =  40000
     Max angular momentum in pseudopotentials (lmaxx) =  4

     K-points division:     npool     =       4
     R & G space division:  proc/nbgrp/npool/nimage =      32
     Subspace diagonalization in iterative solution of the eigenvalue problem:
     a serial algorithm will be used


     Parallelization info
     --------------------
     sticks:   dense  smooth     PW     G-vecs:    dense   smooth      PW
     Min         119     119     32                 4884     4884     692
     Max         120     120     33                 4887     4887     697
     Sum        3829    3829   1039               156325   156325   22219

     Using Slab Decomposition



     bravais-lattice index     =            2
     lattice parameter (alat)  =      12.2300  a.u.
     unit-cell volume          =     457.3191 (a.u.)^3
     number of atoms/cell      =            2
     number of atomic types    =            1
     number of electrons       =        28.00
     number of Kohn-Sham states=           14
     kinetic-energy cutoff     =     186.0000  Ry
     charge density cutoff     =     744.0000  Ry
     scf convergence threshold =      1.0E-07
     mixing beta               =       0.7000
     number of iterations used =            8  plain     mixing
     Exchange-correlation=  SLA  PW   GGX  GGC
                           (   1   4   2   2   0   0   0)

     celldm(1)=  12.230000  celldm(2)=   0.000000  celldm(3)=   0.000000
     celldm(4)=   0.000000  celldm(5)=   0.000000  celldm(6)=   0.000000

     crystal axes: (cart. coord. in units of alat)
               a(1) = (  -0.500000   0.000000   0.500000 )  
               a(2) = (   0.000000   0.500000   0.500000 )  
               a(3) = (  -0.500000   0.500000   0.000000 )  

     reciprocal axes: (cart. coord. in units 2 pi/alat)
               b(1) = ( -1.000000 -1.000000  1.000000 )  
               b(2) = (  1.000000  1.000000  1.000000 )  
               b(3) = ( -1.000000  1.000000 -1.000000 )  


     PseudoPot. # 1 for Sn read from file:
     ./Sn.pw91-n-van.UPF
     MD5 check sum: a38d2a872edd1a4efd76c0a1a38f7031
     Pseudo is Ultrasoft + core correction, Zval = 14.0
     Generated by new atomic code, or converted to UPF format
     Using radial grid of  891 points,  6 beta functions with: 
                l(1) =   0
                l(2) =   0
                l(3) =   1
                l(4) =   1
                l(5) =   2
                l(6) =   2
     Q(r) pseudized with  8 coefficients,  rinner =    1.100   1.100   1.100
                                                       1.100   1.100

     atomic species   valence    mass     pseudopotential
     Sn               14.00   118.70000     Sn( 1.00)

     48 Sym. Ops., with inversion, found (24 have fractional translation)



   Cartesian axes

     site n.     atom                  positions (alat units)
         1        Sn     tau(   1) = (   0.0000000   0.0000000   0.0000000  )
         2        Sn     tau(   2) = (   0.2500000   0.2500000   0.2500000  )

     number of k points=     8
                       cart. coord. in units 2pi/alat
        k(    1) = (   0.0000000   0.0000000   0.0000000), wk =   0.0312500
        k(    2) = (  -0.2500000   0.2500000  -0.2500000), wk =   0.2500000
        k(    3) = (   0.5000000  -0.5000000   0.5000000), wk =   0.1250000
        k(    4) = (   0.0000000   0.5000000   0.0000000), wk =   0.1875000
        k(    5) = (   0.7500000  -0.2500000   0.7500000), wk =   0.7500000
        k(    6) = (   0.5000000   0.0000000   0.5000000), wk =   0.3750000
        k(    7) = (   0.0000000  -1.0000000   0.0000000), wk =   0.0937500
        k(    8) = (  -0.5000000  -1.0000000   0.0000000), wk =   0.1875000

     Dense  grid:   156325 G-vectors     FFT dimensions: (  80,  80,  80)

     Estimated max dynamical RAM per process >       9.82 MB

     Estimated total dynamical RAM >       1.12 GB

     Initial potential from superposition of free atoms

     starting charge      27.9964, renormalised to      28.0000
     Starting wfcs are   18 randomized atomic wfcs

     total cpu time spent up to now is        1.1 secs

     per-process dynamical memory:    15.9 Mb

     Self-consistent Calculation

     iteration #  1     ecut=   186.00 Ry     beta= 0.70
     Davidson diagonalization with overlap
     ethr =  1.00E-02,  avg # of iterations =  2.0

     Threshold (ethr) on eigenvalues was too large:
     Diagonalizing with lowered threshold

     Davidson diagonalization with overlap
     ethr =  8.54E-05,  avg # of iterations =  2.0

     total cpu time spent up to now is        1.3 secs

     total energy              =    -325.62500965 Ry
     estimated scf accuracy    <       0.02810766 Ry

     iteration #  2     ecut=   186.00 Ry     beta= 0.70
     Davidson diagonalization with overlap
     ethr =  1.00E-04,  avg # of iterations =  1.9

     total cpu time spent up to now is        1.5 secs

     total energy              =    -325.63100072 Ry
     estimated scf accuracy    <       0.00184778 Ry

     iteration #  3     ecut=   186.00 Ry     beta= 0.70
     Davidson diagonalization with overlap
     ethr =  6.60E-06,  avg # of iterations =  2.4

     negative rho (up, down):  1.060E-07 0.000E+00

     total cpu time spent up to now is        1.6 secs

     total energy              =    -325.63127476 Ry
     estimated scf accuracy    <       0.00007973 Ry

     iteration #  4     ecut=   186.00 Ry     beta= 0.70
     Davidson diagonalization with overlap
     ethr =  2.85E-07,  avg # of iterations =  3.1

     negative rho (up, down):  1.213E-06 0.000E+00

     total cpu time spent up to now is        1.7 secs

     total energy              =    -325.63130826 Ry
     estimated scf accuracy    <       0.00000657 Ry

     iteration #  5     ecut=   186.00 Ry     beta= 0.70
     Davidson diagonalization with overlap
     ethr =  2.35E-08,  avg # of iterations =  3.2

     negative rho (up, down):  1.135E-06 0.000E+00

     total cpu time spent up to now is        1.8 secs

     total energy              =    -325.63130942 Ry
     estimated scf accuracy    <       0.00000149 Ry

     iteration #  6     ecut=   186.00 Ry     beta= 0.70
     Davidson diagonalization with overlap
     ethr =  5.34E-09,  avg # of iterations =  2.0

     negative rho (up, down):  1.100E-06 0.000E+00

     total cpu time spent up to now is        1.9 secs

     End of self-consistent calculation

          k = 0.0000 0.0000 0.0000 ( 19603 PWs)   bands (ev):

   -13.7153 -13.7153 -13.7153 -13.6560 -13.6560 -13.3387 -13.3387 -13.3387
   -13.3300 -13.3300  -2.7013   7.3357   8.0623   8.0623

          k =-0.2500 0.2500-0.2500 ( 19600 PWs)   bands (ev):

   -13.7415 -13.7415 -13.7021 -13.6153 -13.6153 -13.3843 -13.3843 -13.3555
   -13.2928 -13.2928  -2.1092   3.9175   7.2994   7.2994

          k = 0.5000-0.5000 0.5000 ( 19524 PWs)   bands (ev):

   -13.7522 -13.7522 -13.6881 -13.5940 -13.5940 -13.4005 -13.4005 -13.3732
   -13.2810 -13.2810  -1.0629   1.6342   6.8423   6.8423

          k = 0.0000 0.5000 0.0000 ( 19587 PWs)   bands (ev):

   -13.7434 -13.7434 -13.7192 -13.6074 -13.5576 -13.4712 -13.3768 -13.3086
   -13.2974 -13.2974  -1.8923   3.8035   6.3554   6.3554

          k = 0.7500-0.2500 0.7500 ( 19605 PWs)   bands (ev):

   -13.7822 -13.7616 -13.6554 -13.5566 -13.5274 -13.4992 -13.4316 -13.3830
   -13.2691 -13.2480  -0.7149   1.6724   5.0189   6.0382

          k = 0.5000 0.0000 0.5000 ( 19555 PWs)   bands (ev):

   -13.7756 -13.7636 -13.6493 -13.5911 -13.5533 -13.4455 -13.4145 -13.4003
   -13.2652 -13.2583  -1.2023   2.3648   4.9293   6.7736

          k = 0.0000-1.0000 0.0000 ( 19542 PWs)   bands (ev):

   -13.7676 -13.7676 -13.6310 -13.6310 -13.4911 -13.4911 -13.4058 -13.4058
   -13.2599 -13.2599   0.4172   0.4172   5.4838   5.4838

          k =-0.5000-1.0000 0.0000 ( 19624 PWs)   bands (ev):

   -13.7857 -13.7857 -13.5721 -13.5721 -13.5004 -13.5004 -13.4550 -13.4550
   -13.2425 -13.2425   0.4775   0.4775   4.8995   4.8995

     highest occupied level (ev):     8.0623

!    total energy              =    -325.63130951 Ry
     estimated scf accuracy    <       0.00000007 Ry

     The total energy is the sum of the following terms:
     one-electron contribution =    -150.99704799 Ry
     hartree contribution      =      93.25945344 Ry
     xc contribution           =     -95.23428461 Ry
     ewald contribution        =    -172.65943036 Ry

     convergence has been achieved in   6 iterations

     Writing all to output data dir ./alpha-sn-scf/alphatin.save/ :
     XML data file, charge density, pseudopotentials, collected wavefunctions

     init_run     :      0.72s CPU      0.81s WALL (       1 calls)
     electrons    :      0.74s CPU      0.86s WALL (       1 calls)

     Called by init_run:
     wfcinit      :      0.04s CPU      0.05s WALL (       1 calls)
     potinit      :      0.03s CPU      0.04s WALL (       1 calls)
     hinit0       :      0.58s CPU      0.60s WALL (       1 calls)

     Called by electrons:
     c_bands      :      0.39s CPU      0.42s WALL (       7 calls)
     sum_band     :      0.16s CPU      0.18s WALL (       7 calls)
     v_of_rho     :      0.11s CPU      0.12s WALL (       7 calls)
     newd         :      0.05s CPU      0.06s WALL (       7 calls)
     mix_rho      :      0.01s CPU      0.01s WALL (       7 calls)

     Called by c_bands:
     init_us_2    :      0.01s CPU      0.01s WALL (      30 calls)
     cegterg      :      0.34s CPU      0.35s WALL (      14 calls)

     Called by *egterg:
     cdiaghg      :      0.02s CPU      0.02s WALL (      49 calls)
     h_psi        :      0.32s CPU      0.33s WALL (      53 calls)
     s_psi        :      0.01s CPU      0.01s WALL (      53 calls)
     g_psi        :      0.00s CPU      0.00s WALL (      37 calls)

     Called by h_psi:
     h_psi:calbec :      0.01s CPU      0.01s WALL (      53 calls)
     vloc_psi     :      0.30s CPU      0.31s WALL (      53 calls)
     add_vuspsi   :      0.01s CPU      0.01s WALL (      53 calls)

     General routines
     calbec       :      0.01s CPU      0.01s WALL (      67 calls)
     fft          :      0.59s CPU      0.60s WALL (      78 calls)
     ffts         :      0.00s CPU      0.00s WALL (       7 calls)
     fftw         :      0.32s CPU      0.33s WALL (    1198 calls)

     Parallel routines

     PWSCF        :      1.72s CPU      2.13s WALL


   This run was terminated on:  16: 2:26   5Feb2026            

=------------------------------------------------------------------------------=
   JOB DONE.
=------------------------------------------------------------------------------=
