
     Program PWSCF v.7.3.1 starts on  5Feb2026 at 16: 2:35 

     This program is part of the open-source Quantum ESPRESSO suite
     for quantum simulation of materials; please cite
         "P. Giannozzi et al., J. Phys.:Condens. Matter 21 395502 (2009);
         "P. Giannozzi et al., J. Phys.:Condens. Matter 29 465901 (2017);
         "P. Giannozzi et al., J. Chem. Phys. 152 154105 (2020);
          URL http://www.quantum-espresso.org", 
     in publications or presentations arising from this work. More details at
     http://www.quantum-espresso.org/quote

     Parallel version (MPI), running on   128 processors

     MPI processes distributed on     1 nodes
     242425 MiB available memory on the printing compute node when the environment starts

     Waiting for input...
     Reading input from standard input
     Message from routine read_cards :
     DEPRECATED: no units specified in ATOMIC_POSITIONS card
     Message from routine read_cards :
     ATOMIC_POSITIONS: units set to alat

     Current dimensions of program PWSCF are:
     Max number of different atomic species (ntypx) = 10
     Max number of k-points (npk) =  40000
     Max angular momentum in pseudopotentials (lmaxx) =  4

     K-points division:     npool     =       4
     R & G space division:  proc/nbgrp/npool/nimage =      32
     Subspace diagonalization in iterative solution of the eigenvalue problem:
     a serial algorithm will be used


     Parallelization info
     --------------------
     sticks:   dense  smooth     PW     G-vecs:    dense   smooth      PW
     Min         120     120     32                 4971     4971     698
     Max         121     121     33                 4976     4976     704
     Sum        3865    3865   1045               159181   159181   22419

     Using Slab Decomposition



     bravais-lattice index     =            2
     lattice parameter (alat)  =      12.2300  a.u.
     unit-cell volume          =     457.3191 (a.u.)^3
     number of atoms/cell      =            2
     number of atomic types    =            1
     number of electrons       =        28.00
     number of Kohn-Sham states=           14
     kinetic-energy cutoff     =     188.0000  Ry
     charge density cutoff     =     752.0000  Ry
     scf convergence threshold =      1.0E-07
     mixing beta               =       0.7000
     number of iterations used =            8  plain     mixing
     Exchange-correlation=  SLA  PW   GGX  GGC
                           (   1   4   2   2   0   0   0)

     celldm(1)=  12.230000  celldm(2)=   0.000000  celldm(3)=   0.000000
     celldm(4)=   0.000000  celldm(5)=   0.000000  celldm(6)=   0.000000

     crystal axes: (cart. coord. in units of alat)
               a(1) = (  -0.500000   0.000000   0.500000 )  
               a(2) = (   0.000000   0.500000   0.500000 )  
               a(3) = (  -0.500000   0.500000   0.000000 )  

     reciprocal axes: (cart. coord. in units 2 pi/alat)
               b(1) = ( -1.000000 -1.000000  1.000000 )  
               b(2) = (  1.000000  1.000000  1.000000 )  
               b(3) = ( -1.000000  1.000000 -1.000000 )  


     PseudoPot. # 1 for Sn read from file:
     ./Sn.pw91-n-van.UPF
     MD5 check sum: a38d2a872edd1a4efd76c0a1a38f7031
     Pseudo is Ultrasoft + core correction, Zval = 14.0
     Generated by new atomic code, or converted to UPF format
     Using radial grid of  891 points,  6 beta functions with: 
                l(1) =   0
                l(2) =   0
                l(3) =   1
                l(4) =   1
                l(5) =   2
                l(6) =   2
     Q(r) pseudized with  8 coefficients,  rinner =    1.100   1.100   1.100
                                                       1.100   1.100

     atomic species   valence    mass     pseudopotential
     Sn               14.00   118.70000     Sn( 1.00)

     48 Sym. Ops., with inversion, found (24 have fractional translation)



   Cartesian axes

     site n.     atom                  positions (alat units)
         1        Sn     tau(   1) = (   0.0000000   0.0000000   0.0000000  )
         2        Sn     tau(   2) = (   0.2500000   0.2500000   0.2500000  )

     number of k points=     8
                       cart. coord. in units 2pi/alat
        k(    1) = (   0.0000000   0.0000000   0.0000000), wk =   0.0312500
        k(    2) = (  -0.2500000   0.2500000  -0.2500000), wk =   0.2500000
        k(    3) = (   0.5000000  -0.5000000   0.5000000), wk =   0.1250000
        k(    4) = (   0.0000000   0.5000000   0.0000000), wk =   0.1875000
        k(    5) = (   0.7500000  -0.2500000   0.7500000), wk =   0.7500000
        k(    6) = (   0.5000000   0.0000000   0.5000000), wk =   0.3750000
        k(    7) = (   0.0000000  -1.0000000   0.0000000), wk =   0.0937500
        k(    8) = (  -0.5000000  -1.0000000   0.0000000), wk =   0.1875000

     Dense  grid:   159181 G-vectors     FFT dimensions: (  80,  80,  80)

     Estimated max dynamical RAM per process >       9.95 MB

     Estimated total dynamical RAM >       1.13 GB

     Initial potential from superposition of free atoms

     starting charge      27.9964, renormalised to      28.0000
     Starting wfcs are   18 randomized atomic wfcs

     total cpu time spent up to now is        1.1 secs

     per-process dynamical memory:    16.0 Mb

     Self-consistent Calculation

     iteration #  1     ecut=   188.00 Ry     beta= 0.70
     Davidson diagonalization with overlap
     ethr =  1.00E-02,  avg # of iterations =  2.0

     Threshold (ethr) on eigenvalues was too large:
     Diagonalizing with lowered threshold

     Davidson diagonalization with overlap
     ethr =  8.66E-05,  avg # of iterations =  2.0

     total cpu time spent up to now is        1.4 secs

     total energy              =    -325.62497577 Ry
     estimated scf accuracy    <       0.02800300 Ry

     iteration #  2     ecut=   188.00 Ry     beta= 0.70
     Davidson diagonalization with overlap
     ethr =  1.00E-04,  avg # of iterations =  1.9

     total cpu time spent up to now is        1.5 secs

     total energy              =    -325.63127125 Ry
     estimated scf accuracy    <       0.00187336 Ry

     iteration #  3     ecut=   188.00 Ry     beta= 0.70
     Davidson diagonalization with overlap
     ethr =  6.69E-06,  avg # of iterations =  2.2

     total cpu time spent up to now is        1.6 secs

     total energy              =    -325.63154159 Ry
     estimated scf accuracy    <       0.00007882 Ry

     iteration #  4     ecut=   188.00 Ry     beta= 0.70
     Davidson diagonalization with overlap
     ethr =  2.81E-07,  avg # of iterations =  2.8

     negative rho (up, down):  5.482E-07 0.000E+00

     total cpu time spent up to now is        1.7 secs

     total energy              =    -325.63157571 Ry
     estimated scf accuracy    <       0.00000659 Ry

     iteration #  5     ecut=   188.00 Ry     beta= 0.70
     Davidson diagonalization with overlap
     ethr =  2.35E-08,  avg # of iterations =  3.8

     negative rho (up, down):  4.718E-07 0.000E+00

     total cpu time spent up to now is        1.8 secs

     total energy              =    -325.63157712 Ry
     estimated scf accuracy    <       0.00000150 Ry

     iteration #  6     ecut=   188.00 Ry     beta= 0.70
     Davidson diagonalization with overlap
     ethr =  5.34E-09,  avg # of iterations =  2.4

     negative rho (up, down):  4.468E-07 0.000E+00

     total cpu time spent up to now is        1.9 secs

     End of self-consistent calculation

          k = 0.0000 0.0000 0.0000 ( 19891 PWs)   bands (ev):

   -13.7152 -13.7152 -13.7152 -13.6559 -13.6559 -13.3386 -13.3386 -13.3386
   -13.3300 -13.3300  -2.7012   7.3358   8.0624   8.0624

          k =-0.2500 0.2500-0.2500 ( 19888 PWs)   bands (ev):

   -13.7414 -13.7414 -13.7020 -13.6152 -13.6152 -13.3842 -13.3842 -13.3554
   -13.2927 -13.2927  -2.1092   3.9176   7.2995   7.2995

          k = 0.5000-0.5000 0.5000 ( 19896 PWs)   bands (ev):

   -13.7522 -13.7522 -13.6880 -13.5939 -13.5939 -13.4005 -13.4005 -13.3732
   -13.2810 -13.2810  -1.0628   1.6343   6.8423   6.8423

          k = 0.0000 0.5000 0.0000 ( 19979 PWs)   bands (ev):

   -13.7434 -13.7434 -13.7192 -13.6073 -13.5576 -13.4712 -13.3768 -13.3085
   -13.2974 -13.2974  -1.8922   3.8036   6.3554   6.3554

          k = 0.7500-0.2500 0.7500 ( 19916 PWs)   bands (ev):

   -13.7821 -13.7616 -13.6553 -13.5565 -13.5274 -13.4991 -13.4316 -13.3829
   -13.2690 -13.2479  -0.7148   1.6725   5.0189   6.0383

          k = 0.5000 0.0000 0.5000 ( 19915 PWs)   bands (ev):

   -13.7755 -13.7635 -13.6492 -13.5910 -13.5533 -13.4455 -13.4145 -13.4003
   -13.2652 -13.2582  -1.2022   2.3649   4.9294   6.7736

          k = 0.0000-1.0000 0.0000 ( 19902 PWs)   bands (ev):

   -13.7675 -13.7675 -13.6309 -13.6309 -13.4911 -13.4911 -13.4058 -13.4058
   -13.2599 -13.2599   0.4172   0.4172   5.4839   5.4839

          k =-0.5000-1.0000 0.0000 ( 19908 PWs)   bands (ev):

   -13.7855 -13.7855 -13.5721 -13.5721 -13.5003 -13.5003 -13.4549 -13.4549
   -13.2424 -13.2424   0.4775   0.4775   4.8995   4.8995

     highest occupied level (ev):     8.0624

!    total energy              =    -325.63157722 Ry
     estimated scf accuracy    <       0.00000006 Ry

     The total energy is the sum of the following terms:
     one-electron contribution =    -150.99727323 Ry
     hartree contribution      =      93.25941543 Ry
     xc contribution           =     -95.23428906 Ry
     ewald contribution        =    -172.65943036 Ry

     convergence has been achieved in   6 iterations

     Writing all to output data dir ./alpha-sn-scf/alphatin.save/ :
     XML data file, charge density, pseudopotentials, collected wavefunctions

     init_run     :      0.73s CPU      0.81s WALL (       1 calls)
     electrons    :      0.68s CPU      0.81s WALL (       1 calls)

     Called by init_run:
     wfcinit      :      0.04s CPU      0.05s WALL (       1 calls)
     potinit      :      0.02s CPU      0.04s WALL (       1 calls)
     hinit0       :      0.57s CPU      0.60s WALL (       1 calls)

     Called by electrons:
     c_bands      :      0.37s CPU      0.39s WALL (       7 calls)
     sum_band     :      0.14s CPU      0.17s WALL (       7 calls)
     v_of_rho     :      0.11s CPU      0.13s WALL (       7 calls)
     newd         :      0.05s CPU      0.06s WALL (       7 calls)
     mix_rho      :      0.01s CPU      0.01s WALL (       7 calls)

     Called by c_bands:
     init_us_2    :      0.01s CPU      0.01s WALL (      30 calls)
     cegterg      :      0.34s CPU      0.35s WALL (      14 calls)

     Called by *egterg:
     cdiaghg      :      0.02s CPU      0.02s WALL (      54 calls)
     h_psi        :      0.32s CPU      0.33s WALL (      58 calls)
     s_psi        :      0.01s CPU      0.01s WALL (      58 calls)
     g_psi        :      0.00s CPU      0.00s WALL (      42 calls)

     Called by h_psi:
     h_psi:calbec :      0.01s CPU      0.01s WALL (      58 calls)
     vloc_psi     :      0.30s CPU      0.31s WALL (      58 calls)
     add_vuspsi   :      0.01s CPU      0.01s WALL (      58 calls)

     General routines
     calbec       :      0.01s CPU      0.01s WALL (      72 calls)
     fft          :      0.59s CPU      0.60s WALL (      78 calls)
     ffts         :      0.00s CPU      0.00s WALL (       7 calls)
     fftw         :      0.31s CPU      0.32s WALL (    1204 calls)

     Parallel routines

     PWSCF        :      1.79s CPU      2.24s WALL


   This run was terminated on:  16: 2:37   5Feb2026            

=------------------------------------------------------------------------------=
   JOB DONE.
=------------------------------------------------------------------------------=
