
     Program PWSCF v.7.3.1 starts on  5Feb2026 at 16: 3:21 

     This program is part of the open-source Quantum ESPRESSO suite
     for quantum simulation of materials; please cite
         "P. Giannozzi et al., J. Phys.:Condens. Matter 21 395502 (2009);
         "P. Giannozzi et al., J. Phys.:Condens. Matter 29 465901 (2017);
         "P. Giannozzi et al., J. Chem. Phys. 152 154105 (2020);
          URL http://www.quantum-espresso.org", 
     in publications or presentations arising from this work. More details at
     http://www.quantum-espresso.org/quote

     Parallel version (MPI), running on   128 processors

     MPI processes distributed on     1 nodes
     242304 MiB available memory on the printing compute node when the environment starts

     Waiting for input...
     Reading input from standard input
     Message from routine read_cards :
     DEPRECATED: no units specified in ATOMIC_POSITIONS card
     Message from routine read_cards :
     ATOMIC_POSITIONS: units set to alat

     Current dimensions of program PWSCF are:
     Max number of different atomic species (ntypx) = 10
     Max number of k-points (npk) =  40000
     Max angular momentum in pseudopotentials (lmaxx) =  4

     K-points division:     npool     =       4
     R & G space division:  proc/nbgrp/npool/nimage =      32
     Subspace diagonalization in iterative solution of the eigenvalue problem:
     a serial algorithm will be used


     Parallelization info
     --------------------
     sticks:   dense  smooth     PW     G-vecs:    dense   smooth      PW
     Min         125     125     33                 5232     5232     732
     Max         126     126     34                 5235     5235     737
     Sum        4021    4021   1069               167487   167487   23505

     Using Slab Decomposition



     bravais-lattice index     =            2
     lattice parameter (alat)  =      12.2300  a.u.
     unit-cell volume          =     457.3191 (a.u.)^3
     number of atoms/cell      =            2
     number of atomic types    =            1
     number of electrons       =        28.00
     number of Kohn-Sham states=           14
     kinetic-energy cutoff     =     194.0000  Ry
     charge density cutoff     =     776.0000  Ry
     scf convergence threshold =      1.0E-07
     mixing beta               =       0.7000
     number of iterations used =            8  plain     mixing
     Exchange-correlation=  SLA  PW   GGX  GGC
                           (   1   4   2   2   0   0   0)

     celldm(1)=  12.230000  celldm(2)=   0.000000  celldm(3)=   0.000000
     celldm(4)=   0.000000  celldm(5)=   0.000000  celldm(6)=   0.000000

     crystal axes: (cart. coord. in units of alat)
               a(1) = (  -0.500000   0.000000   0.500000 )  
               a(2) = (   0.000000   0.500000   0.500000 )  
               a(3) = (  -0.500000   0.500000   0.000000 )  

     reciprocal axes: (cart. coord. in units 2 pi/alat)
               b(1) = ( -1.000000 -1.000000  1.000000 )  
               b(2) = (  1.000000  1.000000  1.000000 )  
               b(3) = ( -1.000000  1.000000 -1.000000 )  


     PseudoPot. # 1 for Sn read from file:
     ./Sn.pw91-n-van.UPF
     MD5 check sum: a38d2a872edd1a4efd76c0a1a38f7031
     Pseudo is Ultrasoft + core correction, Zval = 14.0
     Generated by new atomic code, or converted to UPF format
     Using radial grid of  891 points,  6 beta functions with: 
                l(1) =   0
                l(2) =   0
                l(3) =   1
                l(4) =   1
                l(5) =   2
                l(6) =   2
     Q(r) pseudized with  8 coefficients,  rinner =    1.100   1.100   1.100
                                                       1.100   1.100

     atomic species   valence    mass     pseudopotential
     Sn               14.00   118.70000     Sn( 1.00)

     48 Sym. Ops., with inversion, found (24 have fractional translation)



   Cartesian axes

     site n.     atom                  positions (alat units)
         1        Sn     tau(   1) = (   0.0000000   0.0000000   0.0000000  )
         2        Sn     tau(   2) = (   0.2500000   0.2500000   0.2500000  )

     number of k points=     8
                       cart. coord. in units 2pi/alat
        k(    1) = (   0.0000000   0.0000000   0.0000000), wk =   0.0312500
        k(    2) = (  -0.2500000   0.2500000  -0.2500000), wk =   0.2500000
        k(    3) = (   0.5000000  -0.5000000   0.5000000), wk =   0.1250000
        k(    4) = (   0.0000000   0.5000000   0.0000000), wk =   0.1875000
        k(    5) = (   0.7500000  -0.2500000   0.7500000), wk =   0.7500000
        k(    6) = (   0.5000000   0.0000000   0.5000000), wk =   0.3750000
        k(    7) = (   0.0000000  -1.0000000   0.0000000), wk =   0.0937500
        k(    8) = (  -0.5000000  -1.0000000   0.0000000), wk =   0.1875000

     Dense  grid:   167487 G-vectors     FFT dimensions: (  80,  80,  80)

     Estimated max dynamical RAM per process >      10.32 MB

     Estimated total dynamical RAM >       1.17 GB

     Initial potential from superposition of free atoms

     starting charge      27.9964, renormalised to      28.0000
     Starting wfcs are   18 randomized atomic wfcs

     total cpu time spent up to now is        1.1 secs

     per-process dynamical memory:    16.2 Mb

     Self-consistent Calculation

     iteration #  1     ecut=   194.00 Ry     beta= 0.70
     Davidson diagonalization with overlap
     ethr =  1.00E-02,  avg # of iterations =  2.0

     Threshold (ethr) on eigenvalues was too large:
     Diagonalizing with lowered threshold

     Davidson diagonalization with overlap
     ethr =  8.37E-05,  avg # of iterations =  2.0

     total cpu time spent up to now is        1.3 secs

     total energy              =    -325.62441053 Ry
     estimated scf accuracy    <       0.02669927 Ry

     iteration #  2     ecut=   194.00 Ry     beta= 0.70
     Davidson diagonalization with overlap
     ethr =  9.54E-05,  avg # of iterations =  2.0

     total cpu time spent up to now is        1.4 secs

     total energy              =    -325.63176326 Ry
     estimated scf accuracy    <       0.00213301 Ry

     iteration #  3     ecut=   194.00 Ry     beta= 0.70
     Davidson diagonalization with overlap
     ethr =  7.62E-06,  avg # of iterations =  2.2

     total cpu time spent up to now is        1.5 secs

     total energy              =    -325.63205151 Ry
     estimated scf accuracy    <       0.00009648 Ry

     iteration #  4     ecut=   194.00 Ry     beta= 0.70
     Davidson diagonalization with overlap
     ethr =  3.45E-07,  avg # of iterations =  3.2

     total cpu time spent up to now is        1.6 secs

     total energy              =    -325.63209026 Ry
     estimated scf accuracy    <       0.00000730 Ry

     iteration #  5     ecut=   194.00 Ry     beta= 0.70
     Davidson diagonalization with overlap
     ethr =  2.61E-08,  avg # of iterations =  3.5

     total cpu time spent up to now is        1.8 secs

     total energy              =    -325.63209252 Ry
     estimated scf accuracy    <       0.00000157 Ry

     iteration #  6     ecut=   194.00 Ry     beta= 0.70
     Davidson diagonalization with overlap
     ethr =  5.61E-09,  avg # of iterations =  2.4

     total cpu time spent up to now is        1.9 secs

     End of self-consistent calculation

          k = 0.0000 0.0000 0.0000 ( 20827 PWs)   bands (ev):

   -13.7153 -13.7153 -13.7153 -13.6561 -13.6561 -13.3387 -13.3387 -13.3387
   -13.3301 -13.3301  -2.7012   7.3358   8.0624   8.0624

          k =-0.2500 0.2500-0.2500 ( 20845 PWs)   bands (ev):

   -13.7416 -13.7416 -13.7021 -13.6154 -13.6154 -13.3844 -13.3844 -13.3556
   -13.2929 -13.2929  -2.1092   3.9175   7.2994   7.2994

          k = 0.5000-0.5000 0.5000 ( 20972 PWs)   bands (ev):

   -13.7523 -13.7523 -13.6882 -13.5942 -13.5942 -13.4007 -13.4007 -13.3733
   -13.2812 -13.2812  -1.0628   1.6342   6.8423   6.8423

          k = 0.0000 0.5000 0.0000 ( 20835 PWs)   bands (ev):

   -13.7435 -13.7435 -13.7193 -13.6074 -13.5578 -13.4713 -13.3770 -13.3087
   -13.2975 -13.2975  -1.8922   3.8035   6.3554   6.3554

          k = 0.7500-0.2500 0.7500 ( 20867 PWs)   bands (ev):

   -13.7822 -13.7617 -13.6555 -13.5567 -13.5275 -13.4993 -13.4318 -13.3831
   -13.2692 -13.2481  -0.7149   1.6725   5.0188   6.0383

          k = 0.5000 0.0000 0.5000 ( 20853 PWs)   bands (ev):

   -13.7756 -13.7637 -13.6494 -13.5912 -13.5535 -13.4457 -13.4146 -13.4005
   -13.2654 -13.2584  -1.2022   2.3649   4.9292   6.7736

          k = 0.0000-1.0000 0.0000 ( 20924 PWs)   bands (ev):

   -13.7677 -13.7677 -13.6311 -13.6311 -13.4913 -13.4913 -13.4059 -13.4059
   -13.2601 -13.2601   0.4172   0.4172   5.4838   5.4838

          k =-0.5000-1.0000 0.0000 ( 20880 PWs)   bands (ev):

   -13.7857 -13.7857 -13.5722 -13.5722 -13.5005 -13.5005 -13.4551 -13.4551
   -13.2426 -13.2426   0.4775   0.4775   4.8994   4.8994

     highest occupied level (ev):     8.0624

!    total energy              =    -325.63209264 Ry
     estimated scf accuracy    <       0.00000006 Ry

     The total energy is the sum of the following terms:
     one-electron contribution =    -150.99786500 Ry
     hartree contribution      =      93.25952743 Ry
     xc contribution           =     -95.23432471 Ry
     ewald contribution        =    -172.65943036 Ry

     convergence has been achieved in   6 iterations

     Writing all to output data dir ./alpha-sn-scf/alphatin.save/ :
     XML data file, charge density, pseudopotentials, collected wavefunctions

     init_run     :      0.76s CPU      0.81s WALL (       1 calls)
     electrons    :      0.70s CPU      0.87s WALL (       1 calls)

     Called by init_run:
     wfcinit      :      0.03s CPU      0.05s WALL (       1 calls)
     potinit      :      0.03s CPU      0.04s WALL (       1 calls)
     hinit0       :      0.58s CPU      0.59s WALL (       1 calls)

     Called by electrons:
     c_bands      :      0.38s CPU      0.40s WALL (       7 calls)
     sum_band     :      0.16s CPU      0.17s WALL (       7 calls)
     v_of_rho     :      0.11s CPU      0.12s WALL (       7 calls)
     newd         :      0.05s CPU      0.06s WALL (       7 calls)
     mix_rho      :      0.01s CPU      0.01s WALL (       7 calls)

     Called by c_bands:
     init_us_2    :      0.01s CPU      0.01s WALL (      30 calls)
     cegterg      :      0.36s CPU      0.37s WALL (      14 calls)

     Called by *egterg:
     cdiaghg      :      0.02s CPU      0.02s WALL (      54 calls)
     h_psi        :      0.33s CPU      0.34s WALL (      58 calls)
     s_psi        :      0.01s CPU      0.01s WALL (      58 calls)
     g_psi        :      0.00s CPU      0.00s WALL (      42 calls)

     Called by h_psi:
     h_psi:calbec :      0.01s CPU      0.01s WALL (      58 calls)
     vloc_psi     :      0.31s CPU      0.32s WALL (      58 calls)
     add_vuspsi   :      0.01s CPU      0.01s WALL (      58 calls)

     General routines
     calbec       :      0.01s CPU      0.01s WALL (      72 calls)
     fft          :      0.59s CPU      0.59s WALL (      78 calls)
     ffts         :      0.00s CPU      0.00s WALL (       7 calls)
     fftw         :      0.33s CPU      0.34s WALL (    1222 calls)

     Parallel routines

     PWSCF        :      1.74s CPU      2.17s WALL


   This run was terminated on:  16: 3:23   5Feb2026            

=------------------------------------------------------------------------------=
   JOB DONE.
=------------------------------------------------------------------------------=
