
     Program PWSCF v.7.3.1 starts on  5Feb2026 at 16: 3:48 

     This program is part of the open-source Quantum ESPRESSO suite
     for quantum simulation of materials; please cite
         "P. Giannozzi et al., J. Phys.:Condens. Matter 21 395502 (2009);
         "P. Giannozzi et al., J. Phys.:Condens. Matter 29 465901 (2017);
         "P. Giannozzi et al., J. Chem. Phys. 152 154105 (2020);
          URL http://www.quantum-espresso.org", 
     in publications or presentations arising from this work. More details at
     http://www.quantum-espresso.org/quote

     Parallel version (MPI), running on   128 processors

     MPI processes distributed on     1 nodes
     242446 MiB available memory on the printing compute node when the environment starts

     Waiting for input...
     Reading input from standard input
     Message from routine read_cards :
     DEPRECATED: no units specified in ATOMIC_POSITIONS card
     Message from routine read_cards :
     ATOMIC_POSITIONS: units set to alat

     Current dimensions of program PWSCF are:
     Max number of different atomic species (ntypx) = 10
     Max number of k-points (npk) =  40000
     Max angular momentum in pseudopotentials (lmaxx) =  4

     K-points division:     npool     =       4
     R & G space division:  proc/nbgrp/npool/nimage =      32
     Subspace diagonalization in iterative solution of the eigenvalue problem:
     a serial algorithm will be used


     Parallelization info
     --------------------
     sticks:   dense  smooth     PW     G-vecs:    dense   smooth      PW
     Min         127     127     34                 5385     5385     759
     Max         128     128     35                 5390     5390     761
     Sum        4081    4081   1111               172383   172383   24309

     Using Slab Decomposition



     bravais-lattice index     =            2
     lattice parameter (alat)  =      12.2300  a.u.
     unit-cell volume          =     457.3191 (a.u.)^3
     number of atoms/cell      =            2
     number of atomic types    =            1
     number of electrons       =        28.00
     number of Kohn-Sham states=           14
     kinetic-energy cutoff     =     198.0000  Ry
     charge density cutoff     =     792.0000  Ry
     scf convergence threshold =      1.0E-07
     mixing beta               =       0.7000
     number of iterations used =            8  plain     mixing
     Exchange-correlation=  SLA  PW   GGX  GGC
                           (   1   4   2   2   0   0   0)

     celldm(1)=  12.230000  celldm(2)=   0.000000  celldm(3)=   0.000000
     celldm(4)=   0.000000  celldm(5)=   0.000000  celldm(6)=   0.000000

     crystal axes: (cart. coord. in units of alat)
               a(1) = (  -0.500000   0.000000   0.500000 )  
               a(2) = (   0.000000   0.500000   0.500000 )  
               a(3) = (  -0.500000   0.500000   0.000000 )  

     reciprocal axes: (cart. coord. in units 2 pi/alat)
               b(1) = ( -1.000000 -1.000000  1.000000 )  
               b(2) = (  1.000000  1.000000  1.000000 )  
               b(3) = ( -1.000000  1.000000 -1.000000 )  


     PseudoPot. # 1 for Sn read from file:
     ./Sn.pw91-n-van.UPF
     MD5 check sum: a38d2a872edd1a4efd76c0a1a38f7031
     Pseudo is Ultrasoft + core correction, Zval = 14.0
     Generated by new atomic code, or converted to UPF format
     Using radial grid of  891 points,  6 beta functions with: 
                l(1) =   0
                l(2) =   0
                l(3) =   1
                l(4) =   1
                l(5) =   2
                l(6) =   2
     Q(r) pseudized with  8 coefficients,  rinner =    1.100   1.100   1.100
                                                       1.100   1.100

     atomic species   valence    mass     pseudopotential
     Sn               14.00   118.70000     Sn( 1.00)

     48 Sym. Ops., with inversion, found (24 have fractional translation)



   Cartesian axes

     site n.     atom                  positions (alat units)
         1        Sn     tau(   1) = (   0.0000000   0.0000000   0.0000000  )
         2        Sn     tau(   2) = (   0.2500000   0.2500000   0.2500000  )

     number of k points=     8
                       cart. coord. in units 2pi/alat
        k(    1) = (   0.0000000   0.0000000   0.0000000), wk =   0.0312500
        k(    2) = (  -0.2500000   0.2500000  -0.2500000), wk =   0.2500000
        k(    3) = (   0.5000000  -0.5000000   0.5000000), wk =   0.1250000
        k(    4) = (   0.0000000   0.5000000   0.0000000), wk =   0.1875000
        k(    5) = (   0.7500000  -0.2500000   0.7500000), wk =   0.7500000
        k(    6) = (   0.5000000   0.0000000   0.5000000), wk =   0.3750000
        k(    7) = (   0.0000000  -1.0000000   0.0000000), wk =   0.0937500
        k(    8) = (  -0.5000000  -1.0000000   0.0000000), wk =   0.1875000

     Dense  grid:   172383 G-vectors     FFT dimensions: (  80,  80,  80)

     Estimated max dynamical RAM per process >      10.54 MB

     Estimated total dynamical RAM >       1.19 GB

     Initial potential from superposition of free atoms

     starting charge      27.9964, renormalised to      28.0000
     Starting wfcs are   18 randomized atomic wfcs

     total cpu time spent up to now is        1.1 secs

     per-process dynamical memory:    16.1 Mb

     Self-consistent Calculation

     iteration #  1     ecut=   198.00 Ry     beta= 0.70
     Davidson diagonalization with overlap
     ethr =  1.00E-02,  avg # of iterations =  2.0

     Threshold (ethr) on eigenvalues was too large:
     Diagonalizing with lowered threshold

     Davidson diagonalization with overlap
     ethr =  8.27E-05,  avg # of iterations =  2.1

     total cpu time spent up to now is        1.3 secs

     total energy              =    -325.62409039 Ry
     estimated scf accuracy    <       0.02658898 Ry

     iteration #  2     ecut=   198.00 Ry     beta= 0.70
     Davidson diagonalization with overlap
     ethr =  9.50E-05,  avg # of iterations =  2.0

     total cpu time spent up to now is        1.4 secs

     total energy              =    -325.63191641 Ry
     estimated scf accuracy    <       0.00217977 Ry

     iteration #  3     ecut=   198.00 Ry     beta= 0.70
     Davidson diagonalization with overlap
     ethr =  7.78E-06,  avg # of iterations =  2.2

     total cpu time spent up to now is        1.5 secs

     total energy              =    -325.63220815 Ry
     estimated scf accuracy    <       0.00010401 Ry

     iteration #  4     ecut=   198.00 Ry     beta= 0.70
     Davidson diagonalization with overlap
     ethr =  3.71E-07,  avg # of iterations =  3.2

     total cpu time spent up to now is        1.7 secs

     total energy              =    -325.63225149 Ry
     estimated scf accuracy    <       0.00000744 Ry

     iteration #  5     ecut=   198.00 Ry     beta= 0.70
     Davidson diagonalization with overlap
     ethr =  2.66E-08,  avg # of iterations =  4.0

     total cpu time spent up to now is        1.8 secs

     total energy              =    -325.63225349 Ry
     estimated scf accuracy    <       0.00000135 Ry

     iteration #  6     ecut=   198.00 Ry     beta= 0.70
     Davidson diagonalization with overlap
     ethr =  4.80E-09,  avg # of iterations =  2.2

     total cpu time spent up to now is        1.9 secs

     End of self-consistent calculation

          k = 0.0000 0.0000 0.0000 ( 21595 PWs)   bands (ev):

   -13.7152 -13.7152 -13.7152 -13.6561 -13.6561 -13.3387 -13.3387 -13.3387
   -13.3301 -13.3301  -2.7012   7.3359   8.0624   8.0624

          k =-0.2500 0.2500-0.2500 ( 21515 PWs)   bands (ev):

   -13.7415 -13.7415 -13.7020 -13.6153 -13.6153 -13.3844 -13.3844 -13.3555
   -13.2929 -13.2929  -2.1092   3.9176   7.2995   7.2995

          k = 0.5000-0.5000 0.5000 ( 21494 PWs)   bands (ev):

   -13.7522 -13.7522 -13.6881 -13.5941 -13.5941 -13.4006 -13.4006 -13.3733
   -13.2811 -13.2811  -1.0627   1.6342   6.8424   6.8424

          k = 0.0000 0.5000 0.0000 ( 21467 PWs)   bands (ev):

   -13.7434 -13.7434 -13.7193 -13.6074 -13.5577 -13.4713 -13.3769 -13.3086
   -13.2975 -13.2975  -1.8922   3.8036   6.3554   6.3554

          k = 0.7500-0.2500 0.7500 ( 21493 PWs)   bands (ev):

   -13.7822 -13.7616 -13.6554 -13.5566 -13.5275 -13.4993 -13.4317 -13.3830
   -13.2691 -13.2480  -0.7148   1.6725   5.0188   6.0383

          k = 0.5000 0.0000 0.5000 ( 21497 PWs)   bands (ev):

   -13.7756 -13.7636 -13.6493 -13.5911 -13.5535 -13.4456 -13.4146 -13.4004
   -13.2653 -13.2583  -1.2022   2.3649   4.9292   6.7737

          k = 0.0000-1.0000 0.0000 ( 21604 PWs)   bands (ev):

   -13.7676 -13.7676 -13.6310 -13.6310 -13.4912 -13.4912 -13.4059 -13.4059
   -13.2601 -13.2601   0.4173   0.4173   5.4838   5.4838

          k =-0.5000-1.0000 0.0000 ( 21516 PWs)   bands (ev):

   -13.7856 -13.7856 -13.5721 -13.5721 -13.5005 -13.5005 -13.4551 -13.4551
   -13.2425 -13.2425   0.4776   0.4776   4.8994   4.8994

     highest occupied level (ev):     8.0624

!    total energy              =    -325.63225360 Ry
     estimated scf accuracy    <       0.00000004 Ry

     The total energy is the sum of the following terms:
     one-electron contribution =    -150.99792429 Ry
     hartree contribution      =      93.25941144 Ry
     xc contribution           =     -95.23431039 Ry
     ewald contribution        =    -172.65943036 Ry

     convergence has been achieved in   6 iterations

     Writing all to output data dir ./alpha-sn-scf/alphatin.save/ :
     XML data file, charge density, pseudopotentials, collected wavefunctions

     init_run     :      0.75s CPU      0.82s WALL (       1 calls)
     electrons    :      0.71s CPU      0.82s WALL (       1 calls)

     Called by init_run:
     wfcinit      :      0.03s CPU      0.05s WALL (       1 calls)
     potinit      :      0.02s CPU      0.04s WALL (       1 calls)
     hinit0       :      0.59s CPU      0.59s WALL (       1 calls)

     Called by electrons:
     c_bands      :      0.37s CPU      0.40s WALL (       7 calls)
     sum_band     :      0.15s CPU      0.17s WALL (       7 calls)
     v_of_rho     :      0.11s CPU      0.13s WALL (       7 calls)
     newd         :      0.05s CPU      0.06s WALL (       7 calls)
     mix_rho      :      0.01s CPU      0.01s WALL (       7 calls)

     Called by c_bands:
     init_us_2    :      0.01s CPU      0.01s WALL (      30 calls)
     cegterg      :      0.35s CPU      0.37s WALL (      14 calls)

     Called by *egterg:
     cdiaghg      :      0.02s CPU      0.02s WALL (      57 calls)
     h_psi        :      0.32s CPU      0.35s WALL (      61 calls)
     s_psi        :      0.01s CPU      0.01s WALL (      61 calls)
     g_psi        :      0.00s CPU      0.00s WALL (      45 calls)

     Called by h_psi:
     h_psi:calbec :      0.01s CPU      0.01s WALL (      61 calls)
     vloc_psi     :      0.30s CPU      0.32s WALL (      61 calls)
     add_vuspsi   :      0.01s CPU      0.01s WALL (      61 calls)

     General routines
     calbec       :      0.01s CPU      0.01s WALL (      75 calls)
     fft          :      0.60s CPU      0.60s WALL (      78 calls)
     ffts         :      0.00s CPU      0.00s WALL (       7 calls)
     fftw         :      0.31s CPU      0.34s WALL (    1222 calls)

     Parallel routines

     PWSCF        :      1.73s CPU      2.28s WALL


   This run was terminated on:  16: 3:50   5Feb2026            

=------------------------------------------------------------------------------=
   JOB DONE.
=------------------------------------------------------------------------------=
