
     Program PWSCF v.7.3.1 starts on  4Feb2026 at 11:36:25 

     This program is part of the open-source Quantum ESPRESSO suite
     for quantum simulation of materials; please cite
         "P. Giannozzi et al., J. Phys.:Condens. Matter 21 395502 (2009);
         "P. Giannozzi et al., J. Phys.:Condens. Matter 29 465901 (2017);
         "P. Giannozzi et al., J. Chem. Phys. 152 154105 (2020);
          URL http://www.quantum-espresso.org", 
     in publications or presentations arising from this work. More details at
     http://www.quantum-espresso.org/quote

     Parallel version (MPI), running on   128 processors

     MPI processes distributed on     1 nodes
     241497 MiB available memory on the printing compute node when the environment starts

     Waiting for input...
     Reading input from standard input
     Message from routine read_cards :
     DEPRECATED: no units specified in ATOMIC_POSITIONS card
     Message from routine read_cards :
     ATOMIC_POSITIONS: units set to alat

     Current dimensions of program PWSCF are:
     Max number of different atomic species (ntypx) = 10
     Max number of k-points (npk) =  40000
     Max angular momentum in pseudopotentials (lmaxx) =  4

     K-points division:     npool     =       4
     R & G space division:  proc/nbgrp/npool/nimage =      32
     Subspace diagonalization in iterative solution of the eigenvalue problem:
     a serial algorithm will be used


     Parallelization info
     --------------------
     sticks:   dense  smooth     PW     G-vecs:    dense   smooth      PW
     Min         134     134     36                 5876     5876     826
     Max         135     135     37                 5879     5879     831
     Sum        4315    4315   1159               188093   188093   26469

     Using Slab Decomposition



     bravais-lattice index     =            2
     lattice parameter (alat)  =      12.2300  a.u.
     unit-cell volume          =     457.3191 (a.u.)^3
     number of atoms/cell      =            2
     number of atomic types    =            1
     number of electrons       =        28.00
     number of Kohn-Sham states=           14
     kinetic-energy cutoff     =     210.0000  Ry
     charge density cutoff     =     840.0000  Ry
     scf convergence threshold =      1.0E-07
     mixing beta               =       0.7000
     number of iterations used =            8  plain     mixing
     Exchange-correlation=  SLA  PW   GGX  GGC
                           (   1   4   2   2   0   0   0)

     celldm(1)=  12.230000  celldm(2)=   0.000000  celldm(3)=   0.000000
     celldm(4)=   0.000000  celldm(5)=   0.000000  celldm(6)=   0.000000

     crystal axes: (cart. coord. in units of alat)
               a(1) = (  -0.500000   0.000000   0.500000 )  
               a(2) = (   0.000000   0.500000   0.500000 )  
               a(3) = (  -0.500000   0.500000   0.000000 )  

     reciprocal axes: (cart. coord. in units 2 pi/alat)
               b(1) = ( -1.000000 -1.000000  1.000000 )  
               b(2) = (  1.000000  1.000000  1.000000 )  
               b(3) = ( -1.000000  1.000000 -1.000000 )  


     PseudoPot. # 1 for Sn read from file:
     ./Sn.pw91-n-van.UPF
     MD5 check sum: a38d2a872edd1a4efd76c0a1a38f7031
     Pseudo is Ultrasoft + core correction, Zval = 14.0
     Generated by new atomic code, or converted to UPF format
     Using radial grid of  891 points,  6 beta functions with: 
                l(1) =   0
                l(2) =   0
                l(3) =   1
                l(4) =   1
                l(5) =   2
                l(6) =   2
     Q(r) pseudized with  8 coefficients,  rinner =    1.100   1.100   1.100
                                                       1.100   1.100

     atomic species   valence    mass     pseudopotential
     Sn               14.00   118.70000     Sn( 1.00)

     48 Sym. Ops., with inversion, found (24 have fractional translation)



   Cartesian axes

     site n.     atom                  positions (alat units)
         1        Sn     tau(   1) = (   0.0000000   0.0000000   0.0000000  )
         2        Sn     tau(   2) = (   0.2500000   0.2500000   0.2500000  )

     number of k points=     8
                       cart. coord. in units 2pi/alat
        k(    1) = (   0.0000000   0.0000000   0.0000000), wk =   0.0312500
        k(    2) = (  -0.2500000   0.2500000  -0.2500000), wk =   0.2500000
        k(    3) = (   0.5000000  -0.5000000   0.5000000), wk =   0.1250000
        k(    4) = (   0.0000000   0.5000000   0.0000000), wk =   0.1875000
        k(    5) = (   0.7500000  -0.2500000   0.7500000), wk =   0.7500000
        k(    6) = (   0.5000000   0.0000000   0.5000000), wk =   0.3750000
        k(    7) = (   0.0000000  -1.0000000   0.0000000), wk =   0.0937500
        k(    8) = (  -0.5000000  -1.0000000   0.0000000), wk =   0.1875000

     Dense  grid:   188093 G-vectors     FFT dimensions: (  80,  80,  80)

     Estimated max dynamical RAM per process >      11.24 MB

     Estimated total dynamical RAM >       1.27 GB

     Initial potential from superposition of free atoms

     starting charge      27.9964, renormalised to      28.0000
     Starting wfcs are   18 randomized atomic wfcs

     total cpu time spent up to now is        1.1 secs

     per-process dynamical memory:    16.5 Mb

     Self-consistent Calculation

     iteration #  1     ecut=   210.00 Ry     beta= 0.70
     Davidson diagonalization with overlap
     ethr =  1.00E-02,  avg # of iterations =  2.0

     Threshold (ethr) on eigenvalues was too large:
     Diagonalizing with lowered threshold

     Davidson diagonalization with overlap
     ethr =  7.98E-05,  avg # of iterations =  2.4

     total cpu time spent up to now is        1.3 secs

     total energy              =    -325.62138474 Ry
     estimated scf accuracy    <       0.02473142 Ry

     iteration #  2     ecut=   210.00 Ry     beta= 0.70
     Davidson diagonalization with overlap
     ethr =  8.83E-05,  avg # of iterations =  2.4

     total cpu time spent up to now is        1.4 secs

     total energy              =    -325.63191960 Ry
     estimated scf accuracy    <       0.00293563 Ry

     iteration #  3     ecut=   210.00 Ry     beta= 0.70
     Davidson diagonalization with overlap
     ethr =  1.05E-05,  avg # of iterations =  2.0

     total cpu time spent up to now is        1.6 secs

     total energy              =    -325.63228718 Ry
     estimated scf accuracy    <       0.00022318 Ry

     iteration #  4     ecut=   210.00 Ry     beta= 0.70
     Davidson diagonalization with overlap
     ethr =  7.97E-07,  avg # of iterations =  3.0

     total cpu time spent up to now is        1.7 secs

     total energy              =    -325.63232975 Ry
     estimated scf accuracy    <       0.00001590 Ry

     iteration #  5     ecut=   210.00 Ry     beta= 0.70
     Davidson diagonalization with overlap
     ethr =  5.68E-08,  avg # of iterations =  3.6

     total cpu time spent up to now is        1.8 secs

     total energy              =    -325.63233811 Ry
     estimated scf accuracy    <       0.00000233 Ry

     iteration #  6     ecut=   210.00 Ry     beta= 0.70
     Davidson diagonalization with overlap
     ethr =  8.33E-09,  avg # of iterations =  2.6

     total cpu time spent up to now is        1.9 secs

     End of self-consistent calculation

          k = 0.0000 0.0000 0.0000 ( 23505 PWs)   bands (ev):

   -13.7153 -13.7153 -13.7153 -13.6561 -13.6561 -13.3388 -13.3388 -13.3388
   -13.3301 -13.3301  -2.7012   7.3359   8.0624   8.0624

          k =-0.2500 0.2500-0.2500 ( 23436 PWs)   bands (ev):

   -13.7416 -13.7416 -13.7022 -13.6153 -13.6153 -13.3844 -13.3844 -13.3557
   -13.2930 -13.2930  -2.1092   3.9176   7.2995   7.2995

          k = 0.5000-0.5000 0.5000 ( 23528 PWs)   bands (ev):

   -13.7523 -13.7523 -13.6882 -13.5941 -13.5941 -13.4006 -13.4006 -13.3734
   -13.2812 -13.2812  -1.0628   1.6342   6.8423   6.8423

          k = 0.0000 0.5000 0.0000 ( 23460 PWs)   bands (ev):

   -13.7435 -13.7435 -13.7193 -13.6074 -13.5577 -13.4713 -13.3769 -13.3087
   -13.2976 -13.2976  -1.8922   3.8036   6.3554   6.3554

          k = 0.7500-0.2500 0.7500 ( 23497 PWs)   bands (ev):

   -13.7823 -13.7617 -13.6555 -13.5566 -13.5275 -13.4993 -13.4317 -13.3831
   -13.2692 -13.2481  -0.7148   1.6725   5.0188   6.0383

          k = 0.5000 0.0000 0.5000 ( 23506 PWs)   bands (ev):

   -13.7757 -13.7637 -13.6494 -13.5911 -13.5535 -13.4456 -13.4147 -13.4004
   -13.2654 -13.2585  -1.2022   2.3649   4.9292   6.7736

          k = 0.0000-1.0000 0.0000 ( 23492 PWs)   bands (ev):

   -13.7677 -13.7677 -13.6311 -13.6311 -13.4912 -13.4912 -13.4059 -13.4059
   -13.2602 -13.2602   0.4173   0.4173   5.4838   5.4838

          k =-0.5000-1.0000 0.0000 ( 23548 PWs)   bands (ev):

   -13.7857 -13.7857 -13.5722 -13.5722 -13.5005 -13.5005 -13.4551 -13.4551
   -13.2426 -13.2426   0.4776   0.4776   4.8994   4.8994

     highest occupied level (ev):     8.0624

!    total energy              =    -325.63233835 Ry
     estimated scf accuracy    <       0.00000004 Ry

     The total energy is the sum of the following terms:
     one-electron contribution =    -150.99802589 Ry
     hartree contribution      =      93.25944308 Ry
     xc contribution           =     -95.23432518 Ry
     ewald contribution        =    -172.65943036 Ry

     convergence has been achieved in   6 iterations

     Writing all to output data dir ./alpha-sn-scf/alphatin.save/ :
     XML data file, charge density, pseudopotentials, collected wavefunctions

     init_run     :      0.75s CPU      0.83s WALL (       1 calls)
     electrons    :      0.73s CPU      0.87s WALL (       1 calls)

     Called by init_run:
     wfcinit      :      0.04s CPU      0.04s WALL (       1 calls)
     potinit      :      0.02s CPU      0.05s WALL (       1 calls)
     hinit0       :      0.58s CPU      0.58s WALL (       1 calls)

     Called by electrons:
     c_bands      :      0.38s CPU      0.41s WALL (       7 calls)
     sum_band     :      0.17s CPU      0.18s WALL (       7 calls)
     v_of_rho     :      0.10s CPU      0.13s WALL (       7 calls)
     newd         :      0.06s CPU      0.07s WALL (       7 calls)
     mix_rho      :      0.01s CPU      0.01s WALL (       7 calls)

     Called by c_bands:
     init_us_2    :      0.01s CPU      0.01s WALL (      30 calls)
     cegterg      :      0.35s CPU      0.37s WALL (      14 calls)

     Called by *egterg:
     cdiaghg      :      0.02s CPU      0.02s WALL (      57 calls)
     h_psi        :      0.33s CPU      0.34s WALL (      61 calls)
     s_psi        :      0.01s CPU      0.01s WALL (      61 calls)
     g_psi        :      0.00s CPU      0.00s WALL (      45 calls)

     Called by h_psi:
     h_psi:calbec :      0.01s CPU      0.01s WALL (      61 calls)
     vloc_psi     :      0.31s CPU      0.32s WALL (      61 calls)
     add_vuspsi   :      0.01s CPU      0.01s WALL (      61 calls)

     General routines
     calbec       :      0.01s CPU      0.01s WALL (      75 calls)
     fft          :      0.58s CPU      0.59s WALL (      78 calls)
     ffts         :      0.00s CPU      0.00s WALL (       7 calls)
     fftw         :      0.32s CPU      0.34s WALL (    1230 calls)

     Parallel routines

     PWSCF        :      1.73s CPU      2.13s WALL


   This run was terminated on:  11:36:27   4Feb2026            

=------------------------------------------------------------------------------=
   JOB DONE.
=------------------------------------------------------------------------------=
