
     Program PWSCF v.7.3.1 starts on  5Feb2026 at 15:47:11 

     This program is part of the open-source Quantum ESPRESSO suite
     for quantum simulation of materials; please cite
         "P. Giannozzi et al., J. Phys.:Condens. Matter 21 395502 (2009);
         "P. Giannozzi et al., J. Phys.:Condens. Matter 29 465901 (2017);
         "P. Giannozzi et al., J. Chem. Phys. 152 154105 (2020);
          URL http://www.quantum-espresso.org", 
     in publications or presentations arising from this work. More details at
     http://www.quantum-espresso.org/quote

     Parallel version (MPI), running on   128 processors

     MPI processes distributed on     1 nodes
     242464 MiB available memory on the printing compute node when the environment starts

     Waiting for input...
     Reading input from standard input
     Message from routine read_cards :
     DEPRECATED: no units specified in ATOMIC_POSITIONS card
     Message from routine read_cards :
     ATOMIC_POSITIONS: units set to alat

     Current dimensions of program PWSCF are:
     Max number of different atomic species (ntypx) = 10
     Max number of k-points (npk) =  40000
     Max angular momentum in pseudopotentials (lmaxx) =  4

     K-points division:     npool     =       8
     R & G space division:  proc/nbgrp/npool/nimage =      16
     Subspace diagonalization in iterative solution of the eigenvalue problem:
     a serial algorithm will be used


     Parallelization info
     --------------------
     sticks:   dense  smooth     PW     G-vecs:    dense   smooth      PW
     Min          28      28      9                  397      397      70
     Max          29      29     10                  399      399      72
     Sum         451     451    151                 6375     6375    1139

     Using Slab Decomposition



     bravais-lattice index     =            2
     lattice parameter (alat)  =      12.2300  a.u.
     unit-cell volume          =     457.3191 (a.u.)^3
     number of atoms/cell      =            2
     number of atomic types    =            1
     number of electrons       =        28.00
     number of Kohn-Sham states=           14
     kinetic-energy cutoff     =      22.0000  Ry
     charge density cutoff     =      88.0000  Ry
     scf convergence threshold =      1.0E-07
     mixing beta               =       0.7000
     number of iterations used =            8  plain     mixing
     Exchange-correlation=  SLA  PW   GGX  GGC
                           (   1   4   2   2   0   0   0)

     celldm(1)=  12.230000  celldm(2)=   0.000000  celldm(3)=   0.000000
     celldm(4)=   0.000000  celldm(5)=   0.000000  celldm(6)=   0.000000

     crystal axes: (cart. coord. in units of alat)
               a(1) = (  -0.500000   0.000000   0.500000 )  
               a(2) = (   0.000000   0.500000   0.500000 )  
               a(3) = (  -0.500000   0.500000   0.000000 )  

     reciprocal axes: (cart. coord. in units 2 pi/alat)
               b(1) = ( -1.000000 -1.000000  1.000000 )  
               b(2) = (  1.000000  1.000000  1.000000 )  
               b(3) = ( -1.000000  1.000000 -1.000000 )  


     PseudoPot. # 1 for Sn read from file:
     ./Sn.pw91-n-van.UPF
     MD5 check sum: a38d2a872edd1a4efd76c0a1a38f7031
     Pseudo is Ultrasoft + core correction, Zval = 14.0
     Generated by new atomic code, or converted to UPF format
     Using radial grid of  891 points,  6 beta functions with: 
                l(1) =   0
                l(2) =   0
                l(3) =   1
                l(4) =   1
                l(5) =   2
                l(6) =   2
     Q(r) pseudized with  8 coefficients,  rinner =    1.100   1.100   1.100
                                                       1.100   1.100

     atomic species   valence    mass     pseudopotential
     Sn               14.00   118.70000     Sn( 1.00)

     48 Sym. Ops., with inversion, found (24 have fractional translation)



   Cartesian axes

     site n.     atom                  positions (alat units)
         1        Sn     tau(   1) = (   0.0000000   0.0000000   0.0000000  )
         2        Sn     tau(   2) = (   0.2500000   0.2500000   0.2500000  )

     number of k points=     8
                       cart. coord. in units 2pi/alat
        k(    1) = (   0.0000000   0.0000000   0.0000000), wk =   0.0312500
        k(    2) = (  -0.2500000   0.2500000  -0.2500000), wk =   0.2500000
        k(    3) = (   0.5000000  -0.5000000   0.5000000), wk =   0.1250000
        k(    4) = (   0.0000000   0.5000000   0.0000000), wk =   0.1875000
        k(    5) = (   0.7500000  -0.2500000   0.7500000), wk =   0.7500000
        k(    6) = (   0.5000000   0.0000000   0.5000000), wk =   0.3750000
        k(    7) = (   0.0000000  -1.0000000   0.0000000), wk =   0.0937500
        k(    8) = (  -0.5000000  -1.0000000   0.0000000), wk =   0.1875000

     Dense  grid:     6375 G-vectors     FFT dimensions: (  32,  32,  32)

     Estimated max dynamical RAM per process >       1.24 MB

     Estimated total dynamical RAM >     148.38 MB

     Check: negative core charge=   -0.000008

     Initial potential from superposition of free atoms

     starting charge      27.9964, renormalised to      28.0000
     Starting wfcs are   18 randomized atomic wfcs

     total cpu time spent up to now is        0.5 secs

     per-process dynamical memory:     8.7 Mb

     Self-consistent Calculation

     iteration #  1     ecut=    22.00 Ry     beta= 0.70
     Davidson diagonalization with overlap
     ethr =  1.00E-02,  avg # of iterations =  1.4

     Threshold (ethr) on eigenvalues was too large:
     Diagonalizing with lowered threshold

     Davidson diagonalization with overlap
     ethr =  1.00E-04,  avg # of iterations =  2.1

     total cpu time spent up to now is        0.6 secs

     total energy              =    -325.46024545 Ry
     estimated scf accuracy    <       0.03336394 Ry

     iteration #  2     ecut=    22.00 Ry     beta= 0.70
     Davidson diagonalization with overlap
     ethr =  1.19E-04,  avg # of iterations =  1.0

     total cpu time spent up to now is        0.6 secs

     total energy              =    -325.46194935 Ry
     estimated scf accuracy    <       0.00179433 Ry

     iteration #  3     ecut=    22.00 Ry     beta= 0.70
     Davidson diagonalization with overlap
     ethr =  6.41E-06,  avg # of iterations =  2.2

     total cpu time spent up to now is        0.6 secs

     total energy              =    -325.46219946 Ry
     estimated scf accuracy    <       0.00008819 Ry

     iteration #  4     ecut=    22.00 Ry     beta= 0.70
     Davidson diagonalization with overlap
     ethr =  3.15E-07,  avg # of iterations =  2.6

     total cpu time spent up to now is        0.6 secs

     total energy              =    -325.46221918 Ry
     estimated scf accuracy    <       0.00000520 Ry

     iteration #  5     ecut=    22.00 Ry     beta= 0.70
     Davidson diagonalization with overlap
     ethr =  1.86E-08,  avg # of iterations =  4.1

     total cpu time spent up to now is        0.6 secs

     total energy              =    -325.46222001 Ry
     estimated scf accuracy    <       0.00000073 Ry

     iteration #  6     ecut=    22.00 Ry     beta= 0.70
     Davidson diagonalization with overlap
     ethr =  2.61E-09,  avg # of iterations =  2.0

     total cpu time spent up to now is        0.6 secs

     End of self-consistent calculation

          k = 0.0000 0.0000 0.0000 (   821 PWs)   bands (ev):

   -13.8138 -13.8138 -13.8138 -13.6480 -13.6480 -13.4140 -13.4140 -13.4021
   -13.4021 -13.4021  -2.6852   7.3184   8.0803   8.0803

          k =-0.2500 0.2500-0.2500 (   806 PWs)   bands (ev):

   -13.7905 -13.7905 -13.7833 -13.6408 -13.6408 -13.4562 -13.4530 -13.4530
   -13.3656 -13.3656  -2.0942   3.9271   7.3216   7.3216

          k = 0.5000-0.5000 0.5000 (   796 PWs)   bands (ev):

   -13.7947 -13.7947 -13.7761 -13.6444 -13.6444 -13.4324 -13.4261 -13.4261
   -13.3639 -13.3639  -1.0505   1.6501   6.8657   6.8657

          k = 0.0000 0.5000 0.0000 (   817 PWs)   bands (ev):

   -13.8147 -13.8147 -13.8041 -13.6331 -13.6159 -13.5628 -13.4106 -13.4089
   -13.4089 -13.3742  -1.8775   3.8075   6.3817   6.3817

          k = 0.7500-0.2500 0.7500 (   797 PWs)   bands (ev):

   -13.8332 -13.8175 -13.7251 -13.5776 -13.5758 -13.5643 -13.4731 -13.4364
   -13.3376 -13.3277  -0.7026   1.6829   5.0451   6.0653

          k = 0.5000 0.0000 0.5000 (   792 PWs)   bands (ev):

   -13.8169 -13.8045 -13.7046 -13.6198 -13.6022 -13.4861 -13.4696 -13.4146
   -13.3625 -13.3356  -1.1888   2.3743   4.9564   6.7975

          k = 0.0000-1.0000 0.0000 (   790 PWs)   bands (ev):

   -13.8058 -13.8058 -13.7162 -13.7162 -13.5101 -13.5101 -13.4529 -13.4529
   -13.3294 -13.3294   0.4279   0.4279   5.5128   5.5128

          k =-0.5000-1.0000 0.0000 (   792 PWs)   bands (ev):

   -13.8464 -13.8464 -13.6241 -13.6241 -13.5267 -13.5267 -13.5031 -13.5031
   -13.3039 -13.3039   0.4878   0.4878   4.9282   4.9282

     highest occupied level (ev):     8.0803

!    total energy              =    -325.46222011 Ry
     estimated scf accuracy    <          4.1E-09 Ry

     The total energy is the sum of the following terms:
     one-electron contribution =    -150.65545222 Ry
     hartree contribution      =      93.01075880 Ry
     xc contribution           =     -95.15809631 Ry
     ewald contribution        =    -172.65943038 Ry

     convergence has been achieved in   6 iterations

     Writing all to output data dir ./alpha-sn-scf/alphatin.save/ :
     XML data file, charge density, pseudopotentials, collected wavefunctions

     init_run     :      0.20s CPU      0.25s WALL (       1 calls)
     electrons    :      0.07s CPU      0.12s WALL (       1 calls)

     Called by init_run:
     wfcinit      :      0.02s CPU      0.02s WALL (       1 calls)
     potinit      :      0.01s CPU      0.01s WALL (       1 calls)
     hinit0       :      0.16s CPU      0.18s WALL (       1 calls)

     Called by electrons:
     c_bands      :      0.04s CPU      0.05s WALL (       7 calls)
     sum_band     :      0.01s CPU      0.02s WALL (       7 calls)
     v_of_rho     :      0.01s CPU      0.02s WALL (       7 calls)
     newd         :      0.01s CPU      0.01s WALL (       7 calls)
     mix_rho      :      0.00s CPU      0.00s WALL (       7 calls)

     Called by c_bands:
     init_us_2    :      0.00s CPU      0.00s WALL (      15 calls)
     cegterg      :      0.03s CPU      0.04s WALL (       7 calls)

     Called by *egterg:
     cdiaghg      :      0.01s CPU      0.01s WALL (      25 calls)
     h_psi        :      0.04s CPU      0.04s WALL (      27 calls)
     s_psi        :      0.00s CPU      0.00s WALL (      27 calls)
     g_psi        :      0.00s CPU      0.00s WALL (      19 calls)

     Called by h_psi:
     h_psi:calbec :      0.00s CPU      0.00s WALL (      27 calls)
     vloc_psi     :      0.03s CPU      0.04s WALL (      27 calls)
     add_vuspsi   :      0.00s CPU      0.00s WALL (      27 calls)

     General routines
     calbec       :      0.00s CPU      0.00s WALL (      34 calls)
     fft          :      0.15s CPU      0.16s WALL (      78 calls)
     ffts         :      0.00s CPU      0.00s WALL (       7 calls)
     fftw         :      0.03s CPU      0.04s WALL (     610 calls)

     Parallel routines

     PWSCF        :      0.50s CPU      0.75s WALL


   This run was terminated on:  15:47:11   5Feb2026            

=------------------------------------------------------------------------------=
   JOB DONE.
=------------------------------------------------------------------------------=
