
     Program PWSCF v.7.3.1 starts on  4Feb2026 at 12: 1: 1 

     This program is part of the open-source Quantum ESPRESSO suite
     for quantum simulation of materials; please cite
         "P. Giannozzi et al., J. Phys.:Condens. Matter 21 395502 (2009);
         "P. Giannozzi et al., J. Phys.:Condens. Matter 29 465901 (2017);
         "P. Giannozzi et al., J. Chem. Phys. 152 154105 (2020);
          URL http://www.quantum-espresso.org", 
     in publications or presentations arising from this work. More details at
     http://www.quantum-espresso.org/quote

     Parallel version (MPI), running on   128 processors

     MPI processes distributed on     1 nodes
     240632 MiB available memory on the printing compute node when the environment starts

     Waiting for input...
     Reading input from standard input
     Message from routine read_cards :
     DEPRECATED: no units specified in ATOMIC_POSITIONS card
     Message from routine read_cards :
     ATOMIC_POSITIONS: units set to alat

     Current dimensions of program PWSCF are:
     Max number of different atomic species (ntypx) = 10
     Max number of k-points (npk) =  40000
     Max angular momentum in pseudopotentials (lmaxx) =  4

     K-points division:     npool     =       4
     R & G space division:  proc/nbgrp/npool/nimage =      32
     Subspace diagonalization in iterative solution of the eigenvalue problem:
     a serial algorithm will be used


     Parallelization info
     --------------------
     sticks:   dense  smooth     PW     G-vecs:    dense   smooth      PW
     Min         141     141     38                 6295     6295     884
     Max         143     143     39                 6299     6299     887
     Sum        4519    4519   1237               201529   201529   28325

     Using Slab Decomposition



     bravais-lattice index     =            2
     lattice parameter (alat)  =      12.2300  a.u.
     unit-cell volume          =     457.3191 (a.u.)^3
     number of atoms/cell      =            2
     number of atomic types    =            1
     number of electrons       =        28.00
     number of Kohn-Sham states=           14
     kinetic-energy cutoff     =     220.0000  Ry
     charge density cutoff     =     880.0000  Ry
     scf convergence threshold =      1.0E-07
     mixing beta               =       0.7000
     number of iterations used =            8  plain     mixing
     Exchange-correlation=  SLA  PW   GGX  GGC
                           (   1   4   2   2   0   0   0)

     celldm(1)=  12.230000  celldm(2)=   0.000000  celldm(3)=   0.000000
     celldm(4)=   0.000000  celldm(5)=   0.000000  celldm(6)=   0.000000

     crystal axes: (cart. coord. in units of alat)
               a(1) = (  -0.500000   0.000000   0.500000 )  
               a(2) = (   0.000000   0.500000   0.500000 )  
               a(3) = (  -0.500000   0.500000   0.000000 )  

     reciprocal axes: (cart. coord. in units 2 pi/alat)
               b(1) = ( -1.000000 -1.000000  1.000000 )  
               b(2) = (  1.000000  1.000000  1.000000 )  
               b(3) = ( -1.000000  1.000000 -1.000000 )  


     PseudoPot. # 1 for Sn read from file:
     ./Sn.pw91-n-van.UPF
     MD5 check sum: a38d2a872edd1a4efd76c0a1a38f7031
     Pseudo is Ultrasoft + core correction, Zval = 14.0
     Generated by new atomic code, or converted to UPF format
     Using radial grid of  891 points,  6 beta functions with: 
                l(1) =   0
                l(2) =   0
                l(3) =   1
                l(4) =   1
                l(5) =   2
                l(6) =   2
     Q(r) pseudized with  8 coefficients,  rinner =    1.100   1.100   1.100
                                                       1.100   1.100

     atomic species   valence    mass     pseudopotential
     Sn               14.00   118.70000     Sn( 1.00)

     48 Sym. Ops., with inversion, found (24 have fractional translation)



   Cartesian axes

     site n.     atom                  positions (alat units)
         1        Sn     tau(   1) = (   0.0000000   0.0000000   0.0000000  )
         2        Sn     tau(   2) = (   0.2500000   0.2500000   0.2500000  )

     number of k points=     8
                       cart. coord. in units 2pi/alat
        k(    1) = (   0.0000000   0.0000000   0.0000000), wk =   0.0312500
        k(    2) = (  -0.2500000   0.2500000  -0.2500000), wk =   0.2500000
        k(    3) = (   0.5000000  -0.5000000   0.5000000), wk =   0.1250000
        k(    4) = (   0.0000000   0.5000000   0.0000000), wk =   0.1875000
        k(    5) = (   0.7500000  -0.2500000   0.7500000), wk =   0.7500000
        k(    6) = (   0.5000000   0.0000000   0.5000000), wk =   0.3750000
        k(    7) = (   0.0000000  -1.0000000   0.0000000), wk =   0.0937500
        k(    8) = (  -0.5000000  -1.0000000   0.0000000), wk =   0.1875000

     Dense  grid:   201529 G-vectors     FFT dimensions: (  96,  96,  96)

     Estimated max dynamical RAM per process >      12.42 MB

     Estimated total dynamical RAM >       1.41 GB

     Initial potential from superposition of free atoms

     starting charge      27.9964, renormalised to      28.0000
     Starting wfcs are   18 randomized atomic wfcs

     total cpu time spent up to now is        1.3 secs

     per-process dynamical memory:    15.9 Mb

     Self-consistent Calculation

     iteration #  1     ecut=   220.00 Ry     beta= 0.70
     Davidson diagonalization with overlap
     ethr =  1.00E-02,  avg # of iterations =  2.0

     Threshold (ethr) on eigenvalues was too large:
     Diagonalizing with lowered threshold

     Davidson diagonalization with overlap
     ethr =  7.16E-05,  avg # of iterations =  3.2

     total cpu time spent up to now is        1.5 secs

     total energy              =    -325.61805893 Ry
     estimated scf accuracy    <       0.02303874 Ry

     iteration #  2     ecut=   220.00 Ry     beta= 0.70
     Davidson diagonalization with overlap
     ethr =  8.23E-05,  avg # of iterations =  2.4

     total cpu time spent up to now is        1.7 secs

     total energy              =    -325.63197236 Ry
     estimated scf accuracy    <       0.00380546 Ry

     iteration #  3     ecut=   220.00 Ry     beta= 0.70
     Davidson diagonalization with overlap
     ethr =  1.36E-05,  avg # of iterations =  2.0

     total cpu time spent up to now is        1.8 secs

     total energy              =    -325.63251220 Ry
     estimated scf accuracy    <       0.00033211 Ry

     iteration #  4     ecut=   220.00 Ry     beta= 0.70
     Davidson diagonalization with overlap
     ethr =  1.19E-06,  avg # of iterations =  2.0

     total cpu time spent up to now is        1.9 secs

     total energy              =    -325.63255200 Ry
     estimated scf accuracy    <       0.00002281 Ry

     iteration #  5     ecut=   220.00 Ry     beta= 0.70
     Davidson diagonalization with overlap
     ethr =  8.15E-08,  avg # of iterations =  2.9

     total cpu time spent up to now is        2.1 secs

     total energy              =    -325.63256680 Ry
     estimated scf accuracy    <       0.00000182 Ry

     iteration #  6     ecut=   220.00 Ry     beta= 0.70
     Davidson diagonalization with overlap
     ethr =  6.49E-09,  avg # of iterations =  3.0

     total cpu time spent up to now is        2.2 secs

     End of self-consistent calculation

          k = 0.0000 0.0000 0.0000 ( 25125 PWs)   bands (ev):

   -13.7158 -13.7158 -13.7158 -13.6565 -13.6565 -13.3392 -13.3392 -13.3392
   -13.3305 -13.3305  -2.7014   7.3356   8.0622   8.0622

          k =-0.2500 0.2500-0.2500 ( 25239 PWs)   bands (ev):

   -13.7420 -13.7420 -13.7026 -13.6158 -13.6158 -13.3849 -13.3849 -13.3561
   -13.2934 -13.2934  -2.1094   3.9173   7.2993   7.2993

          k = 0.5000-0.5000 0.5000 ( 25198 PWs)   bands (ev):

   -13.7528 -13.7528 -13.6886 -13.5945 -13.5945 -13.4011 -13.4011 -13.3738
   -13.2816 -13.2816  -1.0630   1.6340   6.8422   6.8422

          k = 0.0000 0.5000 0.0000 ( 25277 PWs)   bands (ev):

   -13.7440 -13.7440 -13.7198 -13.6079 -13.5582 -13.4718 -13.3774 -13.3091
   -13.2980 -13.2980  -1.8924   3.8034   6.3552   6.3552

          k = 0.7500-0.2500 0.7500 ( 25199 PWs)   bands (ev):

   -13.7827 -13.7622 -13.6559 -13.5571 -13.5280 -13.4998 -13.4322 -13.3836
   -13.2697 -13.2486  -0.7150   1.6723   5.0186   6.0381

          k = 0.5000 0.0000 0.5000 ( 25212 PWs)   bands (ev):

   -13.7761 -13.7642 -13.6499 -13.5916 -13.5539 -13.4461 -13.4151 -13.4009
   -13.2659 -13.2589  -1.2024   2.3647   4.9291   6.7735

          k = 0.0000-1.0000 0.0000 ( 25204 PWs)   bands (ev):

   -13.7681 -13.7681 -13.6315 -13.6315 -13.4917 -13.4917 -13.4064 -13.4064
   -13.2606 -13.2606   0.4171   0.4171   5.4837   5.4837

          k =-0.5000-1.0000 0.0000 ( 25180 PWs)   bands (ev):

   -13.7862 -13.7862 -13.5727 -13.5727 -13.5009 -13.5009 -13.4555 -13.4555
   -13.2431 -13.2431   0.4774   0.4774   4.8992   4.8992

     highest occupied level (ev):     8.0622

!    total energy              =    -325.63256710 Ry
     estimated scf accuracy    <       0.00000007 Ry

     The total energy is the sum of the following terms:
     one-electron contribution =    -150.99846183 Ry
     hartree contribution      =      93.25971081 Ry
     xc contribution           =     -95.23438572 Ry
     ewald contribution        =    -172.65943036 Ry

     convergence has been achieved in   6 iterations

     Writing all to output data dir ./alpha-sn-scf/alphatin.save/ :
     XML data file, charge density, pseudopotentials, collected wavefunctions

     init_run     :      0.89s CPU      0.97s WALL (       1 calls)
     electrons    :      0.94s CPU      1.04s WALL (       1 calls)

     Called by init_run:
     wfcinit      :      0.05s CPU      0.06s WALL (       1 calls)
     potinit      :      0.03s CPU      0.05s WALL (       1 calls)
     hinit0       :      0.68s CPU      0.70s WALL (       1 calls)

     Called by electrons:
     c_bands      :      0.50s CPU      0.51s WALL (       7 calls)
     sum_band     :      0.20s CPU      0.22s WALL (       7 calls)
     v_of_rho     :      0.15s CPU      0.17s WALL (       7 calls)
     newd         :      0.06s CPU      0.07s WALL (       7 calls)
     mix_rho      :      0.01s CPU      0.01s WALL (       7 calls)

     Called by c_bands:
     init_us_2    :      0.01s CPU      0.01s WALL (      30 calls)
     cegterg      :      0.46s CPU      0.48s WALL (      14 calls)

     Called by *egterg:
     cdiaghg      :      0.02s CPU      0.02s WALL (      50 calls)
     h_psi        :      0.45s CPU      0.46s WALL (      54 calls)
     s_psi        :      0.01s CPU      0.01s WALL (      54 calls)
     g_psi        :      0.00s CPU      0.00s WALL (      38 calls)

     Called by h_psi:
     h_psi:calbec :      0.01s CPU      0.01s WALL (      54 calls)
     vloc_psi     :      0.42s CPU      0.44s WALL (      54 calls)
     add_vuspsi   :      0.01s CPU      0.01s WALL (      54 calls)

     General routines
     calbec       :      0.01s CPU      0.01s WALL (      68 calls)
     fft          :      0.70s CPU      0.71s WALL (      78 calls)
     ffts         :      0.01s CPU      0.01s WALL (       7 calls)
     fftw         :      0.45s CPU      0.46s WALL (    1234 calls)

     Parallel routines

     PWSCF        :      2.06s CPU      2.52s WALL


   This run was terminated on:  12: 1: 3   4Feb2026            

=------------------------------------------------------------------------------=
   JOB DONE.
=------------------------------------------------------------------------------=
