
     Program PWSCF v.7.3.1 starts on  5Feb2026 at 15:47:18 

     This program is part of the open-source Quantum ESPRESSO suite
     for quantum simulation of materials; please cite
         "P. Giannozzi et al., J. Phys.:Condens. Matter 21 395502 (2009);
         "P. Giannozzi et al., J. Phys.:Condens. Matter 29 465901 (2017);
         "P. Giannozzi et al., J. Chem. Phys. 152 154105 (2020);
          URL http://www.quantum-espresso.org", 
     in publications or presentations arising from this work. More details at
     http://www.quantum-espresso.org/quote

     Parallel version (MPI), running on   128 processors

     MPI processes distributed on     1 nodes
     242421 MiB available memory on the printing compute node when the environment starts

     Waiting for input...
     Reading input from standard input
     Message from routine read_cards :
     DEPRECATED: no units specified in ATOMIC_POSITIONS card
     Message from routine read_cards :
     ATOMIC_POSITIONS: units set to alat

     Current dimensions of program PWSCF are:
     Max number of different atomic species (ntypx) = 10
     Max number of k-points (npk) =  40000
     Max angular momentum in pseudopotentials (lmaxx) =  4

     K-points division:     npool     =       8
     R & G space division:  proc/nbgrp/npool/nimage =      16
     Subspace diagonalization in iterative solution of the eigenvalue problem:
     a serial algorithm will be used


     Parallelization info
     --------------------
     sticks:   dense  smooth     PW     G-vecs:    dense   smooth      PW
     Min          31      31      9                  458      458      76
     Max          32      32     10                  462      462      79
     Sum         499     499    151                 7343     7343    1243

     Using Slab Decomposition



     bravais-lattice index     =            2
     lattice parameter (alat)  =      12.2300  a.u.
     unit-cell volume          =     457.3191 (a.u.)^3
     number of atoms/cell      =            2
     number of atomic types    =            1
     number of electrons       =        28.00
     number of Kohn-Sham states=           14
     kinetic-energy cutoff     =      24.0000  Ry
     charge density cutoff     =      96.0000  Ry
     scf convergence threshold =      1.0E-07
     mixing beta               =       0.7000
     number of iterations used =            8  plain     mixing
     Exchange-correlation=  SLA  PW   GGX  GGC
                           (   1   4   2   2   0   0   0)

     celldm(1)=  12.230000  celldm(2)=   0.000000  celldm(3)=   0.000000
     celldm(4)=   0.000000  celldm(5)=   0.000000  celldm(6)=   0.000000

     crystal axes: (cart. coord. in units of alat)
               a(1) = (  -0.500000   0.000000   0.500000 )  
               a(2) = (   0.000000   0.500000   0.500000 )  
               a(3) = (  -0.500000   0.500000   0.000000 )  

     reciprocal axes: (cart. coord. in units 2 pi/alat)
               b(1) = ( -1.000000 -1.000000  1.000000 )  
               b(2) = (  1.000000  1.000000  1.000000 )  
               b(3) = ( -1.000000  1.000000 -1.000000 )  


     PseudoPot. # 1 for Sn read from file:
     ./Sn.pw91-n-van.UPF
     MD5 check sum: a38d2a872edd1a4efd76c0a1a38f7031
     Pseudo is Ultrasoft + core correction, Zval = 14.0
     Generated by new atomic code, or converted to UPF format
     Using radial grid of  891 points,  6 beta functions with: 
                l(1) =   0
                l(2) =   0
                l(3) =   1
                l(4) =   1
                l(5) =   2
                l(6) =   2
     Q(r) pseudized with  8 coefficients,  rinner =    1.100   1.100   1.100
                                                       1.100   1.100

     atomic species   valence    mass     pseudopotential
     Sn               14.00   118.70000     Sn( 1.00)

     48 Sym. Ops., with inversion, found (24 have fractional translation)



   Cartesian axes

     site n.     atom                  positions (alat units)
         1        Sn     tau(   1) = (   0.0000000   0.0000000   0.0000000  )
         2        Sn     tau(   2) = (   0.2500000   0.2500000   0.2500000  )

     number of k points=     8
                       cart. coord. in units 2pi/alat
        k(    1) = (   0.0000000   0.0000000   0.0000000), wk =   0.0312500
        k(    2) = (  -0.2500000   0.2500000  -0.2500000), wk =   0.2500000
        k(    3) = (   0.5000000  -0.5000000   0.5000000), wk =   0.1250000
        k(    4) = (   0.0000000   0.5000000   0.0000000), wk =   0.1875000
        k(    5) = (   0.7500000  -0.2500000   0.7500000), wk =   0.7500000
        k(    6) = (   0.5000000   0.0000000   0.5000000), wk =   0.3750000
        k(    7) = (   0.0000000  -1.0000000   0.0000000), wk =   0.0937500
        k(    8) = (  -0.5000000  -1.0000000   0.0000000), wk =   0.1875000

     Dense  grid:     7343 G-vectors     FFT dimensions: (  32,  32,  32)

     Estimated max dynamical RAM per process >       1.33 MB

     Estimated total dynamical RAM >     157.86 MB

     Check: negative core charge=   -0.000003

     Initial potential from superposition of free atoms

     starting charge      27.9964, renormalised to      28.0000
     Starting wfcs are   18 randomized atomic wfcs

     total cpu time spent up to now is        0.6 secs

     per-process dynamical memory:     8.7 Mb

     Self-consistent Calculation

     iteration #  1     ecut=    24.00 Ry     beta= 0.70
     Davidson diagonalization with overlap
     ethr =  1.00E-02,  avg # of iterations =  1.4

     Threshold (ethr) on eigenvalues was too large:
     Diagonalizing with lowered threshold

     Davidson diagonalization with overlap
     ethr =  8.82E-05,  avg # of iterations =  2.1

     total cpu time spent up to now is        0.6 secs

     total energy              =    -325.55057311 Ry
     estimated scf accuracy    <       0.02980421 Ry

     iteration #  2     ecut=    24.00 Ry     beta= 0.70
     Davidson diagonalization with overlap
     ethr =  1.06E-04,  avg # of iterations =  1.0

     negative rho (up, down):  8.038E-05 0.000E+00

     total cpu time spent up to now is        0.6 secs

     total energy              =    -325.55175273 Ry
     estimated scf accuracy    <       0.00172356 Ry

     iteration #  3     ecut=    24.00 Ry     beta= 0.70
     Davidson diagonalization with overlap
     ethr =  6.16E-06,  avg # of iterations =  2.1

     negative rho (up, down):  1.094E-04 0.000E+00

     total cpu time spent up to now is        0.6 secs

     total energy              =    -325.55190802 Ry
     estimated scf accuracy    <       0.00005362 Ry

     iteration #  4     ecut=    24.00 Ry     beta= 0.70
     Davidson diagonalization with overlap
     ethr =  1.91E-07,  avg # of iterations =  3.4

     negative rho (up, down):  1.282E-04 0.000E+00

     total cpu time spent up to now is        0.6 secs

     total energy              =    -325.55192223 Ry
     estimated scf accuracy    <       0.00000393 Ry

     iteration #  5     ecut=    24.00 Ry     beta= 0.70
     Davidson diagonalization with overlap
     ethr =  1.40E-08,  avg # of iterations =  3.8

     negative rho (up, down):  1.263E-04 0.000E+00

     total cpu time spent up to now is        0.7 secs

     total energy              =    -325.55192284 Ry
     estimated scf accuracy    <       0.00000044 Ry

     iteration #  6     ecut=    24.00 Ry     beta= 0.70
     Davidson diagonalization with overlap
     ethr =  1.56E-09,  avg # of iterations =  2.2

     negative rho (up, down):  1.269E-04 0.000E+00

     total cpu time spent up to now is        0.7 secs

     End of self-consistent calculation

          k = 0.0000 0.0000 0.0000 (   893 PWs)   bands (ev):

   -13.7191 -13.7191 -13.7191 -13.6415 -13.6415 -13.3515 -13.3515 -13.3515
   -13.3123 -13.3123  -2.6911   7.3331   8.0718   8.0718

          k =-0.2500 0.2500-0.2500 (   911 PWs)   bands (ev):

   -13.7420 -13.7420 -13.7122 -13.6153 -13.6153 -13.3879 -13.3879 -13.3586
   -13.3006 -13.3006  -2.0998   3.9248   7.3094   7.3094

          k = 0.5000-0.5000 0.5000 (   912 PWs)   bands (ev):

   -13.7434 -13.7434 -13.6998 -13.5975 -13.5975 -13.3923 -13.3923 -13.3852
   -13.2933 -13.2933  -1.0559   1.6457   6.8523   6.8523

          k = 0.0000 0.5000 0.0000 (   902 PWs)   bands (ev):

   -13.7389 -13.7389 -13.7111 -13.6072 -13.5543 -13.4744 -13.3729 -13.3156
   -13.3019 -13.3019  -1.8830   3.8073   6.3677   6.3677

          k = 0.7500-0.2500 0.7500 (   908 PWs)   bands (ev):

   -13.7794 -13.7567 -13.6555 -13.5509 -13.5278 -13.4996 -13.4263 -13.3868
   -13.2762 -13.2572  -0.7076   1.6792   5.0366   6.0505

          k = 0.5000 0.0000 0.5000 (   907 PWs)   bands (ev):

   -13.7735 -13.7659 -13.6510 -13.5907 -13.5459 -13.4402 -13.4209 -13.3981
   -13.2693 -13.2687  -1.1942   2.3708   4.9481   6.7842

          k = 0.0000-1.0000 0.0000 (   934 PWs)   bands (ev):

   -13.7699 -13.7699 -13.6365 -13.6365 -13.4913 -13.4913 -13.4219 -13.4219
   -13.2754 -13.2754   0.4237   0.4237   5.4969   5.4969

          k =-0.5000-1.0000 0.0000 (   892 PWs)   bands (ev):

   -13.7715 -13.7715 -13.5689 -13.5689 -13.4935 -13.4935 -13.4474 -13.4474
   -13.2482 -13.2482   0.4835   0.4835   4.9179   4.9179

     highest occupied level (ev):     8.0718

!    total energy              =    -325.55192291 Ry
     estimated scf accuracy    <       0.00000004 Ry

     The total energy is the sum of the following terms:
     one-electron contribution =    -150.86099550 Ry
     hartree contribution      =      93.17751708 Ry
     xc contribution           =     -95.20901411 Ry
     ewald contribution        =    -172.65943037 Ry

     convergence has been achieved in   6 iterations

     Writing all to output data dir ./alpha-sn-scf/alphatin.save/ :
     XML data file, charge density, pseudopotentials, collected wavefunctions

     init_run     :      0.23s CPU      0.27s WALL (       1 calls)
     electrons    :      0.09s CPU      0.12s WALL (       1 calls)

     Called by init_run:
     wfcinit      :      0.03s CPU      0.03s WALL (       1 calls)
     potinit      :      0.01s CPU      0.02s WALL (       1 calls)
     hinit0       :      0.18s CPU      0.18s WALL (       1 calls)

     Called by electrons:
     c_bands      :      0.04s CPU      0.05s WALL (       7 calls)
     sum_band     :      0.01s CPU      0.02s WALL (       7 calls)
     v_of_rho     :      0.02s CPU      0.03s WALL (       7 calls)
     newd         :      0.01s CPU      0.01s WALL (       7 calls)
     mix_rho      :      0.00s CPU      0.00s WALL (       7 calls)

     Called by c_bands:
     init_us_2    :      0.00s CPU      0.00s WALL (      15 calls)
     cegterg      :      0.03s CPU      0.03s WALL (       7 calls)

     Called by *egterg:
     cdiaghg      :      0.01s CPU      0.01s WALL (      26 calls)
     h_psi        :      0.05s CPU      0.05s WALL (      28 calls)
     s_psi        :      0.00s CPU      0.00s WALL (      28 calls)
     g_psi        :      0.00s CPU      0.00s WALL (      20 calls)

     Called by h_psi:
     h_psi:calbec :      0.00s CPU      0.00s WALL (      28 calls)
     vloc_psi     :      0.04s CPU      0.04s WALL (      28 calls)
     add_vuspsi   :      0.00s CPU      0.00s WALL (      28 calls)

     General routines
     calbec       :      0.00s CPU      0.00s WALL (      35 calls)
     fft          :      0.15s CPU      0.16s WALL (      78 calls)
     ffts         :      0.00s CPU      0.00s WALL (       7 calls)
     fftw         :      0.04s CPU      0.04s WALL (     604 calls)

     Parallel routines

     PWSCF        :      0.56s CPU      0.78s WALL


   This run was terminated on:  15:47:19   5Feb2026            

=------------------------------------------------------------------------------=
   JOB DONE.
=------------------------------------------------------------------------------=
