
     Program PWSCF v.7.3.1 starts on  5Feb2026 at 15:47:25 

     This program is part of the open-source Quantum ESPRESSO suite
     for quantum simulation of materials; please cite
         "P. Giannozzi et al., J. Phys.:Condens. Matter 21 395502 (2009);
         "P. Giannozzi et al., J. Phys.:Condens. Matter 29 465901 (2017);
         "P. Giannozzi et al., J. Chem. Phys. 152 154105 (2020);
          URL http://www.quantum-espresso.org", 
     in publications or presentations arising from this work. More details at
     http://www.quantum-espresso.org/quote

     Parallel version (MPI), running on   128 processors

     MPI processes distributed on     1 nodes
     242473 MiB available memory on the printing compute node when the environment starts

     Waiting for input...
     Reading input from standard input
     Message from routine read_cards :
     DEPRECATED: no units specified in ATOMIC_POSITIONS card
     Message from routine read_cards :
     ATOMIC_POSITIONS: units set to alat

     Current dimensions of program PWSCF are:
     Max number of different atomic species (ntypx) = 10
     Max number of k-points (npk) =  40000
     Max angular momentum in pseudopotentials (lmaxx) =  4

     K-points division:     npool     =       8
     R & G space division:  proc/nbgrp/npool/nimage =      16
     Subspace diagonalization in iterative solution of the eigenvalue problem:
     a serial algorithm will be used


     Parallelization info
     --------------------
     sticks:   dense  smooth     PW     G-vecs:    dense   smooth      PW
     Min          33      33     10                  505      505      87
     Max          34      34     11                  507      507      90
     Sum         535     535    163                 8099     8099    1411

     Using Slab Decomposition



     bravais-lattice index     =            2
     lattice parameter (alat)  =      12.2300  a.u.
     unit-cell volume          =     457.3191 (a.u.)^3
     number of atoms/cell      =            2
     number of atomic types    =            1
     number of electrons       =        28.00
     number of Kohn-Sham states=           14
     kinetic-energy cutoff     =      26.0000  Ry
     charge density cutoff     =     104.0000  Ry
     scf convergence threshold =      1.0E-07
     mixing beta               =       0.7000
     number of iterations used =            8  plain     mixing
     Exchange-correlation=  SLA  PW   GGX  GGC
                           (   1   4   2   2   0   0   0)

     celldm(1)=  12.230000  celldm(2)=   0.000000  celldm(3)=   0.000000
     celldm(4)=   0.000000  celldm(5)=   0.000000  celldm(6)=   0.000000

     crystal axes: (cart. coord. in units of alat)
               a(1) = (  -0.500000   0.000000   0.500000 )  
               a(2) = (   0.000000   0.500000   0.500000 )  
               a(3) = (  -0.500000   0.500000   0.000000 )  

     reciprocal axes: (cart. coord. in units 2 pi/alat)
               b(1) = ( -1.000000 -1.000000  1.000000 )  
               b(2) = (  1.000000  1.000000  1.000000 )  
               b(3) = ( -1.000000  1.000000 -1.000000 )  


     PseudoPot. # 1 for Sn read from file:
     ./Sn.pw91-n-van.UPF
     MD5 check sum: a38d2a872edd1a4efd76c0a1a38f7031
     Pseudo is Ultrasoft + core correction, Zval = 14.0
     Generated by new atomic code, or converted to UPF format
     Using radial grid of  891 points,  6 beta functions with: 
                l(1) =   0
                l(2) =   0
                l(3) =   1
                l(4) =   1
                l(5) =   2
                l(6) =   2
     Q(r) pseudized with  8 coefficients,  rinner =    1.100   1.100   1.100
                                                       1.100   1.100

     atomic species   valence    mass     pseudopotential
     Sn               14.00   118.70000     Sn( 1.00)

     48 Sym. Ops., with inversion, found (24 have fractional translation)



   Cartesian axes

     site n.     atom                  positions (alat units)
         1        Sn     tau(   1) = (   0.0000000   0.0000000   0.0000000  )
         2        Sn     tau(   2) = (   0.2500000   0.2500000   0.2500000  )

     number of k points=     8
                       cart. coord. in units 2pi/alat
        k(    1) = (   0.0000000   0.0000000   0.0000000), wk =   0.0312500
        k(    2) = (  -0.2500000   0.2500000  -0.2500000), wk =   0.2500000
        k(    3) = (   0.5000000  -0.5000000   0.5000000), wk =   0.1250000
        k(    4) = (   0.0000000   0.5000000   0.0000000), wk =   0.1875000
        k(    5) = (   0.7500000  -0.2500000   0.7500000), wk =   0.7500000
        k(    6) = (   0.5000000   0.0000000   0.5000000), wk =   0.3750000
        k(    7) = (   0.0000000  -1.0000000   0.0000000), wk =   0.0937500
        k(    8) = (  -0.5000000  -1.0000000   0.0000000), wk =   0.1875000

     Dense  grid:     8099 G-vectors     FFT dimensions: (  32,  32,  32)

     Estimated max dynamical RAM per process >       1.41 MB

     Estimated total dynamical RAM >     166.24 MB

     Initial potential from superposition of free atoms

     starting charge      27.9964, renormalised to      28.0000
     Starting wfcs are   18 randomized atomic wfcs

     total cpu time spent up to now is        0.6 secs

     per-process dynamical memory:     8.8 Mb

     Self-consistent Calculation

     iteration #  1     ecut=    26.00 Ry     beta= 0.70
     Davidson diagonalization with overlap
     ethr =  1.00E-02,  avg # of iterations =  1.5

     Threshold (ethr) on eigenvalues was too large:
     Diagonalizing with lowered threshold

     Davidson diagonalization with overlap
     ethr =  8.59E-05,  avg # of iterations =  2.1

     negative rho (up, down):  8.318E-05 0.000E+00

     total cpu time spent up to now is        0.6 secs

     total energy              =    -325.57987543 Ry
     estimated scf accuracy    <       0.02900425 Ry

     iteration #  2     ecut=    26.00 Ry     beta= 0.70
     Davidson diagonalization with overlap
     ethr =  1.04E-04,  avg # of iterations =  1.0

     negative rho (up, down):  2.172E-04 0.000E+00

     total cpu time spent up to now is        0.6 secs

     total energy              =    -325.58082304 Ry
     estimated scf accuracy    <       0.00165077 Ry

     iteration #  3     ecut=    26.00 Ry     beta= 0.70
     Davidson diagonalization with overlap
     ethr =  5.90E-06,  avg # of iterations =  2.1

     negative rho (up, down):  2.449E-04 0.000E+00

     total cpu time spent up to now is        0.6 secs

     total energy              =    -325.58095727 Ry
     estimated scf accuracy    <       0.00003999 Ry

     iteration #  4     ecut=    26.00 Ry     beta= 0.70
     Davidson diagonalization with overlap
     ethr =  1.43E-07,  avg # of iterations =  3.2

     negative rho (up, down):  2.623E-04 0.000E+00

     total cpu time spent up to now is        0.6 secs

     total energy              =    -325.58096897 Ry
     estimated scf accuracy    <       0.00000327 Ry

     iteration #  5     ecut=    26.00 Ry     beta= 0.70
     Davidson diagonalization with overlap
     ethr =  1.17E-08,  avg # of iterations =  3.6

     negative rho (up, down):  2.606E-04 0.000E+00

     total cpu time spent up to now is        0.7 secs

     total energy              =    -325.58096964 Ry
     estimated scf accuracy    <       0.00000032 Ry

     iteration #  6     ecut=    26.00 Ry     beta= 0.70
     Davidson diagonalization with overlap
     ethr =  1.16E-09,  avg # of iterations =  2.2

     negative rho (up, down):  2.614E-04 0.000E+00

     total cpu time spent up to now is        0.7 secs

     End of self-consistent calculation

          k = 0.0000 0.0000 0.0000 (   965 PWs)   bands (ev):

   -13.6921 -13.6921 -13.6921 -13.6298 -13.6298 -13.3149 -13.3149 -13.3149
   -13.3041 -13.3041  -2.7001   7.3301   8.0661   8.0661

          k =-0.2500 0.2500-0.2500 (  1013 PWs)   bands (ev):

   -13.7218 -13.7218 -13.6822 -13.5925 -13.5925 -13.3616 -13.3616 -13.3367
   -13.2730 -13.2730  -2.1083   3.9180   7.3028   7.3028

          k = 0.5000-0.5000 0.5000 (  1008 PWs)   bands (ev):

   -13.7349 -13.7349 -13.6605 -13.5673 -13.5673 -13.3787 -13.3787 -13.3543
   -13.2612 -13.2612  -1.0626   1.6361   6.8454   6.8454

          k = 0.0000 0.5000 0.0000 (  1022 PWs)   bands (ev):

   -13.7256 -13.7256 -13.6992 -13.5852 -13.5354 -13.4510 -13.3537 -13.2867
   -13.2809 -13.2809  -1.8914   3.8027   6.3588   6.3588

          k = 0.7500-0.2500 0.7500 (  1027 PWs)   bands (ev):

   -13.7633 -13.7429 -13.6354 -13.5346 -13.5067 -13.4789 -13.4076 -13.3617
   -13.2517 -13.2303  -0.7146   1.6727   5.0238   6.0416

          k = 0.5000 0.0000 0.5000 (  1029 PWs)   bands (ev):

   -13.7575 -13.7440 -13.6321 -13.5682 -13.5304 -13.4251 -13.3972 -13.3770
   -13.2458 -13.2409  -1.2017   2.3648   4.9346   6.7769

          k = 0.0000-1.0000 0.0000 (  1034 PWs)   bands (ev):

   -13.7505 -13.7505 -13.6107 -13.6107 -13.4698 -13.4698 -13.3836 -13.3836
   -13.2436 -13.2436   0.4174   0.4174   5.4871   5.4871

          k =-0.5000-1.0000 0.0000 (  1036 PWs)   bands (ev):

   -13.7674 -13.7674 -13.5540 -13.5540 -13.4782 -13.4782 -13.4332 -13.4332
   -13.2256 -13.2256   0.4774   0.4774   4.9046   4.9046

     highest occupied level (ev):     8.0661

!    total energy              =    -325.58096968 Ry
     estimated scf accuracy    <       0.00000008 Ry

     The total energy is the sum of the following terms:
     one-electron contribution =    -150.92344875 Ry
     hartree contribution      =      93.23163076 Ry
     xc contribution           =     -95.22972132 Ry
     ewald contribution        =    -172.65943038 Ry

     convergence has been achieved in   6 iterations

     Writing all to output data dir ./alpha-sn-scf/alphatin.save/ :
     XML data file, charge density, pseudopotentials, collected wavefunctions

     init_run     :      0.22s CPU      0.26s WALL (       1 calls)
     electrons    :      0.08s CPU      0.12s WALL (       1 calls)

     Called by init_run:
     wfcinit      :      0.02s CPU      0.03s WALL (       1 calls)
     potinit      :      0.01s CPU      0.02s WALL (       1 calls)
     hinit0       :      0.17s CPU      0.18s WALL (       1 calls)

     Called by electrons:
     c_bands      :      0.03s CPU      0.05s WALL (       7 calls)
     sum_band     :      0.01s CPU      0.03s WALL (       7 calls)
     v_of_rho     :      0.02s CPU      0.02s WALL (       7 calls)
     newd         :      0.01s CPU      0.01s WALL (       7 calls)
     mix_rho      :      0.00s CPU      0.00s WALL (       7 calls)

     Called by c_bands:
     init_us_2    :      0.00s CPU      0.00s WALL (      15 calls)
     cegterg      :      0.03s CPU      0.04s WALL (       7 calls)

     Called by *egterg:
     cdiaghg      :      0.01s CPU      0.01s WALL (      27 calls)
     h_psi        :      0.04s CPU      0.05s WALL (      29 calls)
     s_psi        :      0.00s CPU      0.00s WALL (      29 calls)
     g_psi        :      0.00s CPU      0.00s WALL (      21 calls)

     Called by h_psi:
     h_psi:calbec :      0.00s CPU      0.00s WALL (      29 calls)
     vloc_psi     :      0.04s CPU      0.04s WALL (      29 calls)
     add_vuspsi   :      0.00s CPU      0.00s WALL (      29 calls)

     General routines
     calbec       :      0.00s CPU      0.00s WALL (      36 calls)
     fft          :      0.15s CPU      0.16s WALL (      78 calls)
     ffts         :      0.00s CPU      0.00s WALL (       7 calls)
     fftw         :      0.04s CPU      0.05s WALL (     612 calls)

     Parallel routines

     PWSCF        :      0.53s CPU      0.78s WALL


   This run was terminated on:  15:47:26   5Feb2026            

=------------------------------------------------------------------------------=
   JOB DONE.
=------------------------------------------------------------------------------=
