
     Program PWSCF v.7.3.1 starts on  4Feb2026 at 12: 1:52 

     This program is part of the open-source Quantum ESPRESSO suite
     for quantum simulation of materials; please cite
         "P. Giannozzi et al., J. Phys.:Condens. Matter 21 395502 (2009);
         "P. Giannozzi et al., J. Phys.:Condens. Matter 29 465901 (2017);
         "P. Giannozzi et al., J. Chem. Phys. 152 154105 (2020);
          URL http://www.quantum-espresso.org", 
     in publications or presentations arising from this work. More details at
     http://www.quantum-espresso.org/quote

     Parallel version (MPI), running on   128 processors

     MPI processes distributed on     1 nodes
     240553 MiB available memory on the printing compute node when the environment starts

     Waiting for input...
     Reading input from standard input
     Message from routine read_cards :
     DEPRECATED: no units specified in ATOMIC_POSITIONS card
     Message from routine read_cards :
     ATOMIC_POSITIONS: units set to alat

     Current dimensions of program PWSCF are:
     Max number of different atomic species (ntypx) = 10
     Max number of k-points (npk) =  40000
     Max angular momentum in pseudopotentials (lmaxx) =  4

     K-points division:     npool     =       4
     R & G space division:  proc/nbgrp/npool/nimage =      32
     Subspace diagonalization in iterative solution of the eigenvalue problem:
     a serial algorithm will be used


     Parallelization info
     --------------------
     sticks:   dense  smooth     PW     G-vecs:    dense   smooth      PW
     Min         168     168     44                 8097     8097    1118
     Max         169     169     45                 8099     8099    1123
     Sum        5377    5377   1417               259123   259123   35845

     Using Slab Decomposition



     bravais-lattice index     =            2
     lattice parameter (alat)  =      12.2300  a.u.
     unit-cell volume          =     457.3191 (a.u.)^3
     number of atoms/cell      =            2
     number of atomic types    =            1
     number of electrons       =        28.00
     number of Kohn-Sham states=           14
     kinetic-energy cutoff     =     260.0000  Ry
     charge density cutoff     =    1040.0000  Ry
     scf convergence threshold =      1.0E-07
     mixing beta               =       0.7000
     number of iterations used =            8  plain     mixing
     Exchange-correlation=  SLA  PW   GGX  GGC
                           (   1   4   2   2   0   0   0)

     celldm(1)=  12.230000  celldm(2)=   0.000000  celldm(3)=   0.000000
     celldm(4)=   0.000000  celldm(5)=   0.000000  celldm(6)=   0.000000

     crystal axes: (cart. coord. in units of alat)
               a(1) = (  -0.500000   0.000000   0.500000 )  
               a(2) = (   0.000000   0.500000   0.500000 )  
               a(3) = (  -0.500000   0.500000   0.000000 )  

     reciprocal axes: (cart. coord. in units 2 pi/alat)
               b(1) = ( -1.000000 -1.000000  1.000000 )  
               b(2) = (  1.000000  1.000000  1.000000 )  
               b(3) = ( -1.000000  1.000000 -1.000000 )  


     PseudoPot. # 1 for Sn read from file:
     ./Sn.pw91-n-van.UPF
     MD5 check sum: a38d2a872edd1a4efd76c0a1a38f7031
     Pseudo is Ultrasoft + core correction, Zval = 14.0
     Generated by new atomic code, or converted to UPF format
     Using radial grid of  891 points,  6 beta functions with: 
                l(1) =   0
                l(2) =   0
                l(3) =   1
                l(4) =   1
                l(5) =   2
                l(6) =   2
     Q(r) pseudized with  8 coefficients,  rinner =    1.100   1.100   1.100
                                                       1.100   1.100

     atomic species   valence    mass     pseudopotential
     Sn               14.00   118.70000     Sn( 1.00)

     48 Sym. Ops., with inversion, found (24 have fractional translation)



   Cartesian axes

     site n.     atom                  positions (alat units)
         1        Sn     tau(   1) = (   0.0000000   0.0000000   0.0000000  )
         2        Sn     tau(   2) = (   0.2500000   0.2500000   0.2500000  )

     number of k points=     8
                       cart. coord. in units 2pi/alat
        k(    1) = (   0.0000000   0.0000000   0.0000000), wk =   0.0312500
        k(    2) = (  -0.2500000   0.2500000  -0.2500000), wk =   0.2500000
        k(    3) = (   0.5000000  -0.5000000   0.5000000), wk =   0.1250000
        k(    4) = (   0.0000000   0.5000000   0.0000000), wk =   0.1875000
        k(    5) = (   0.7500000  -0.2500000   0.7500000), wk =   0.7500000
        k(    6) = (   0.5000000   0.0000000   0.5000000), wk =   0.3750000
        k(    7) = (   0.0000000  -1.0000000   0.0000000), wk =   0.0937500
        k(    8) = (  -0.5000000  -1.0000000   0.0000000), wk =   0.1875000

     Dense  grid:   259123 G-vectors     FFT dimensions: (  96,  96,  96)

     Estimated max dynamical RAM per process >      14.95 MB

     Estimated total dynamical RAM >       1.68 GB

     Initial potential from superposition of free atoms

     starting charge      27.9964, renormalised to      28.0000
     Starting wfcs are   18 randomized atomic wfcs

     total cpu time spent up to now is        1.3 secs

     per-process dynamical memory:    19.4 Mb

     Self-consistent Calculation

     iteration #  1     ecut=   260.00 Ry     beta= 0.70
     Davidson diagonalization with overlap
     ethr =  1.00E-02,  avg # of iterations =  2.0

     Threshold (ethr) on eigenvalues was too large:
     Diagonalizing with lowered threshold

     Davidson diagonalization with overlap
     ethr =  3.23E-05,  avg # of iterations =  5.0

     total cpu time spent up to now is        1.6 secs

     total energy              =    -325.60194825 Ry
     estimated scf accuracy    <       0.01756530 Ry

     iteration #  2     ecut=   260.00 Ry     beta= 0.70
     Davidson diagonalization with overlap
     ethr =  6.27E-05,  avg # of iterations =  3.6

     total cpu time spent up to now is        1.8 secs

     total energy              =    -325.62671749 Ry
     estimated scf accuracy    <       0.01043804 Ry

     iteration #  3     ecut=   260.00 Ry     beta= 0.70
     Davidson diagonalization with overlap
     ethr =  3.73E-05,  avg # of iterations =  2.0

     total cpu time spent up to now is        1.9 secs

     total energy              =    -325.63459231 Ry
     estimated scf accuracy    <       0.00125002 Ry

     iteration #  4     ecut=   260.00 Ry     beta= 0.70
     Davidson diagonalization with overlap
     ethr =  4.46E-06,  avg # of iterations =  2.9

     negative rho (up, down):  2.776E-07 0.000E+00

     total cpu time spent up to now is        2.1 secs

     total energy              =    -325.63477523 Ry
     estimated scf accuracy    <       0.00015292 Ry

     iteration #  5     ecut=   260.00 Ry     beta= 0.70
     Davidson diagonalization with overlap
     ethr =  5.46E-07,  avg # of iterations =  2.0

     negative rho (up, down):  7.259E-07 0.000E+00

     total cpu time spent up to now is        2.2 secs

     total energy              =    -325.63482279 Ry
     estimated scf accuracy    <       0.00000427 Ry

     iteration #  6     ecut=   260.00 Ry     beta= 0.70
     Davidson diagonalization with overlap
     ethr =  1.53E-08,  avg # of iterations =  3.5

     negative rho (up, down):  6.466E-07 0.000E+00

     total cpu time spent up to now is        2.4 secs

     total energy              =    -325.63482412 Ry
     estimated scf accuracy    <       0.00000070 Ry

     iteration #  7     ecut=   260.00 Ry     beta= 0.70
     Davidson diagonalization with overlap
     ethr =  2.49E-09,  avg # of iterations =  2.5

     negative rho (up, down):  6.651E-07 0.000E+00

     total cpu time spent up to now is        2.6 secs

     End of self-consistent calculation

          k = 0.0000 0.0000 0.0000 ( 32455 PWs)   bands (ev):

   -13.7141 -13.7141 -13.7141 -13.6549 -13.6549 -13.3377 -13.3377 -13.3377
   -13.3290 -13.3290  -2.7002   7.3373   8.0634   8.0634

          k =-0.2500 0.2500-0.2500 ( 32343 PWs)   bands (ev):

   -13.7404 -13.7404 -13.7010 -13.6142 -13.6142 -13.3833 -13.3833 -13.3545
   -13.2918 -13.2918  -2.1082   3.9186   7.3004   7.3004

          k = 0.5000-0.5000 0.5000 ( 32412 PWs)   bands (ev):

   -13.7511 -13.7511 -13.6870 -13.5930 -13.5930 -13.3995 -13.3995 -13.3722
   -13.2801 -13.2801  -1.0617   1.6351   6.8432   6.8432

          k = 0.0000 0.5000 0.0000 ( 32359 PWs)   bands (ev):

   -13.7423 -13.7423 -13.7181 -13.6063 -13.5566 -13.4702 -13.3758 -13.3075
   -13.2964 -13.2964  -1.8912   3.8047   6.3562   6.3562

          k = 0.7500-0.2500 0.7500 ( 32387 PWs)   bands (ev):

   -13.7811 -13.7605 -13.6543 -13.5555 -13.5264 -13.4982 -13.4306 -13.3820
   -13.2681 -13.2470  -0.7138   1.6736   5.0195   6.0391

          k = 0.5000 0.0000 0.5000 ( 32376 PWs)   bands (ev):

   -13.7745 -13.7625 -13.6482 -13.5900 -13.5523 -13.4445 -13.4135 -13.3993
   -13.2643 -13.2573  -1.2012   2.3660   4.9299   6.7745

          k = 0.0000-1.0000 0.0000 ( 32340 PWs)   bands (ev):

   -13.7665 -13.7665 -13.6299 -13.6299 -13.4901 -13.4901 -13.4048 -13.4048
   -13.2590 -13.2590   0.4183   0.4183   5.4846   5.4846

          k =-0.5000-1.0000 0.0000 ( 32364 PWs)   bands (ev):

   -13.7845 -13.7845 -13.5710 -13.5710 -13.4993 -13.4993 -13.4540 -13.4540
   -13.2415 -13.2415   0.4786   0.4786   4.9000   4.9000

     highest occupied level (ev):     8.0634

!    total energy              =    -325.63482425 Ry
     estimated scf accuracy    <       0.00000003 Ry

     The total energy is the sum of the following terms:
     one-electron contribution =    -150.99970551 Ry
     hartree contribution      =      93.25847822 Ry
     xc contribution           =     -95.23416660 Ry
     ewald contribution        =    -172.65943036 Ry

     convergence has been achieved in   7 iterations

     Writing all to output data dir ./alpha-sn-scf/alphatin.save/ :
     XML data file, charge density, pseudopotentials, collected wavefunctions

     init_run     :      0.95s CPU      1.03s WALL (       1 calls)
     electrons    :      1.21s CPU      1.35s WALL (       1 calls)

     Called by init_run:
     wfcinit      :      0.05s CPU      0.06s WALL (       1 calls)
     potinit      :      0.04s CPU      0.05s WALL (       1 calls)
     hinit0       :      0.68s CPU      0.70s WALL (       1 calls)

     Called by electrons:
     c_bands      :      0.64s CPU      0.67s WALL (       8 calls)
     sum_band     :      0.26s CPU      0.28s WALL (       8 calls)
     v_of_rho     :      0.19s CPU      0.20s WALL (       8 calls)
     newd         :      0.10s CPU      0.11s WALL (       8 calls)
     mix_rho      :      0.02s CPU      0.02s WALL (       8 calls)

     Called by c_bands:
     init_us_2    :      0.01s CPU      0.02s WALL (      34 calls)
     cegterg      :      0.59s CPU      0.61s WALL (      16 calls)

     Called by *egterg:
     cdiaghg      :      0.02s CPU      0.02s WALL (      69 calls)
     h_psi        :      0.54s CPU      0.56s WALL (      73 calls)
     s_psi        :      0.01s CPU      0.01s WALL (      73 calls)
     g_psi        :      0.00s CPU      0.00s WALL (      55 calls)

     Called by h_psi:
     h_psi:calbec :      0.02s CPU      0.02s WALL (      73 calls)
     vloc_psi     :      0.51s CPU      0.52s WALL (      73 calls)
     add_vuspsi   :      0.01s CPU      0.01s WALL (      73 calls)

     General routines
     calbec       :      0.02s CPU      0.02s WALL (      89 calls)
     fft          :      0.73s CPU      0.73s WALL (      89 calls)
     ffts         :      0.01s CPU      0.01s WALL (       8 calls)
     fftw         :      0.53s CPU      0.55s WALL (    1450 calls)

     Parallel routines

     PWSCF        :      2.38s CPU      2.85s WALL


   This run was terminated on:  12: 1:55   4Feb2026            

=------------------------------------------------------------------------------=
   JOB DONE.
=------------------------------------------------------------------------------=
