
     Program PWSCF v.7.3.1 starts on  5Feb2026 at 15:47:50 

     This program is part of the open-source Quantum ESPRESSO suite
     for quantum simulation of materials; please cite
         "P. Giannozzi et al., J. Phys.:Condens. Matter 21 395502 (2009);
         "P. Giannozzi et al., J. Phys.:Condens. Matter 29 465901 (2017);
         "P. Giannozzi et al., J. Chem. Phys. 152 154105 (2020);
          URL http://www.quantum-espresso.org", 
     in publications or presentations arising from this work. More details at
     http://www.quantum-espresso.org/quote

     Parallel version (MPI), running on   128 processors

     MPI processes distributed on     1 nodes
     242411 MiB available memory on the printing compute node when the environment starts

     Waiting for input...
     Reading input from standard input
     Message from routine read_cards :
     DEPRECATED: no units specified in ATOMIC_POSITIONS card
     Message from routine read_cards :
     ATOMIC_POSITIONS: units set to alat

     Current dimensions of program PWSCF are:
     Max number of different atomic species (ntypx) = 10
     Max number of k-points (npk) =  40000
     Max angular momentum in pseudopotentials (lmaxx) =  4

     K-points division:     npool     =       8
     R & G space division:  proc/nbgrp/npool/nimage =      16
     Subspace diagonalization in iterative solution of the eigenvalue problem:
     a serial algorithm will be used


     Parallelization info
     --------------------
     sticks:   dense  smooth     PW     G-vecs:    dense   smooth      PW
     Min          38      38     11                  629      629     103
     Max          39      39     12                  631      631     106
     Sum         613     613    187                10081    10081    1687

     Using Slab Decomposition



     bravais-lattice index     =            2
     lattice parameter (alat)  =      12.2300  a.u.
     unit-cell volume          =     457.3191 (a.u.)^3
     number of atoms/cell      =            2
     number of atomic types    =            1
     number of electrons       =        28.00
     number of Kohn-Sham states=           14
     kinetic-energy cutoff     =      30.0000  Ry
     charge density cutoff     =     120.0000  Ry
     scf convergence threshold =      1.0E-07
     mixing beta               =       0.7000
     number of iterations used =            8  plain     mixing
     Exchange-correlation=  SLA  PW   GGX  GGC
                           (   1   4   2   2   0   0   0)

     celldm(1)=  12.230000  celldm(2)=   0.000000  celldm(3)=   0.000000
     celldm(4)=   0.000000  celldm(5)=   0.000000  celldm(6)=   0.000000

     crystal axes: (cart. coord. in units of alat)
               a(1) = (  -0.500000   0.000000   0.500000 )  
               a(2) = (   0.000000   0.500000   0.500000 )  
               a(3) = (  -0.500000   0.500000   0.000000 )  

     reciprocal axes: (cart. coord. in units 2 pi/alat)
               b(1) = ( -1.000000 -1.000000  1.000000 )  
               b(2) = (  1.000000  1.000000  1.000000 )  
               b(3) = ( -1.000000  1.000000 -1.000000 )  


     PseudoPot. # 1 for Sn read from file:
     ./Sn.pw91-n-van.UPF
     MD5 check sum: a38d2a872edd1a4efd76c0a1a38f7031
     Pseudo is Ultrasoft + core correction, Zval = 14.0
     Generated by new atomic code, or converted to UPF format
     Using radial grid of  891 points,  6 beta functions with: 
                l(1) =   0
                l(2) =   0
                l(3) =   1
                l(4) =   1
                l(5) =   2
                l(6) =   2
     Q(r) pseudized with  8 coefficients,  rinner =    1.100   1.100   1.100
                                                       1.100   1.100

     atomic species   valence    mass     pseudopotential
     Sn               14.00   118.70000     Sn( 1.00)

     48 Sym. Ops., with inversion, found (24 have fractional translation)



   Cartesian axes

     site n.     atom                  positions (alat units)
         1        Sn     tau(   1) = (   0.0000000   0.0000000   0.0000000  )
         2        Sn     tau(   2) = (   0.2500000   0.2500000   0.2500000  )

     number of k points=     8
                       cart. coord. in units 2pi/alat
        k(    1) = (   0.0000000   0.0000000   0.0000000), wk =   0.0312500
        k(    2) = (  -0.2500000   0.2500000  -0.2500000), wk =   0.2500000
        k(    3) = (   0.5000000  -0.5000000   0.5000000), wk =   0.1250000
        k(    4) = (   0.0000000   0.5000000   0.0000000), wk =   0.1875000
        k(    5) = (   0.7500000  -0.2500000   0.7500000), wk =   0.7500000
        k(    6) = (   0.5000000   0.0000000   0.5000000), wk =   0.3750000
        k(    7) = (   0.0000000  -1.0000000   0.0000000), wk =   0.0937500
        k(    8) = (  -0.5000000  -1.0000000   0.0000000), wk =   0.1875000

     Dense  grid:    10081 G-vectors     FFT dimensions: (  32,  32,  32)

     Estimated max dynamical RAM per process >       1.58 MB

     Estimated total dynamical RAM >     184.43 MB

     Initial potential from superposition of free atoms

     starting charge      27.9964, renormalised to      28.0000
     Starting wfcs are   18 randomized atomic wfcs

     total cpu time spent up to now is        0.5 secs

     per-process dynamical memory:     8.8 Mb

     Self-consistent Calculation

     iteration #  1     ecut=    30.00 Ry     beta= 0.70
     Davidson diagonalization with overlap
     ethr =  1.00E-02,  avg # of iterations =  1.4

     Threshold (ethr) on eigenvalues was too large:
     Diagonalizing with lowered threshold

     Davidson diagonalization with overlap
     ethr =  8.50E-05,  avg # of iterations =  2.0

     negative rho (up, down):  8.384E-05 0.000E+00

     total cpu time spent up to now is        0.6 secs

     total energy              =    -325.58625281 Ry
     estimated scf accuracy    <       0.02875838 Ry

     iteration #  2     ecut=    30.00 Ry     beta= 0.70
     Davidson diagonalization with overlap
     ethr =  1.03E-04,  avg # of iterations =  1.0

     negative rho (up, down):  2.029E-04 0.000E+00

     total cpu time spent up to now is        0.6 secs

     total energy              =    -325.58718853 Ry
     estimated scf accuracy    <       0.00167773 Ry

     iteration #  3     ecut=    30.00 Ry     beta= 0.70
     Davidson diagonalization with overlap
     ethr =  5.99E-06,  avg # of iterations =  2.1

     negative rho (up, down):  2.280E-04 0.000E+00

     total cpu time spent up to now is        0.6 secs

     total energy              =    -325.58731777 Ry
     estimated scf accuracy    <       0.00003667 Ry

     iteration #  4     ecut=    30.00 Ry     beta= 0.70
     Davidson diagonalization with overlap
     ethr =  1.31E-07,  avg # of iterations =  3.6

     negative rho (up, down):  2.435E-04 0.000E+00

     total cpu time spent up to now is        0.6 secs

     total energy              =    -325.58732900 Ry
     estimated scf accuracy    <       0.00000305 Ry

     iteration #  5     ecut=    30.00 Ry     beta= 0.70
     Davidson diagonalization with overlap
     ethr =  1.09E-08,  avg # of iterations =  3.4

     negative rho (up, down):  2.418E-04 0.000E+00

     total cpu time spent up to now is        0.7 secs

     total energy              =    -325.58732966 Ry
     estimated scf accuracy    <       0.00000031 Ry

     iteration #  6     ecut=    30.00 Ry     beta= 0.70
     Davidson diagonalization with overlap
     ethr =  1.12E-09,  avg # of iterations =  2.4

     negative rho (up, down):  2.425E-04 0.000E+00

     total cpu time spent up to now is        0.7 secs

     total energy              =    -325.58732970 Ry
     estimated scf accuracy    <       0.00000011 Ry

     iteration #  7     ecut=    30.00 Ry     beta= 0.70
     Davidson diagonalization with overlap
     ethr =  4.02E-10,  avg # of iterations =  2.0

     negative rho (up, down):  2.427E-04 0.000E+00

     total cpu time spent up to now is        0.7 secs

     End of self-consistent calculation

          k = 0.0000 0.0000 0.0000 (  1243 PWs)   bands (ev):

   -13.6865 -13.6865 -13.6865 -13.6265 -13.6265 -13.3099 -13.3099 -13.3099
   -13.2994 -13.2994  -2.7010   7.3293   8.0654   8.0654

          k =-0.2500 0.2500-0.2500 (  1278 PWs)   bands (ev):

   -13.7129 -13.7129 -13.6736 -13.5858 -13.5858 -13.3544 -13.3544 -13.3267
   -13.2636 -13.2636  -2.1091   3.9174   7.3022   7.3022

          k = 0.5000-0.5000 0.5000 (  1260 PWs)   bands (ev):

   -13.7238 -13.7238 -13.6597 -13.5644 -13.5644 -13.3706 -13.3706 -13.3445
   -13.2520 -13.2520  -1.0634   1.6355   6.8447   6.8447

          k = 0.0000 0.5000 0.0000 (  1283 PWs)   bands (ev):

   -13.7150 -13.7150 -13.6903 -13.5777 -13.5281 -13.4421 -13.3465 -13.2788
   -13.2685 -13.2685  -1.8922   3.8020   6.3583   6.3583

          k = 0.7500-0.2500 0.7500 (  1264 PWs)   bands (ev):

   -13.7537 -13.7333 -13.6266 -13.5268 -13.4980 -13.4700 -13.4016 -13.3535
   -13.2401 -13.2190  -0.7153   1.6720   5.0233   6.0410

          k = 0.5000 0.0000 0.5000 (  1278 PWs)   bands (ev):

   -13.7471 -13.7351 -13.6209 -13.5615 -13.5237 -13.4160 -13.3857 -13.3702
   -13.2361 -13.2293  -1.2025   2.3641   4.9342   6.7762

          k = 0.0000-1.0000 0.0000 (  1266 PWs)   bands (ev):

   -13.7393 -13.7393 -13.6020 -13.6020 -13.4612 -13.4612 -13.3761 -13.3761
   -13.2312 -13.2312   0.4166   0.4166   5.4866   5.4866

          k =-0.5000-1.0000 0.0000 (  1256 PWs)   bands (ev):

   -13.7572 -13.7572 -13.5433 -13.5433 -13.4706 -13.4706 -13.4254 -13.4254
   -13.2134 -13.2134   0.4767   0.4767   4.9042   4.9042

     highest occupied level (ev):     8.0654

!    total energy              =    -325.58732971 Ry
     estimated scf accuracy    <          2.3E-09 Ry

     The total energy is the sum of the following terms:
     one-electron contribution =    -150.94358310 Ry
     hartree contribution      =      93.25377979 Ry
     xc contribution           =     -95.23809600 Ry
     ewald contribution        =    -172.65943040 Ry

     convergence has been achieved in   7 iterations

     Writing all to output data dir ./alpha-sn-scf/alphatin.save/ :
     XML data file, charge density, pseudopotentials, collected wavefunctions

     init_run     :      0.21s CPU      0.26s WALL (       1 calls)
     electrons    :      0.10s CPU      0.14s WALL (       1 calls)

     Called by init_run:
     wfcinit      :      0.02s CPU      0.03s WALL (       1 calls)
     potinit      :      0.01s CPU      0.02s WALL (       1 calls)
     hinit0       :      0.17s CPU      0.18s WALL (       1 calls)

     Called by electrons:
     c_bands      :      0.05s CPU      0.06s WALL (       8 calls)
     sum_band     :      0.02s CPU      0.03s WALL (       8 calls)
     v_of_rho     :      0.02s CPU      0.02s WALL (       8 calls)
     newd         :      0.01s CPU      0.01s WALL (       8 calls)
     mix_rho      :      0.00s CPU      0.00s WALL (       8 calls)

     Called by c_bands:
     init_us_2    :      0.00s CPU      0.00s WALL (      17 calls)
     cegterg      :      0.04s CPU      0.04s WALL (       8 calls)

     Called by *egterg:
     cdiaghg      :      0.01s CPU      0.01s WALL (      30 calls)
     h_psi        :      0.04s CPU      0.05s WALL (      32 calls)
     s_psi        :      0.00s CPU      0.00s WALL (      32 calls)
     g_psi        :      0.00s CPU      0.00s WALL (      23 calls)

     Called by h_psi:
     h_psi:calbec :      0.00s CPU      0.00s WALL (      32 calls)
     vloc_psi     :      0.04s CPU      0.05s WALL (      32 calls)
     add_vuspsi   :      0.00s CPU      0.00s WALL (      32 calls)

     General routines
     calbec       :      0.00s CPU      0.00s WALL (      40 calls)
     fft          :      0.15s CPU      0.16s WALL (      89 calls)
     ffts         :      0.00s CPU      0.00s WALL (       8 calls)
     fftw         :      0.04s CPU      0.05s WALL (     706 calls)

     Parallel routines

     PWSCF        :      0.53s CPU      0.79s WALL


   This run was terminated on:  15:47:51   5Feb2026            

=------------------------------------------------------------------------------=
   JOB DONE.
=------------------------------------------------------------------------------=
