
     Program PWSCF v.7.3.1 starts on  4Feb2026 at 12: 3: 7 

     This program is part of the open-source Quantum ESPRESSO suite
     for quantum simulation of materials; please cite
         "P. Giannozzi et al., J. Phys.:Condens. Matter 21 395502 (2009);
         "P. Giannozzi et al., J. Phys.:Condens. Matter 29 465901 (2017);
         "P. Giannozzi et al., J. Chem. Phys. 152 154105 (2020);
          URL http://www.quantum-espresso.org", 
     in publications or presentations arising from this work. More details at
     http://www.quantum-espresso.org/quote

     Parallel version (MPI), running on   128 processors

     MPI processes distributed on     1 nodes
     240518 MiB available memory on the printing compute node when the environment starts

     Waiting for input...
     Reading input from standard input
     Message from routine read_cards :
     DEPRECATED: no units specified in ATOMIC_POSITIONS card
     Message from routine read_cards :
     ATOMIC_POSITIONS: units set to alat

     Current dimensions of program PWSCF are:
     Max number of different atomic species (ntypx) = 10
     Max number of k-points (npk) =  40000
     Max angular momentum in pseudopotentials (lmaxx) =  4

     K-points division:     npool     =       4
     R & G space division:  proc/nbgrp/npool/nimage =      32
     Subspace diagonalization in iterative solution of the eigenvalue problem:
     a serial algorithm will be used


     Parallelization info
     --------------------
     sticks:   dense  smooth     PW     G-vecs:    dense   smooth      PW
     Min         199     199     53                10541    10541    1448
     Max         200     200     54                10544    10544    1450
     Sum        6391    6391   1711               337381   337381   46367

     Using Slab Decomposition



     bravais-lattice index     =            2
     lattice parameter (alat)  =      12.2300  a.u.
     unit-cell volume          =     457.3191 (a.u.)^3
     number of atoms/cell      =            2
     number of atomic types    =            1
     number of electrons       =        28.00
     number of Kohn-Sham states=           14
     kinetic-energy cutoff     =     310.0000  Ry
     charge density cutoff     =    1240.0000  Ry
     scf convergence threshold =      1.0E-07
     mixing beta               =       0.7000
     number of iterations used =            8  plain     mixing
     Exchange-correlation=  SLA  PW   GGX  GGC
                           (   1   4   2   2   0   0   0)

     celldm(1)=  12.230000  celldm(2)=   0.000000  celldm(3)=   0.000000
     celldm(4)=   0.000000  celldm(5)=   0.000000  celldm(6)=   0.000000

     crystal axes: (cart. coord. in units of alat)
               a(1) = (  -0.500000   0.000000   0.500000 )  
               a(2) = (   0.000000   0.500000   0.500000 )  
               a(3) = (  -0.500000   0.500000   0.000000 )  

     reciprocal axes: (cart. coord. in units 2 pi/alat)
               b(1) = ( -1.000000 -1.000000  1.000000 )  
               b(2) = (  1.000000  1.000000  1.000000 )  
               b(3) = ( -1.000000  1.000000 -1.000000 )  


     PseudoPot. # 1 for Sn read from file:
     ./Sn.pw91-n-van.UPF
     MD5 check sum: a38d2a872edd1a4efd76c0a1a38f7031
     Pseudo is Ultrasoft + core correction, Zval = 14.0
     Generated by new atomic code, or converted to UPF format
     Using radial grid of  891 points,  6 beta functions with: 
                l(1) =   0
                l(2) =   0
                l(3) =   1
                l(4) =   1
                l(5) =   2
                l(6) =   2
     Q(r) pseudized with  8 coefficients,  rinner =    1.100   1.100   1.100
                                                       1.100   1.100

     atomic species   valence    mass     pseudopotential
     Sn               14.00   118.70000     Sn( 1.00)

     48 Sym. Ops., with inversion, found (24 have fractional translation)



   Cartesian axes

     site n.     atom                  positions (alat units)
         1        Sn     tau(   1) = (   0.0000000   0.0000000   0.0000000  )
         2        Sn     tau(   2) = (   0.2500000   0.2500000   0.2500000  )

     number of k points=     8
                       cart. coord. in units 2pi/alat
        k(    1) = (   0.0000000   0.0000000   0.0000000), wk =   0.0312500
        k(    2) = (  -0.2500000   0.2500000  -0.2500000), wk =   0.2500000
        k(    3) = (   0.5000000  -0.5000000   0.5000000), wk =   0.1250000
        k(    4) = (   0.0000000   0.5000000   0.0000000), wk =   0.1875000
        k(    5) = (   0.7500000  -0.2500000   0.7500000), wk =   0.7500000
        k(    6) = (   0.5000000   0.0000000   0.5000000), wk =   0.3750000
        k(    7) = (   0.0000000  -1.0000000   0.0000000), wk =   0.0937500
        k(    8) = (  -0.5000000  -1.0000000   0.0000000), wk =   0.1875000

     Dense  grid:   337381 G-vectors     FFT dimensions: ( 100, 100, 100)

     Estimated max dynamical RAM per process >      19.20 MB

     Estimated total dynamical RAM >       2.16 GB

     Initial potential from superposition of free atoms

     starting charge      27.9964, renormalised to      28.0000

     negative rho (up, down):  1.366E-05 0.000E+00
     Starting wfcs are   18 randomized atomic wfcs

     total cpu time spent up to now is        1.3 secs

     per-process dynamical memory:    23.4 Mb

     Self-consistent Calculation

     iteration #  1     ecut=   310.00 Ry     beta= 0.70
     Davidson diagonalization with overlap
     ethr =  1.00E-02,  avg # of iterations =  2.2

     Threshold (ethr) on eigenvalues was too large:
     Diagonalizing with lowered threshold

     Davidson diagonalization with overlap
     ethr =  3.55E-05,  avg # of iterations =  3.6

     negative rho (up, down):  4.168E-06 0.000E+00

     total cpu time spent up to now is        1.7 secs

     total energy              =    -325.52440593 Ry
     estimated scf accuracy    <       0.01284514 Ry

     iteration #  2     ecut=   310.00 Ry     beta= 0.70
     Davidson diagonalization with overlap
     ethr =  4.59E-05,  avg # of iterations =  5.9

     negative rho (up, down):  2.013E-06 0.000E+00

     total cpu time spent up to now is        2.0 secs

     total energy              =    -325.61384494 Ry
     estimated scf accuracy    <       0.03513884 Ry

     iteration #  3     ecut=   310.00 Ry     beta= 0.70
     Davidson diagonalization with overlap
     ethr =  4.59E-05,  avg # of iterations =  1.5

     total cpu time spent up to now is        2.2 secs

     total energy              =    -325.63259682 Ry
     estimated scf accuracy    <       0.01786834 Ry

     iteration #  4     ecut=   310.00 Ry     beta= 0.70
     Davidson diagonalization with overlap
     ethr =  4.59E-05,  avg # of iterations =  2.2

     total cpu time spent up to now is        2.4 secs

     total energy              =    -325.63565271 Ry
     estimated scf accuracy    <       0.00053980 Ry

     iteration #  5     ecut=   310.00 Ry     beta= 0.70
     Davidson diagonalization with overlap
     ethr =  1.93E-06,  avg # of iterations =  2.2

     total cpu time spent up to now is        2.6 secs

     total energy              =    -325.63572320 Ry
     estimated scf accuracy    <       0.00004387 Ry

     iteration #  6     ecut=   310.00 Ry     beta= 0.70
     Davidson diagonalization with overlap
     ethr =  1.57E-07,  avg # of iterations =  2.1

     total cpu time spent up to now is        2.9 secs

     total energy              =    -325.63573507 Ry
     estimated scf accuracy    <       0.00000178 Ry

     iteration #  7     ecut=   310.00 Ry     beta= 0.70
     Davidson diagonalization with overlap
     ethr =  6.37E-09,  avg # of iterations =  3.1

     total cpu time spent up to now is        3.1 secs

     total energy              =    -325.63573625 Ry
     estimated scf accuracy    <       0.00000039 Ry

     iteration #  8     ecut=   310.00 Ry     beta= 0.70
     Davidson diagonalization with overlap
     ethr =  1.38E-09,  avg # of iterations =  2.0

     total cpu time spent up to now is        3.3 secs

     End of self-consistent calculation

          k = 0.0000 0.0000 0.0000 ( 42087 PWs)   bands (ev):

   -13.7153 -13.7153 -13.7153 -13.6561 -13.6561 -13.3389 -13.3389 -13.3389
   -13.3302 -13.3302  -2.7005   7.3370   8.0631   8.0631

          k =-0.2500 0.2500-0.2500 ( 42133 PWs)   bands (ev):

   -13.7416 -13.7416 -13.7021 -13.6154 -13.6154 -13.3845 -13.3845 -13.3557
   -13.2930 -13.2930  -2.1084   3.9183   7.3001   7.3001

          k = 0.5000-0.5000 0.5000 ( 42112 PWs)   bands (ev):

   -13.7523 -13.7523 -13.6881 -13.5941 -13.5941 -13.4007 -13.4007 -13.3734
   -13.2813 -13.2813  -1.0620   1.6349   6.8430   6.8430

          k = 0.0000 0.5000 0.0000 ( 42246 PWs)   bands (ev):

   -13.7435 -13.7435 -13.7193 -13.6075 -13.5578 -13.4714 -13.3770 -13.3087
   -13.2977 -13.2977  -1.8915   3.8045   6.3560   6.3560

          k = 0.7500-0.2500 0.7500 ( 42153 PWs)   bands (ev):

   -13.7822 -13.7617 -13.6555 -13.5567 -13.5276 -13.4994 -13.4318 -13.3832
   -13.2693 -13.2482  -0.7140   1.6733   5.0193   6.0388

          k = 0.5000 0.0000 0.5000 ( 42178 PWs)   bands (ev):

   -13.7756 -13.7637 -13.6494 -13.5912 -13.5535 -13.4457 -13.4147 -13.4005
   -13.2655 -13.2585  -1.2014   2.3657   4.9298   6.7742

          k = 0.0000-1.0000 0.0000 ( 42282 PWs)   bands (ev):

   -13.7676 -13.7676 -13.6311 -13.6311 -13.4913 -13.4913 -13.4060 -13.4060
   -13.2602 -13.2602   0.4181   0.4181   5.4844   5.4844

          k =-0.5000-1.0000 0.0000 ( 42092 PWs)   bands (ev):

   -13.7857 -13.7857 -13.5722 -13.5722 -13.5005 -13.5005 -13.4552 -13.4552
   -13.2427 -13.2427   0.4784   0.4784   4.8999   4.8999

     highest occupied level (ev):     8.0631

!    total energy              =    -325.63573630 Ry
     estimated scf accuracy    <          3.8E-09 Ry

     The total energy is the sum of the following terms:
     one-electron contribution =    -151.00131780 Ry
     hartree contribution      =      93.25937634 Ry
     xc contribution           =     -95.23436448 Ry
     ewald contribution        =    -172.65943036 Ry

     convergence has been achieved in   8 iterations

     Writing all to output data dir ./alpha-sn-scf/alphatin.save/ :
     XML data file, charge density, pseudopotentials, collected wavefunctions

     init_run     :      0.88s CPU      0.96s WALL (       1 calls)
     electrons    :      1.97s CPU      2.15s WALL (       1 calls)

     Called by init_run:
     wfcinit      :      0.06s CPU      0.08s WALL (       1 calls)
     potinit      :      0.05s CPU      0.07s WALL (       1 calls)
     hinit0       :      0.48s CPU      0.50s WALL (       1 calls)

     Called by electrons:
     c_bands      :      1.06s CPU      1.09s WALL (       9 calls)
     sum_band     :      0.41s CPU      0.44s WALL (       9 calls)
     v_of_rho     :      0.33s CPU      0.36s WALL (       9 calls)
     newd         :      0.15s CPU      0.17s WALL (       9 calls)
     mix_rho      :      0.04s CPU      0.04s WALL (       9 calls)

     Called by c_bands:
     init_us_2    :      0.02s CPU      0.03s WALL (      38 calls)
     cegterg      :      0.98s CPU      1.00s WALL (      18 calls)

     Called by *egterg:
     cdiaghg      :      0.03s CPU      0.03s WALL (      73 calls)
     h_psi        :      0.90s CPU      0.93s WALL (      77 calls)
     s_psi        :      0.02s CPU      0.02s WALL (      77 calls)
     g_psi        :      0.00s CPU      0.00s WALL (      57 calls)

     Called by h_psi:
     h_psi:calbec :      0.03s CPU      0.03s WALL (      77 calls)
     vloc_psi     :      0.84s CPU      0.87s WALL (      77 calls)
     add_vuspsi   :      0.02s CPU      0.02s WALL (      77 calls)

     General routines
     calbec       :      0.04s CPU      0.04s WALL (      95 calls)
     fft          :      0.62s CPU      0.65s WALL (     100 calls)
     ffts         :      0.01s CPU      0.02s WALL (       9 calls)
     fftw         :      0.89s CPU      0.91s WALL (    1634 calls)

     Parallel routines

     PWSCF        :      3.41s CPU      4.00s WALL


   This run was terminated on:  12: 3:11   4Feb2026            

=------------------------------------------------------------------------------=
   JOB DONE.
=------------------------------------------------------------------------------=
