
     Program PWSCF v.7.3.1 starts on  4Feb2026 at 12: 3:53 

     This program is part of the open-source Quantum ESPRESSO suite
     for quantum simulation of materials; please cite
         "P. Giannozzi et al., J. Phys.:Condens. Matter 21 395502 (2009);
         "P. Giannozzi et al., J. Phys.:Condens. Matter 29 465901 (2017);
         "P. Giannozzi et al., J. Chem. Phys. 152 154105 (2020);
          URL http://www.quantum-espresso.org", 
     in publications or presentations arising from this work. More details at
     http://www.quantum-espresso.org/quote

     Parallel version (MPI), running on   128 processors

     MPI processes distributed on     1 nodes
     240507 MiB available memory on the printing compute node when the environment starts

     Waiting for input...
     Reading input from standard input
     Message from routine read_cards :
     DEPRECATED: no units specified in ATOMIC_POSITIONS card
     Message from routine read_cards :
     ATOMIC_POSITIONS: units set to alat

     Current dimensions of program PWSCF are:
     Max number of different atomic species (ntypx) = 10
     Max number of k-points (npk) =  40000
     Max angular momentum in pseudopotentials (lmaxx) =  4

     K-points division:     npool     =       4
     R & G space division:  proc/nbgrp/npool/nimage =      32
     Subspace diagonalization in iterative solution of the eigenvalue problem:
     a serial algorithm will be used


     Parallelization info
     --------------------
     sticks:   dense  smooth     PW     G-vecs:    dense   smooth      PW
     Min         218     218     58                12102    12102    1658
     Max         219     219     59                12107    12107    1660
     Sum        6997    6997   1879               387335   387335   53089

     Using Slab Decomposition



     bravais-lattice index     =            2
     lattice parameter (alat)  =      12.2300  a.u.
     unit-cell volume          =     457.3191 (a.u.)^3
     number of atoms/cell      =            2
     number of atomic types    =            1
     number of electrons       =        28.00
     number of Kohn-Sham states=           14
     kinetic-energy cutoff     =     340.0000  Ry
     charge density cutoff     =    1360.0000  Ry
     scf convergence threshold =      1.0E-07
     mixing beta               =       0.7000
     number of iterations used =            8  plain     mixing
     Exchange-correlation=  SLA  PW   GGX  GGC
                           (   1   4   2   2   0   0   0)

     celldm(1)=  12.230000  celldm(2)=   0.000000  celldm(3)=   0.000000
     celldm(4)=   0.000000  celldm(5)=   0.000000  celldm(6)=   0.000000

     crystal axes: (cart. coord. in units of alat)
               a(1) = (  -0.500000   0.000000   0.500000 )  
               a(2) = (   0.000000   0.500000   0.500000 )  
               a(3) = (  -0.500000   0.500000   0.000000 )  

     reciprocal axes: (cart. coord. in units 2 pi/alat)
               b(1) = ( -1.000000 -1.000000  1.000000 )  
               b(2) = (  1.000000  1.000000  1.000000 )  
               b(3) = ( -1.000000  1.000000 -1.000000 )  


     PseudoPot. # 1 for Sn read from file:
     ./Sn.pw91-n-van.UPF
     MD5 check sum: a38d2a872edd1a4efd76c0a1a38f7031
     Pseudo is Ultrasoft + core correction, Zval = 14.0
     Generated by new atomic code, or converted to UPF format
     Using radial grid of  891 points,  6 beta functions with: 
                l(1) =   0
                l(2) =   0
                l(3) =   1
                l(4) =   1
                l(5) =   2
                l(6) =   2
     Q(r) pseudized with  8 coefficients,  rinner =    1.100   1.100   1.100
                                                       1.100   1.100

     atomic species   valence    mass     pseudopotential
     Sn               14.00   118.70000     Sn( 1.00)

     48 Sym. Ops., with inversion, found (24 have fractional translation)



   Cartesian axes

     site n.     atom                  positions (alat units)
         1        Sn     tau(   1) = (   0.0000000   0.0000000   0.0000000  )
         2        Sn     tau(   2) = (   0.2500000   0.2500000   0.2500000  )

     number of k points=     8
                       cart. coord. in units 2pi/alat
        k(    1) = (   0.0000000   0.0000000   0.0000000), wk =   0.0312500
        k(    2) = (  -0.2500000   0.2500000  -0.2500000), wk =   0.2500000
        k(    3) = (   0.5000000  -0.5000000   0.5000000), wk =   0.1250000
        k(    4) = (   0.0000000   0.5000000   0.0000000), wk =   0.1875000
        k(    5) = (   0.7500000  -0.2500000   0.7500000), wk =   0.7500000
        k(    6) = (   0.5000000   0.0000000   0.5000000), wk =   0.3750000
        k(    7) = (   0.0000000  -1.0000000   0.0000000), wk =   0.0937500
        k(    8) = (  -0.5000000  -1.0000000   0.0000000), wk =   0.1875000

     Dense  grid:   387335 G-vectors     FFT dimensions: ( 108, 108, 108)

     Estimated max dynamical RAM per process >      21.81 MB

     Estimated total dynamical RAM >       2.45 GB

     Initial potential from superposition of free atoms

     starting charge      27.9964, renormalised to      28.0000

     negative rho (up, down):  1.038E-05 0.000E+00
     Starting wfcs are   18 randomized atomic wfcs

     total cpu time spent up to now is        1.3 secs

     per-process dynamical memory:    25.5 Mb

     Self-consistent Calculation

     iteration #  1     ecut=   340.00 Ry     beta= 0.70
     Davidson diagonalization with overlap
     ethr =  1.00E-02,  avg # of iterations =  2.4

     Threshold (ethr) on eigenvalues was too large:
     Diagonalizing with lowered threshold

     Davidson diagonalization with overlap
     ethr =  4.49E-05,  avg # of iterations =  3.6

     negative rho (up, down):  4.922E-06 0.000E+00

     total cpu time spent up to now is        1.9 secs

     total energy              =    -325.50871433 Ry
     estimated scf accuracy    <       0.01558509 Ry

     iteration #  2     ecut=   340.00 Ry     beta= 0.70
     Davidson diagonalization with overlap
     ethr =  5.57E-05,  avg # of iterations =  5.9

     negative rho (up, down):  2.703E-06 0.000E+00

     total cpu time spent up to now is        2.2 secs

     total energy              =    -325.60769051 Ry
     estimated scf accuracy    <       0.04166159 Ry

     iteration #  3     ecut=   340.00 Ry     beta= 0.70
     Davidson diagonalization with overlap
     ethr =  5.57E-05,  avg # of iterations =  1.4

     total cpu time spent up to now is        2.5 secs

     total energy              =    -325.63230115 Ry
     estimated scf accuracy    <       0.02041452 Ry

     iteration #  4     ecut=   340.00 Ry     beta= 0.70
     Davidson diagonalization with overlap
     ethr =  5.57E-05,  avg # of iterations =  2.2

     total cpu time spent up to now is        2.7 secs

     total energy              =    -325.63597566 Ry
     estimated scf accuracy    <       0.00051226 Ry

     iteration #  5     ecut=   340.00 Ry     beta= 0.70
     Davidson diagonalization with overlap
     ethr =  1.83E-06,  avg # of iterations =  2.2

     negative rho (up, down):  3.918E-07 0.000E+00

     total cpu time spent up to now is        3.0 secs

     total energy              =    -325.63599471 Ry
     estimated scf accuracy    <       0.00009526 Ry

     iteration #  6     ecut=   340.00 Ry     beta= 0.70
     Davidson diagonalization with overlap
     ethr =  3.40E-07,  avg # of iterations =  2.1

     negative rho (up, down):  3.129E-07 0.000E+00

     total cpu time spent up to now is        3.3 secs

     total energy              =    -325.63601499 Ry
     estimated scf accuracy    <       0.00000176 Ry

     iteration #  7     ecut=   340.00 Ry     beta= 0.70
     Davidson diagonalization with overlap
     ethr =  6.29E-09,  avg # of iterations =  2.8

     negative rho (up, down):  3.294E-07 0.000E+00

     total cpu time spent up to now is        3.6 secs

     total energy              =    -325.63601571 Ry
     estimated scf accuracy    <       0.00000012 Ry

     iteration #  8     ecut=   340.00 Ry     beta= 0.70
     Davidson diagonalization with overlap
     ethr =  4.46E-10,  avg # of iterations =  2.5

     negative rho (up, down):  3.299E-07 0.000E+00

     total cpu time spent up to now is        3.8 secs

     End of self-consistent calculation

          k = 0.0000 0.0000 0.0000 ( 48455 PWs)   bands (ev):

   -13.7155 -13.7155 -13.7155 -13.6563 -13.6563 -13.3391 -13.3391 -13.3391
   -13.3304 -13.3304  -2.7005   7.3370   8.0631   8.0631

          k =-0.2500 0.2500-0.2500 ( 48440 PWs)   bands (ev):

   -13.7418 -13.7418 -13.7023 -13.6156 -13.6156 -13.3847 -13.3847 -13.3559
   -13.2932 -13.2932  -2.1085   3.9183   7.3001   7.3001

          k = 0.5000-0.5000 0.5000 ( 48432 PWs)   bands (ev):

   -13.7525 -13.7525 -13.6884 -13.5943 -13.5943 -13.4009 -13.4009 -13.3736
   -13.2815 -13.2815  -1.0620   1.6349   6.8429   6.8429

          k = 0.0000 0.5000 0.0000 ( 48436 PWs)   bands (ev):

   -13.7437 -13.7437 -13.7195 -13.6077 -13.5580 -13.4716 -13.3772 -13.3089
   -13.2978 -13.2978  -1.8915   3.8044   6.3559   6.3559

          k = 0.7500-0.2500 0.7500 ( 48381 PWs)   bands (ev):

   -13.7824 -13.7619 -13.6557 -13.5569 -13.5278 -13.4996 -13.4320 -13.3834
   -13.2695 -13.2484  -0.7141   1.6733   5.0193   6.0388

          k = 0.5000 0.0000 0.5000 ( 48429 PWs)   bands (ev):

   -13.7758 -13.7639 -13.6496 -13.5914 -13.5537 -13.4459 -13.4149 -13.4007
   -13.2657 -13.2587  -1.2015   2.3657   4.9297   6.7742

          k = 0.0000-1.0000 0.0000 ( 48384 PWs)   bands (ev):

   -13.7678 -13.7678 -13.6313 -13.6313 -13.4915 -13.4915 -13.4062 -13.4062
   -13.2604 -13.2604   0.4180   0.4180   5.4844   5.4844

          k =-0.5000-1.0000 0.0000 ( 48368 PWs)   bands (ev):

   -13.7859 -13.7859 -13.5724 -13.5724 -13.5007 -13.5007 -13.4554 -13.4554
   -13.2429 -13.2429   0.4783   0.4783   4.8999   4.8999

     highest occupied level (ev):     8.0631

!    total energy              =    -325.63601574 Ry
     estimated scf accuracy    <          1.6E-09 Ry

     The total energy is the sum of the following terms:
     one-electron contribution =    -151.00186795 Ry
     hartree contribution      =      93.25969965 Ry
     xc contribution           =     -95.23441708 Ry
     ewald contribution        =    -172.65943036 Ry

     convergence has been achieved in   8 iterations

     Writing all to output data dir ./alpha-sn-scf/alphatin.save/ :
     XML data file, charge density, pseudopotentials, collected wavefunctions

     init_run     :      0.98s CPU      1.06s WALL (       1 calls)
     electrons    :      2.42s CPU      2.59s WALL (       1 calls)

     Called by init_run:
     wfcinit      :      0.08s CPU      0.09s WALL (       1 calls)
     potinit      :      0.06s CPU      0.08s WALL (       1 calls)
     hinit0       :      0.48s CPU      0.51s WALL (       1 calls)

     Called by electrons:
     c_bands      :      1.28s CPU      1.32s WALL (       9 calls)
     sum_band     :      0.50s CPU      0.52s WALL (       9 calls)
     v_of_rho     :      0.41s CPU      0.44s WALL (       9 calls)
     newd         :      0.18s CPU      0.19s WALL (       9 calls)
     mix_rho      :      0.05s CPU      0.05s WALL (       9 calls)

     Called by c_bands:
     init_us_2    :      0.03s CPU      0.03s WALL (      38 calls)
     cegterg      :      1.19s CPU      1.21s WALL (      18 calls)

     Called by *egterg:
     cdiaghg      :      0.03s CPU      0.03s WALL (      75 calls)
     h_psi        :      1.11s CPU      1.13s WALL (      79 calls)
     s_psi        :      0.02s CPU      0.02s WALL (      79 calls)
     g_psi        :      0.00s CPU      0.00s WALL (      59 calls)

     Called by h_psi:
     h_psi:calbec :      0.04s CPU      0.04s WALL (      79 calls)
     vloc_psi     :      1.04s CPU      1.06s WALL (      79 calls)
     add_vuspsi   :      0.02s CPU      0.02s WALL (      79 calls)

     General routines
     calbec       :      0.05s CPU      0.05s WALL (      97 calls)
     fft          :      0.64s CPU      0.70s WALL (     100 calls)
     ffts         :      0.02s CPU      0.02s WALL (       9 calls)
     fftw         :      1.09s CPU      1.11s WALL (    1630 calls)

     Parallel routines

     PWSCF        :      3.65s CPU      4.28s WALL


   This run was terminated on:  12: 3:57   4Feb2026            

=------------------------------------------------------------------------------=
   JOB DONE.
=------------------------------------------------------------------------------=
