
     Program PWSCF v.7.3.1 starts on  5Feb2026 at 15:48:19 

     This program is part of the open-source Quantum ESPRESSO suite
     for quantum simulation of materials; please cite
         "P. Giannozzi et al., J. Phys.:Condens. Matter 21 395502 (2009);
         "P. Giannozzi et al., J. Phys.:Condens. Matter 29 465901 (2017);
         "P. Giannozzi et al., J. Chem. Phys. 152 154105 (2020);
          URL http://www.quantum-espresso.org", 
     in publications or presentations arising from this work. More details at
     http://www.quantum-espresso.org/quote

     Parallel version (MPI), running on   128 processors

     MPI processes distributed on     1 nodes
     242466 MiB available memory on the printing compute node when the environment starts

     Waiting for input...
     Reading input from standard input
     Message from routine read_cards :
     DEPRECATED: no units specified in ATOMIC_POSITIONS card
     Message from routine read_cards :
     ATOMIC_POSITIONS: units set to alat

     Current dimensions of program PWSCF are:
     Max number of different atomic species (ntypx) = 10
     Max number of k-points (npk) =  40000
     Max angular momentum in pseudopotentials (lmaxx) =  4

     K-points division:     npool     =       8
     R & G space division:  proc/nbgrp/npool/nimage =      16
     Subspace diagonalization in iterative solution of the eigenvalue problem:
     a serial algorithm will be used


     Parallelization info
     --------------------
     sticks:   dense  smooth     PW     G-vecs:    dense   smooth      PW
     Min          46      46     13                  834      834     133
     Max          47      47     15                  837      837     134
     Sum         745     745    223                13371    13371    2133

     Using Slab Decomposition



     bravais-lattice index     =            2
     lattice parameter (alat)  =      12.2300  a.u.
     unit-cell volume          =     457.3191 (a.u.)^3
     number of atoms/cell      =            2
     number of atomic types    =            1
     number of electrons       =        28.00
     number of Kohn-Sham states=           14
     kinetic-energy cutoff     =      36.0000  Ry
     charge density cutoff     =     144.0000  Ry
     scf convergence threshold =      1.0E-07
     mixing beta               =       0.7000
     number of iterations used =            8  plain     mixing
     Exchange-correlation=  SLA  PW   GGX  GGC
                           (   1   4   2   2   0   0   0)

     celldm(1)=  12.230000  celldm(2)=   0.000000  celldm(3)=   0.000000
     celldm(4)=   0.000000  celldm(5)=   0.000000  celldm(6)=   0.000000

     crystal axes: (cart. coord. in units of alat)
               a(1) = (  -0.500000   0.000000   0.500000 )  
               a(2) = (   0.000000   0.500000   0.500000 )  
               a(3) = (  -0.500000   0.500000   0.000000 )  

     reciprocal axes: (cart. coord. in units 2 pi/alat)
               b(1) = ( -1.000000 -1.000000  1.000000 )  
               b(2) = (  1.000000  1.000000  1.000000 )  
               b(3) = ( -1.000000  1.000000 -1.000000 )  


     PseudoPot. # 1 for Sn read from file:
     ./Sn.pw91-n-van.UPF
     MD5 check sum: a38d2a872edd1a4efd76c0a1a38f7031
     Pseudo is Ultrasoft + core correction, Zval = 14.0
     Generated by new atomic code, or converted to UPF format
     Using radial grid of  891 points,  6 beta functions with: 
                l(1) =   0
                l(2) =   0
                l(3) =   1
                l(4) =   1
                l(5) =   2
                l(6) =   2
     Q(r) pseudized with  8 coefficients,  rinner =    1.100   1.100   1.100
                                                       1.100   1.100

     atomic species   valence    mass     pseudopotential
     Sn               14.00   118.70000     Sn( 1.00)

     48 Sym. Ops., with inversion, found (24 have fractional translation)



   Cartesian axes

     site n.     atom                  positions (alat units)
         1        Sn     tau(   1) = (   0.0000000   0.0000000   0.0000000  )
         2        Sn     tau(   2) = (   0.2500000   0.2500000   0.2500000  )

     number of k points=     8
                       cart. coord. in units 2pi/alat
        k(    1) = (   0.0000000   0.0000000   0.0000000), wk =   0.0312500
        k(    2) = (  -0.2500000   0.2500000  -0.2500000), wk =   0.2500000
        k(    3) = (   0.5000000  -0.5000000   0.5000000), wk =   0.1250000
        k(    4) = (   0.0000000   0.5000000   0.0000000), wk =   0.1875000
        k(    5) = (   0.7500000  -0.2500000   0.7500000), wk =   0.7500000
        k(    6) = (   0.5000000   0.0000000   0.5000000), wk =   0.3750000
        k(    7) = (   0.0000000  -1.0000000   0.0000000), wk =   0.0937500
        k(    8) = (  -0.5000000  -1.0000000   0.0000000), wk =   0.1875000

     Dense  grid:    13371 G-vectors     FFT dimensions: (  36,  36,  36)

     Estimated max dynamical RAM per process >       1.97 MB

     Estimated total dynamical RAM >     229.04 MB

     Initial potential from superposition of free atoms

     starting charge      27.9964, renormalised to      28.0000
     Starting wfcs are   18 randomized atomic wfcs

     total cpu time spent up to now is        0.7 secs

     per-process dynamical memory:     9.6 Mb

     Self-consistent Calculation

     iteration #  1     ecut=    36.00 Ry     beta= 0.70
     Davidson diagonalization with overlap
     ethr =  1.00E-02,  avg # of iterations =  1.5

     Threshold (ethr) on eigenvalues was too large:
     Diagonalizing with lowered threshold

     Davidson diagonalization with overlap
     ethr =  8.50E-05,  avg # of iterations =  2.0

     total cpu time spent up to now is        0.7 secs

     total energy              =    -325.59427540 Ry
     estimated scf accuracy    <       0.02874259 Ry

     iteration #  2     ecut=    36.00 Ry     beta= 0.70
     Davidson diagonalization with overlap
     ethr =  1.03E-04,  avg # of iterations =  1.0

     negative rho (up, down):  2.398E-05 0.000E+00

     total cpu time spent up to now is        0.8 secs

     total energy              =    -325.59523082 Ry
     estimated scf accuracy    <       0.00164160 Ry

     iteration #  3     ecut=    36.00 Ry     beta= 0.70
     Davidson diagonalization with overlap
     ethr =  5.86E-06,  avg # of iterations =  2.1

     negative rho (up, down):  3.881E-05 0.000E+00

     total cpu time spent up to now is        0.8 secs

     total energy              =    -325.59536628 Ry
     estimated scf accuracy    <       0.00003908 Ry

     iteration #  4     ecut=    36.00 Ry     beta= 0.70
     Davidson diagonalization with overlap
     ethr =  1.40E-07,  avg # of iterations =  3.8

     negative rho (up, down):  4.801E-05 0.000E+00

     total cpu time spent up to now is        0.8 secs

     total energy              =    -325.59537885 Ry
     estimated scf accuracy    <       0.00000325 Ry

     iteration #  5     ecut=    36.00 Ry     beta= 0.70
     Davidson diagonalization with overlap
     ethr =  1.16E-08,  avg # of iterations =  3.6

     negative rho (up, down):  4.692E-05 0.000E+00

     total cpu time spent up to now is        0.8 secs

     total energy              =    -325.59537944 Ry
     estimated scf accuracy    <       0.00000034 Ry

     iteration #  6     ecut=    36.00 Ry     beta= 0.70
     Davidson diagonalization with overlap
     ethr =  1.20E-09,  avg # of iterations =  2.1

     negative rho (up, down):  4.750E-05 0.000E+00

     total cpu time spent up to now is        0.8 secs

     End of self-consistent calculation

          k = 0.0000 0.0000 0.0000 (  1687 PWs)   bands (ev):

   -13.6966 -13.6966 -13.6966 -13.6367 -13.6367 -13.3198 -13.3198 -13.3198
   -13.3108 -13.3108  -2.7017   7.3313   8.0641   8.0641

          k =-0.2500 0.2500-0.2500 (  1657 PWs)   bands (ev):

   -13.7219 -13.7219 -13.6823 -13.5956 -13.5956 -13.3647 -13.3647 -13.3366
   -13.2735 -13.2735  -2.1097   3.9170   7.3010   7.3010

          k = 0.5000-0.5000 0.5000 (  1676 PWs)   bands (ev):

   -13.7327 -13.7327 -13.6698 -13.5751 -13.5751 -13.3805 -13.3805 -13.3544
   -13.2627 -13.2627  -1.0634   1.6340   6.8436   6.8436

          k = 0.0000 0.5000 0.0000 (  1700 PWs)   bands (ev):

   -13.7243 -13.7243 -13.7011 -13.5888 -13.5390 -13.4529 -13.3578 -13.2896
   -13.2790 -13.2790  -1.8927   3.8024   6.3568   6.3568

          k = 0.7500-0.2500 0.7500 (  1667 PWs)   bands (ev):

   -13.7627 -13.7419 -13.6367 -13.5372 -13.5080 -13.4801 -13.4118 -13.3637
   -13.2502 -13.2292  -0.7155   1.6718   5.0201   6.0395

          k = 0.5000 0.0000 0.5000 (  1658 PWs)   bands (ev):

   -13.7559 -13.7436 -13.6297 -13.5718 -13.5337 -13.4258 -13.3955 -13.3808
   -13.2461 -13.2393  -1.2028   2.3641   4.9307   6.7750

          k = 0.0000-1.0000 0.0000 (  1660 PWs)   bands (ev):

   -13.7476 -13.7476 -13.6119 -13.6119 -13.4715 -13.4715 -13.3861 -13.3861
   -13.2415 -13.2415   0.4166   0.4166   5.4850   5.4850

          k =-0.5000-1.0000 0.0000 (  1648 PWs)   bands (ev):

   -13.7660 -13.7660 -13.5525 -13.5525 -13.4805 -13.4805 -13.4354 -13.4354
   -13.2230 -13.2230   0.4768   0.4768   4.9009   4.9009

     highest occupied level (ev):     8.0641

!    total energy              =    -325.59537949 Ry
     estimated scf accuracy    <       0.00000006 Ry

     The total energy is the sum of the following terms:
     one-electron contribution =    -150.94781621 Ry
     hartree contribution      =      93.24489070 Ry
     xc contribution           =     -95.23302358 Ry
     ewald contribution        =    -172.65943040 Ry

     convergence has been achieved in   6 iterations

     Writing all to output data dir ./alpha-sn-scf/alphatin.save/ :
     XML data file, charge density, pseudopotentials, collected wavefunctions

     init_run     :      0.35s CPU      0.37s WALL (       1 calls)
     electrons    :      0.12s CPU      0.17s WALL (       1 calls)

     Called by init_run:
     wfcinit      :      0.01s CPU      0.02s WALL (       1 calls)
     potinit      :      0.02s CPU      0.02s WALL (       1 calls)
     hinit0       :      0.29s CPU      0.29s WALL (       1 calls)

     Called by electrons:
     c_bands      :      0.06s CPU      0.07s WALL (       7 calls)
     sum_band     :      0.03s CPU      0.03s WALL (       7 calls)
     v_of_rho     :      0.03s CPU      0.03s WALL (       7 calls)
     newd         :      0.01s CPU      0.01s WALL (       7 calls)
     mix_rho      :      0.00s CPU      0.00s WALL (       7 calls)

     Called by c_bands:
     init_us_2    :      0.00s CPU      0.00s WALL (      15 calls)
     cegterg      :      0.05s CPU      0.06s WALL (       7 calls)

     Called by *egterg:
     cdiaghg      :      0.01s CPU      0.01s WALL (      26 calls)
     h_psi        :      0.04s CPU      0.05s WALL (      28 calls)
     s_psi        :      0.00s CPU      0.00s WALL (      28 calls)
     g_psi        :      0.00s CPU      0.00s WALL (      20 calls)

     Called by h_psi:
     h_psi:calbec :      0.00s CPU      0.00s WALL (      28 calls)
     vloc_psi     :      0.04s CPU      0.05s WALL (      28 calls)
     add_vuspsi   :      0.00s CPU      0.00s WALL (      28 calls)

     General routines
     calbec       :      0.00s CPU      0.00s WALL (      35 calls)
     fft          :      0.27s CPU      0.27s WALL (      78 calls)
     ffts         :      0.00s CPU      0.00s WALL (       7 calls)
     fftw         :      0.04s CPU      0.05s WALL (     614 calls)

     Parallel routines

     PWSCF        :      0.84s CPU      1.05s WALL


   This run was terminated on:  15:48:20   5Feb2026            

=------------------------------------------------------------------------------=
   JOB DONE.
=------------------------------------------------------------------------------=
