
     Program PWSCF v.7.3.1 starts on  4Feb2026 at 12: 4:29 

     This program is part of the open-source Quantum ESPRESSO suite
     for quantum simulation of materials; please cite
         "P. Giannozzi et al., J. Phys.:Condens. Matter 21 395502 (2009);
         "P. Giannozzi et al., J. Phys.:Condens. Matter 29 465901 (2017);
         "P. Giannozzi et al., J. Chem. Phys. 152 154105 (2020);
          URL http://www.quantum-espresso.org", 
     in publications or presentations arising from this work. More details at
     http://www.quantum-espresso.org/quote

     Parallel version (MPI), running on   128 processors

     MPI processes distributed on     1 nodes
     240517 MiB available memory on the printing compute node when the environment starts

     Waiting for input...
     Reading input from standard input
     Message from routine read_cards :
     DEPRECATED: no units specified in ATOMIC_POSITIONS card
     Message from routine read_cards :
     ATOMIC_POSITIONS: units set to alat

     Current dimensions of program PWSCF are:
     Max number of different atomic species (ntypx) = 10
     Max number of k-points (npk) =  40000
     Max angular momentum in pseudopotentials (lmaxx) =  4

     K-points division:     npool     =       4
     R & G space division:  proc/nbgrp/npool/nimage =      32
     Subspace diagonalization in iterative solution of the eigenvalue problem:
     a serial algorithm will be used


     Parallelization info
     --------------------
     sticks:   dense  smooth     PW     G-vecs:    dense   smooth      PW
     Min         232     232     61                13183    13183    1792
     Max         233     233     62                13185    13185    1796
     Sum        7447    7447   1957               421897   421897   57439

     Using Slab Decomposition



     bravais-lattice index     =            2
     lattice parameter (alat)  =      12.2300  a.u.
     unit-cell volume          =     457.3191 (a.u.)^3
     number of atoms/cell      =            2
     number of atomic types    =            1
     number of electrons       =        28.00
     number of Kohn-Sham states=           14
     kinetic-energy cutoff     =     360.0000  Ry
     charge density cutoff     =    1440.0000  Ry
     scf convergence threshold =      1.0E-07
     mixing beta               =       0.7000
     number of iterations used =            8  plain     mixing
     Exchange-correlation=  SLA  PW   GGX  GGC
                           (   1   4   2   2   0   0   0)

     celldm(1)=  12.230000  celldm(2)=   0.000000  celldm(3)=   0.000000
     celldm(4)=   0.000000  celldm(5)=   0.000000  celldm(6)=   0.000000

     crystal axes: (cart. coord. in units of alat)
               a(1) = (  -0.500000   0.000000   0.500000 )  
               a(2) = (   0.000000   0.500000   0.500000 )  
               a(3) = (  -0.500000   0.500000   0.000000 )  

     reciprocal axes: (cart. coord. in units 2 pi/alat)
               b(1) = ( -1.000000 -1.000000  1.000000 )  
               b(2) = (  1.000000  1.000000  1.000000 )  
               b(3) = ( -1.000000  1.000000 -1.000000 )  


     PseudoPot. # 1 for Sn read from file:
     ./Sn.pw91-n-van.UPF
     MD5 check sum: a38d2a872edd1a4efd76c0a1a38f7031
     Pseudo is Ultrasoft + core correction, Zval = 14.0
     Generated by new atomic code, or converted to UPF format
     Using radial grid of  891 points,  6 beta functions with: 
                l(1) =   0
                l(2) =   0
                l(3) =   1
                l(4) =   1
                l(5) =   2
                l(6) =   2
     Q(r) pseudized with  8 coefficients,  rinner =    1.100   1.100   1.100
                                                       1.100   1.100

     atomic species   valence    mass     pseudopotential
     Sn               14.00   118.70000     Sn( 1.00)

     48 Sym. Ops., with inversion, found (24 have fractional translation)



   Cartesian axes

     site n.     atom                  positions (alat units)
         1        Sn     tau(   1) = (   0.0000000   0.0000000   0.0000000  )
         2        Sn     tau(   2) = (   0.2500000   0.2500000   0.2500000  )

     number of k points=     8
                       cart. coord. in units 2pi/alat
        k(    1) = (   0.0000000   0.0000000   0.0000000), wk =   0.0312500
        k(    2) = (  -0.2500000   0.2500000  -0.2500000), wk =   0.2500000
        k(    3) = (   0.5000000  -0.5000000   0.5000000), wk =   0.1250000
        k(    4) = (   0.0000000   0.5000000   0.0000000), wk =   0.1875000
        k(    5) = (   0.7500000  -0.2500000   0.7500000), wk =   0.7500000
        k(    6) = (   0.5000000   0.0000000   0.5000000), wk =   0.3750000
        k(    7) = (   0.0000000  -1.0000000   0.0000000), wk =   0.0937500
        k(    8) = (  -0.5000000  -1.0000000   0.0000000), wk =   0.1875000

     Dense  grid:   421897 G-vectors     FFT dimensions: ( 108, 108, 108)

     Estimated max dynamical RAM per process >      23.30 MB

     Estimated total dynamical RAM >       2.61 GB

     Initial potential from superposition of free atoms

     starting charge      27.9964, renormalised to      28.0000
     Starting wfcs are   18 randomized atomic wfcs

     total cpu time spent up to now is        1.4 secs

     per-process dynamical memory:    25.9 Mb

     Self-consistent Calculation

     iteration #  1     ecut=   360.00 Ry     beta= 0.70
     Davidson diagonalization with overlap
     ethr =  1.00E-02,  avg # of iterations =  2.5

     Threshold (ethr) on eigenvalues was too large:
     Diagonalizing with lowered threshold

     Davidson diagonalization with overlap
     ethr =  5.16E-05,  avg # of iterations =  4.5

     total cpu time spent up to now is        2.0 secs

     total energy              =    -325.51905018 Ry
     estimated scf accuracy    <       0.01961531 Ry

     iteration #  2     ecut=   360.00 Ry     beta= 0.70
     Davidson diagonalization with overlap
     ethr =  7.01E-05,  avg # of iterations =  4.4

     total cpu time spent up to now is        2.3 secs

     total energy              =    -325.59393239 Ry
     estimated scf accuracy    <       0.03758735 Ry

     iteration #  3     ecut=   360.00 Ry     beta= 0.70
     Davidson diagonalization with overlap
     ethr =  7.01E-05,  avg # of iterations =  1.6

     total cpu time spent up to now is        2.6 secs

     total energy              =    -325.62224036 Ry
     estimated scf accuracy    <       0.01569566 Ry

     iteration #  4     ecut=   360.00 Ry     beta= 0.70
     Davidson diagonalization with overlap
     ethr =  5.61E-05,  avg # of iterations =  2.8

     total cpu time spent up to now is        2.9 secs

     total energy              =    -325.63586835 Ry
     estimated scf accuracy    <       0.00025439 Ry

     iteration #  5     ecut=   360.00 Ry     beta= 0.70
     Davidson diagonalization with overlap
     ethr =  9.09E-07,  avg # of iterations =  2.9

     negative rho (up, down):  3.128E-07 0.000E+00

     total cpu time spent up to now is        3.1 secs

     total energy              =    -325.63607550 Ry
     estimated scf accuracy    <       0.00022588 Ry

     iteration #  6     ecut=   360.00 Ry     beta= 0.70
     Davidson diagonalization with overlap
     ethr =  8.07E-07,  avg # of iterations =  2.0

     negative rho (up, down):  7.069E-07 0.000E+00

     total cpu time spent up to now is        3.4 secs

     total energy              =    -325.63609822 Ry
     estimated scf accuracy    <       0.00000582 Ry

     iteration #  7     ecut=   360.00 Ry     beta= 0.70
     Davidson diagonalization with overlap
     ethr =  2.08E-08,  avg # of iterations =  2.5

     negative rho (up, down):  4.696E-07 0.000E+00

     total cpu time spent up to now is        3.7 secs

     total energy              =    -325.63612018 Ry
     estimated scf accuracy    <       0.00000082 Ry

     iteration #  8     ecut=   360.00 Ry     beta= 0.70
     Davidson diagonalization with overlap
     ethr =  2.92E-09,  avg # of iterations =  2.8

     negative rho (up, down):  4.988E-07 0.000E+00

     total cpu time spent up to now is        4.0 secs

     End of self-consistent calculation

          k = 0.0000 0.0000 0.0000 ( 52537 PWs)   bands (ev):

   -13.7152 -13.7152 -13.7152 -13.6561 -13.6561 -13.3388 -13.3388 -13.3388
   -13.3301 -13.3301  -2.7005   7.3370   8.0631   8.0631

          k =-0.2500 0.2500-0.2500 ( 52732 PWs)   bands (ev):

   -13.7415 -13.7415 -13.7021 -13.6153 -13.6153 -13.3845 -13.3845 -13.3557
   -13.2930 -13.2930  -2.1085   3.9183   7.3001   7.3001

          k = 0.5000-0.5000 0.5000 ( 52746 PWs)   bands (ev):

   -13.7523 -13.7523 -13.6881 -13.5941 -13.5941 -13.4007 -13.4007 -13.3734
   -13.2813 -13.2813  -1.0620   1.6349   6.8429   6.8429

          k = 0.0000 0.5000 0.0000 ( 52717 PWs)   bands (ev):

   -13.7434 -13.7434 -13.7193 -13.6074 -13.5577 -13.4713 -13.3769 -13.3087
   -13.2976 -13.2976  -1.8915   3.8045   6.3559   6.3559

          k = 0.7500-0.2500 0.7500 ( 52776 PWs)   bands (ev):

   -13.7822 -13.7617 -13.6554 -13.5566 -13.5275 -13.4993 -13.4317 -13.3831
   -13.2693 -13.2482  -0.7141   1.6733   5.0192   6.0388

          k = 0.5000 0.0000 0.5000 ( 52754 PWs)   bands (ev):

   -13.7756 -13.7636 -13.6494 -13.5912 -13.5535 -13.4457 -13.4147 -13.4004
   -13.2654 -13.2585  -1.2015   2.3657   4.9297   6.7742

          k = 0.0000-1.0000 0.0000 ( 52792 PWs)   bands (ev):

   -13.7676 -13.7676 -13.6311 -13.6311 -13.4913 -13.4913 -13.4059 -13.4059
   -13.2602 -13.2602   0.4180   0.4180   5.4843   5.4843

          k =-0.5000-1.0000 0.0000 ( 52780 PWs)   bands (ev):

   -13.7857 -13.7857 -13.5722 -13.5722 -13.5005 -13.5005 -13.4551 -13.4551
   -13.2427 -13.2427   0.4783   0.4783   4.8998   4.8998

     highest occupied level (ev):     8.0631

!    total energy              =    -325.63612054 Ry
     estimated scf accuracy    <       0.00000001 Ry

     The total energy is the sum of the following terms:
     one-electron contribution =    -151.00160587 Ry
     hartree contribution      =      93.25923866 Ry
     xc contribution           =     -95.23432297 Ry
     ewald contribution        =    -172.65943036 Ry

     convergence has been achieved in   8 iterations

     Writing all to output data dir ./alpha-sn-scf/alphatin.save/ :
     XML data file, charge density, pseudopotentials, collected wavefunctions

     init_run     :      1.03s CPU      1.11s WALL (       1 calls)
     electrons    :      2.41s CPU      2.72s WALL (       1 calls)

     Called by init_run:
     wfcinit      :      0.07s CPU      0.09s WALL (       1 calls)
     potinit      :      0.07s CPU      0.08s WALL (       1 calls)
     hinit0       :      0.50s CPU      0.51s WALL (       1 calls)

     Called by electrons:
     c_bands      :      1.29s CPU      1.34s WALL (       9 calls)
     sum_band     :      0.51s CPU      0.54s WALL (       9 calls)
     v_of_rho     :      0.39s CPU      0.45s WALL (       9 calls)
     newd         :      0.19s CPU      0.21s WALL (       9 calls)
     mix_rho      :      0.05s CPU      0.06s WALL (       9 calls)

     Called by c_bands:
     init_us_2    :      0.03s CPU      0.03s WALL (      38 calls)
     cegterg      :      1.21s CPU      1.24s WALL (      18 calls)

     Called by *egterg:
     cdiaghg      :      0.03s CPU      0.03s WALL (      80 calls)
     h_psi        :      1.11s CPU      1.14s WALL (      84 calls)
     s_psi        :      0.02s CPU      0.02s WALL (      84 calls)
     g_psi        :      0.00s CPU      0.00s WALL (      64 calls)

     Called by h_psi:
     h_psi:calbec :      0.05s CPU      0.05s WALL (      84 calls)
     vloc_psi     :      1.03s CPU      1.05s WALL (      84 calls)
     add_vuspsi   :      0.02s CPU      0.02s WALL (      84 calls)

     General routines
     calbec       :      0.06s CPU      0.06s WALL (     102 calls)
     fft          :      0.64s CPU      0.70s WALL (     100 calls)
     ffts         :      0.02s CPU      0.02s WALL (       9 calls)
     fftw         :      1.07s CPU      1.10s WALL (    1596 calls)

     Parallel routines

     PWSCF        :      3.71s CPU      4.55s WALL


   This run was terminated on:  12: 4:34   4Feb2026            

=------------------------------------------------------------------------------=
   JOB DONE.
=------------------------------------------------------------------------------=
