
     Program PWSCF v.7.3.1 starts on  5Feb2026 at 15:48:27 

     This program is part of the open-source Quantum ESPRESSO suite
     for quantum simulation of materials; please cite
         "P. Giannozzi et al., J. Phys.:Condens. Matter 21 395502 (2009);
         "P. Giannozzi et al., J. Phys.:Condens. Matter 29 465901 (2017);
         "P. Giannozzi et al., J. Chem. Phys. 152 154105 (2020);
          URL http://www.quantum-espresso.org", 
     in publications or presentations arising from this work. More details at
     http://www.quantum-espresso.org/quote

     Parallel version (MPI), running on   128 processors

     MPI processes distributed on     1 nodes
     242474 MiB available memory on the printing compute node when the environment starts

     Waiting for input...
     Reading input from standard input
     Message from routine read_cards :
     DEPRECATED: no units specified in ATOMIC_POSITIONS card
     Message from routine read_cards :
     ATOMIC_POSITIONS: units set to alat

     Current dimensions of program PWSCF are:
     Max number of different atomic species (ntypx) = 10
     Max number of k-points (npk) =  40000
     Max angular momentum in pseudopotentials (lmaxx) =  4

     K-points division:     npool     =       8
     R & G space division:  proc/nbgrp/npool/nimage =      16
     Subspace diagonalization in iterative solution of the eigenvalue problem:
     a serial algorithm will be used


     Parallelization info
     --------------------
     sticks:   dense  smooth     PW     G-vecs:    dense   smooth      PW
     Min          48      48     15                  894      894     151
     Max          49      49     16                  898      898     153
     Sum         769     769    241                14331    14331    2421

     Using Slab Decomposition



     bravais-lattice index     =            2
     lattice parameter (alat)  =      12.2300  a.u.
     unit-cell volume          =     457.3191 (a.u.)^3
     number of atoms/cell      =            2
     number of atomic types    =            1
     number of electrons       =        28.00
     number of Kohn-Sham states=           14
     kinetic-energy cutoff     =      38.0000  Ry
     charge density cutoff     =     152.0000  Ry
     scf convergence threshold =      1.0E-07
     mixing beta               =       0.7000
     number of iterations used =            8  plain     mixing
     Exchange-correlation=  SLA  PW   GGX  GGC
                           (   1   4   2   2   0   0   0)

     celldm(1)=  12.230000  celldm(2)=   0.000000  celldm(3)=   0.000000
     celldm(4)=   0.000000  celldm(5)=   0.000000  celldm(6)=   0.000000

     crystal axes: (cart. coord. in units of alat)
               a(1) = (  -0.500000   0.000000   0.500000 )  
               a(2) = (   0.000000   0.500000   0.500000 )  
               a(3) = (  -0.500000   0.500000   0.000000 )  

     reciprocal axes: (cart. coord. in units 2 pi/alat)
               b(1) = ( -1.000000 -1.000000  1.000000 )  
               b(2) = (  1.000000  1.000000  1.000000 )  
               b(3) = ( -1.000000  1.000000 -1.000000 )  


     PseudoPot. # 1 for Sn read from file:
     ./Sn.pw91-n-van.UPF
     MD5 check sum: a38d2a872edd1a4efd76c0a1a38f7031
     Pseudo is Ultrasoft + core correction, Zval = 14.0
     Generated by new atomic code, or converted to UPF format
     Using radial grid of  891 points,  6 beta functions with: 
                l(1) =   0
                l(2) =   0
                l(3) =   1
                l(4) =   1
                l(5) =   2
                l(6) =   2
     Q(r) pseudized with  8 coefficients,  rinner =    1.100   1.100   1.100
                                                       1.100   1.100

     atomic species   valence    mass     pseudopotential
     Sn               14.00   118.70000     Sn( 1.00)

     48 Sym. Ops., with inversion, found (24 have fractional translation)



   Cartesian axes

     site n.     atom                  positions (alat units)
         1        Sn     tau(   1) = (   0.0000000   0.0000000   0.0000000  )
         2        Sn     tau(   2) = (   0.2500000   0.2500000   0.2500000  )

     number of k points=     8
                       cart. coord. in units 2pi/alat
        k(    1) = (   0.0000000   0.0000000   0.0000000), wk =   0.0312500
        k(    2) = (  -0.2500000   0.2500000  -0.2500000), wk =   0.2500000
        k(    3) = (   0.5000000  -0.5000000   0.5000000), wk =   0.1250000
        k(    4) = (   0.0000000   0.5000000   0.0000000), wk =   0.1875000
        k(    5) = (   0.7500000  -0.2500000   0.7500000), wk =   0.7500000
        k(    6) = (   0.5000000   0.0000000   0.5000000), wk =   0.3750000
        k(    7) = (   0.0000000  -1.0000000   0.0000000), wk =   0.0937500
        k(    8) = (  -0.5000000  -1.0000000   0.0000000), wk =   0.1875000

     Dense  grid:    14331 G-vectors     FFT dimensions: (  36,  36,  36)

     Estimated max dynamical RAM per process >       2.05 MB

     Estimated total dynamical RAM >     237.79 MB

     Initial potential from superposition of free atoms

     starting charge      27.9964, renormalised to      28.0000
     Starting wfcs are   18 randomized atomic wfcs

     total cpu time spent up to now is        0.7 secs

     per-process dynamical memory:     9.6 Mb

     Self-consistent Calculation

     iteration #  1     ecut=    38.00 Ry     beta= 0.70
     Davidson diagonalization with overlap
     ethr =  1.00E-02,  avg # of iterations =  1.4

     Threshold (ethr) on eigenvalues was too large:
     Diagonalizing with lowered threshold

     Davidson diagonalization with overlap
     ethr =  8.38E-05,  avg # of iterations =  2.2

     total cpu time spent up to now is        0.7 secs

     total energy              =    -325.59790493 Ry
     estimated scf accuracy    <       0.02892658 Ry

     iteration #  2     ecut=    38.00 Ry     beta= 0.70
     Davidson diagonalization with overlap
     ethr =  1.03E-04,  avg # of iterations =  1.0

     negative rho (up, down):  2.539E-05 0.000E+00

     total cpu time spent up to now is        0.8 secs

     total energy              =    -325.59888491 Ry
     estimated scf accuracy    <       0.00159255 Ry

     iteration #  3     ecut=    38.00 Ry     beta= 0.70
     Davidson diagonalization with overlap
     ethr =  5.69E-06,  avg # of iterations =  2.1

     negative rho (up, down):  4.015E-05 0.000E+00

     total cpu time spent up to now is        0.8 secs

     total energy              =    -325.59901002 Ry
     estimated scf accuracy    <       0.00003628 Ry

     iteration #  4     ecut=    38.00 Ry     beta= 0.70
     Davidson diagonalization with overlap
     ethr =  1.30E-07,  avg # of iterations =  3.2

     negative rho (up, down):  4.862E-05 0.000E+00

     total cpu time spent up to now is        0.8 secs

     total energy              =    -325.59902096 Ry
     estimated scf accuracy    <       0.00000296 Ry

     iteration #  5     ecut=    38.00 Ry     beta= 0.70
     Davidson diagonalization with overlap
     ethr =  1.06E-08,  avg # of iterations =  3.6

     negative rho (up, down):  4.776E-05 0.000E+00

     total cpu time spent up to now is        0.8 secs

     total energy              =    -325.59902156 Ry
     estimated scf accuracy    <       0.00000024 Ry

     iteration #  6     ecut=    38.00 Ry     beta= 0.70
     Davidson diagonalization with overlap
     ethr =  8.44E-10,  avg # of iterations =  2.5

     negative rho (up, down):  4.837E-05 0.000E+00

     total cpu time spent up to now is        0.8 secs

     End of self-consistent calculation

          k = 0.0000 0.0000 0.0000 (  1807 PWs)   bands (ev):

   -13.6973 -13.6973 -13.6973 -13.6391 -13.6391 -13.3223 -13.3223 -13.3223
   -13.3117 -13.3117  -2.7013   7.3324   8.0640   8.0640

          k =-0.2500 0.2500-0.2500 (  1820 PWs)   bands (ev):

   -13.7241 -13.7241 -13.6845 -13.5988 -13.5988 -13.3667 -13.3667 -13.3386
   -13.2756 -13.2756  -2.1093   3.9173   7.3008   7.3008

          k = 0.5000-0.5000 0.5000 (  1802 PWs)   bands (ev):

   -13.7342 -13.7342 -13.6710 -13.5773 -13.5773 -13.3830 -13.3830 -13.3557
   -13.2634 -13.2634  -1.0630   1.6343   6.8435   6.8435

          k = 0.0000 0.5000 0.0000 (  1812 PWs)   bands (ev):

   -13.7259 -13.7259 -13.7022 -13.5900 -13.5405 -13.4545 -13.3588 -13.2913
   -13.2802 -13.2802  -1.8924   3.8029   6.3567   6.3567

          k = 0.7500-0.2500 0.7500 (  1804 PWs)   bands (ev):

   -13.7646 -13.7439 -13.6382 -13.5395 -13.5103 -13.4820 -13.4140 -13.3655
   -13.2513 -13.2307  -0.7151   1.6722   5.0201   6.0394

          k = 0.5000 0.0000 0.5000 (  1812 PWs)   bands (ev):

   -13.7581 -13.7464 -13.6323 -13.5738 -13.5362 -13.4287 -13.3971 -13.3829
   -13.2479 -13.2408  -1.2024   2.3645   4.9307   6.7749

          k = 0.0000-1.0000 0.0000 (  1772 PWs)   bands (ev):

   -13.7497 -13.7497 -13.6137 -13.6137 -13.4729 -13.4729 -13.3880 -13.3880
   -13.2419 -13.2419   0.4170   0.4170   5.4849   5.4849

          k =-0.5000-1.0000 0.0000 (  1800 PWs)   bands (ev):

   -13.7678 -13.7678 -13.5553 -13.5553 -13.4829 -13.4829 -13.4371 -13.4371
   -13.2252 -13.2252   0.4772   0.4772   4.9008   4.9008

     highest occupied level (ev):     8.0640

!    total energy              =    -325.59902160 Ry
     estimated scf accuracy    <       0.00000007 Ry

     The total energy is the sum of the following terms:
     one-electron contribution =    -150.95296794 Ry
     hartree contribution      =      93.24570156 Ry
     xc contribution           =     -95.23232480 Ry
     ewald contribution        =    -172.65943042 Ry

     convergence has been achieved in   6 iterations

     Writing all to output data dir ./alpha-sn-scf/alphatin.save/ :
     XML data file, charge density, pseudopotentials, collected wavefunctions

     init_run     :      0.33s CPU      0.37s WALL (       1 calls)
     electrons    :      0.12s CPU      0.16s WALL (       1 calls)

     Called by init_run:
     wfcinit      :      0.01s CPU      0.02s WALL (       1 calls)
     potinit      :      0.01s CPU      0.02s WALL (       1 calls)
     hinit0       :      0.29s CPU      0.29s WALL (       1 calls)

     Called by electrons:
     c_bands      :      0.06s CPU      0.07s WALL (       7 calls)
     sum_band     :      0.03s CPU      0.03s WALL (       7 calls)
     v_of_rho     :      0.03s CPU      0.03s WALL (       7 calls)
     newd         :      0.01s CPU      0.01s WALL (       7 calls)
     mix_rho      :      0.00s CPU      0.00s WALL (       7 calls)

     Called by c_bands:
     init_us_2    :      0.00s CPU      0.00s WALL (      15 calls)
     cegterg      :      0.05s CPU      0.06s WALL (       7 calls)

     Called by *egterg:
     cdiaghg      :      0.01s CPU      0.01s WALL (      26 calls)
     h_psi        :      0.04s CPU      0.05s WALL (      28 calls)
     s_psi        :      0.00s CPU      0.00s WALL (      28 calls)
     g_psi        :      0.00s CPU      0.00s WALL (      20 calls)

     Called by h_psi:
     h_psi:calbec :      0.00s CPU      0.00s WALL (      28 calls)
     vloc_psi     :      0.04s CPU      0.05s WALL (      28 calls)
     add_vuspsi   :      0.00s CPU      0.00s WALL (      28 calls)

     General routines
     calbec       :      0.00s CPU      0.00s WALL (      35 calls)
     fft          :      0.26s CPU      0.27s WALL (      78 calls)
     ffts         :      0.00s CPU      0.00s WALL (       7 calls)
     fftw         :      0.05s CPU      0.05s WALL (     626 calls)

     Parallel routines

     PWSCF        :      0.70s CPU      0.94s WALL


   This run was terminated on:  15:48:28   5Feb2026            

=------------------------------------------------------------------------------=
   JOB DONE.
=------------------------------------------------------------------------------=
