
     Program PWSCF v.7.3.1 starts on  4Feb2026 at 12: 5: 7 

     This program is part of the open-source Quantum ESPRESSO suite
     for quantum simulation of materials; please cite
         "P. Giannozzi et al., J. Phys.:Condens. Matter 21 395502 (2009);
         "P. Giannozzi et al., J. Phys.:Condens. Matter 29 465901 (2017);
         "P. Giannozzi et al., J. Chem. Phys. 152 154105 (2020);
          URL http://www.quantum-espresso.org", 
     in publications or presentations arising from this work. More details at
     http://www.quantum-espresso.org/quote

     Parallel version (MPI), running on   128 processors

     MPI processes distributed on     1 nodes
     240500 MiB available memory on the printing compute node when the environment starts

     Waiting for input...
     Reading input from standard input
     Message from routine read_cards :
     DEPRECATED: no units specified in ATOMIC_POSITIONS card
     Message from routine read_cards :
     ATOMIC_POSITIONS: units set to alat

     Current dimensions of program PWSCF are:
     Max number of different atomic species (ntypx) = 10
     Max number of k-points (npk) =  40000
     Max angular momentum in pseudopotentials (lmaxx) =  4

     K-points division:     npool     =       4
     R & G space division:  proc/nbgrp/npool/nimage =      32
     Subspace diagonalization in iterative solution of the eigenvalue problem:
     a serial algorithm will be used


     Parallelization info
     --------------------
     sticks:   dense  smooth     PW     G-vecs:    dense   smooth      PW
     Min         244     244     64                14289    14289    1949
     Max         245     245     65                14294    14294    1956
     Sum        7813    7813   2077               457287   457287   62487

     Using Slab Decomposition



     bravais-lattice index     =            2
     lattice parameter (alat)  =      12.2300  a.u.
     unit-cell volume          =     457.3191 (a.u.)^3
     number of atoms/cell      =            2
     number of atomic types    =            1
     number of electrons       =        28.00
     number of Kohn-Sham states=           14
     kinetic-energy cutoff     =     380.0000  Ry
     charge density cutoff     =    1520.0000  Ry
     scf convergence threshold =      1.0E-07
     mixing beta               =       0.7000
     number of iterations used =            8  plain     mixing
     Exchange-correlation=  SLA  PW   GGX  GGC
                           (   1   4   2   2   0   0   0)

     celldm(1)=  12.230000  celldm(2)=   0.000000  celldm(3)=   0.000000
     celldm(4)=   0.000000  celldm(5)=   0.000000  celldm(6)=   0.000000

     crystal axes: (cart. coord. in units of alat)
               a(1) = (  -0.500000   0.000000   0.500000 )  
               a(2) = (   0.000000   0.500000   0.500000 )  
               a(3) = (  -0.500000   0.500000   0.000000 )  

     reciprocal axes: (cart. coord. in units 2 pi/alat)
               b(1) = ( -1.000000 -1.000000  1.000000 )  
               b(2) = (  1.000000  1.000000  1.000000 )  
               b(3) = ( -1.000000  1.000000 -1.000000 )  


     PseudoPot. # 1 for Sn read from file:
     ./Sn.pw91-n-van.UPF
     MD5 check sum: a38d2a872edd1a4efd76c0a1a38f7031
     Pseudo is Ultrasoft + core correction, Zval = 14.0
     Generated by new atomic code, or converted to UPF format
     Using radial grid of  891 points,  6 beta functions with: 
                l(1) =   0
                l(2) =   0
                l(3) =   1
                l(4) =   1
                l(5) =   2
                l(6) =   2
     Q(r) pseudized with  8 coefficients,  rinner =    1.100   1.100   1.100
                                                       1.100   1.100

     atomic species   valence    mass     pseudopotential
     Sn               14.00   118.70000     Sn( 1.00)

     48 Sym. Ops., with inversion, found (24 have fractional translation)



   Cartesian axes

     site n.     atom                  positions (alat units)
         1        Sn     tau(   1) = (   0.0000000   0.0000000   0.0000000  )
         2        Sn     tau(   2) = (   0.2500000   0.2500000   0.2500000  )

     number of k points=     8
                       cart. coord. in units 2pi/alat
        k(    1) = (   0.0000000   0.0000000   0.0000000), wk =   0.0312500
        k(    2) = (  -0.2500000   0.2500000  -0.2500000), wk =   0.2500000
        k(    3) = (   0.5000000  -0.5000000   0.5000000), wk =   0.1250000
        k(    4) = (   0.0000000   0.5000000   0.0000000), wk =   0.1875000
        k(    5) = (   0.7500000  -0.2500000   0.7500000), wk =   0.7500000
        k(    6) = (   0.5000000   0.0000000   0.5000000), wk =   0.3750000
        k(    7) = (   0.0000000  -1.0000000   0.0000000), wk =   0.0937500
        k(    8) = (  -0.5000000  -1.0000000   0.0000000), wk =   0.1875000

     Dense  grid:   457287 G-vectors     FFT dimensions: ( 108, 108, 108)

     Estimated max dynamical RAM per process >      24.81 MB

     Estimated total dynamical RAM >       2.77 GB

     Initial potential from superposition of free atoms

     starting charge      27.9964, renormalised to      28.0000

     negative rho (up, down):  2.695E-05 0.000E+00
     Starting wfcs are   18 randomized atomic wfcs

     total cpu time spent up to now is        1.5 secs

     per-process dynamical memory:    26.6 Mb

     Self-consistent Calculation

     iteration #  1     ecut=   380.00 Ry     beta= 0.70
     Davidson diagonalization with overlap
     ethr =  1.00E-02,  avg # of iterations =  2.6

     Threshold (ethr) on eigenvalues was too large:
     Diagonalizing with lowered threshold

     Davidson diagonalization with overlap
     ethr =  5.95E-05,  avg # of iterations =  3.4

     negative rho (up, down):  1.156E-05 0.000E+00

     total cpu time spent up to now is        2.0 secs

     total energy              =    -325.48171861 Ry
     estimated scf accuracy    <       0.02038579 Ry

     iteration #  2     ecut=   380.00 Ry     beta= 0.70
     Davidson diagonalization with overlap
     ethr =  7.28E-05,  avg # of iterations =  5.1

     negative rho (up, down):  6.105E-06 0.000E+00

     total cpu time spent up to now is        2.4 secs

     total energy              =    -325.57848408 Ry
     estimated scf accuracy    <       0.04439071 Ry

     iteration #  3     ecut=   380.00 Ry     beta= 0.70
     Davidson diagonalization with overlap
     ethr =  7.28E-05,  avg # of iterations =  2.0

     total cpu time spent up to now is        2.7 secs

     total energy              =    -325.61087825 Ry
     estimated scf accuracy    <       0.01890260 Ry

     iteration #  4     ecut=   380.00 Ry     beta= 0.70
     Davidson diagonalization with overlap
     ethr =  6.75E-05,  avg # of iterations =  3.0

     total cpu time spent up to now is        3.0 secs

     total energy              =    -325.63088704 Ry
     estimated scf accuracy    <       0.00048646 Ry

     iteration #  5     ecut=   380.00 Ry     beta= 0.70
     Davidson diagonalization with overlap
     ethr =  1.74E-06,  avg # of iterations =  3.4

     total cpu time spent up to now is        3.3 secs

     total energy              =    -325.63523675 Ry
     estimated scf accuracy    <       0.00158237 Ry

     iteration #  6     ecut=   380.00 Ry     beta= 0.70
     Davidson diagonalization with overlap
     ethr =  1.74E-06,  avg # of iterations =  2.4

     total cpu time spent up to now is        3.6 secs

     total energy              =    -325.63638728 Ry
     estimated scf accuracy    <       0.00015069 Ry

     iteration #  7     ecut=   380.00 Ry     beta= 0.70
     Davidson diagonalization with overlap
     ethr =  5.38E-07,  avg # of iterations =  2.0

     total cpu time spent up to now is        3.9 secs

     total energy              =    -325.63639560 Ry
     estimated scf accuracy    <       0.00000482 Ry

     iteration #  8     ecut=   380.00 Ry     beta= 0.70
     Davidson diagonalization with overlap
     ethr =  1.72E-08,  avg # of iterations =  2.1

     negative rho (up, down):  2.205E-07 0.000E+00

     total cpu time spent up to now is        4.2 secs

     total energy              =    -325.63640221 Ry
     estimated scf accuracy    <       0.00000272 Ry

     iteration #  9     ecut=   380.00 Ry     beta= 0.70
     Davidson diagonalization with overlap
     ethr =  9.70E-09,  avg # of iterations =  2.0

     negative rho (up, down):  1.929E-07 0.000E+00

     total cpu time spent up to now is        4.5 secs

     total energy              =    -325.63640304 Ry
     estimated scf accuracy    <       0.00000013 Ry

     iteration # 10     ecut=   380.00 Ry     beta= 0.70
     Davidson diagonalization with overlap
     ethr =  4.79E-10,  avg # of iterations =  1.5

     negative rho (up, down):  1.588E-07 0.000E+00

     total cpu time spent up to now is        4.7 secs

     End of self-consistent calculation

          k = 0.0000 0.0000 0.0000 ( 57001 PWs)   bands (ev):

   -13.7167 -13.7167 -13.7167 -13.6575 -13.6575 -13.3403 -13.3403 -13.3403
   -13.3317 -13.3317  -2.7008   7.3366   8.0627   8.0627

          k =-0.2500 0.2500-0.2500 ( 57191 PWs)   bands (ev):

   -13.7430 -13.7430 -13.7036 -13.6168 -13.6168 -13.3860 -13.3860 -13.3572
   -13.2945 -13.2945  -2.1088   3.9180   7.2998   7.2998

          k = 0.5000-0.5000 0.5000 ( 57200 PWs)   bands (ev):

   -13.7538 -13.7538 -13.6896 -13.5956 -13.5956 -13.4022 -13.4022 -13.3749
   -13.2828 -13.2828  -1.0623   1.6346   6.8426   6.8426

          k = 0.0000 0.5000 0.0000 ( 57154 PWs)   bands (ev):

   -13.7449 -13.7449 -13.7208 -13.6089 -13.5592 -13.4728 -13.3785 -13.3102
   -13.2991 -13.2991  -1.8918   3.8041   6.3557   6.3557

          k = 0.7500-0.2500 0.7500 ( 57219 PWs)   bands (ev):

   -13.7837 -13.7631 -13.6569 -13.5581 -13.5290 -13.5008 -13.4333 -13.3846
   -13.2708 -13.2497  -0.7144   1.6729   5.0191   6.0385

          k = 0.5000 0.0000 0.5000 ( 57231 PWs)   bands (ev):

   -13.7771 -13.7651 -13.6508 -13.5926 -13.5550 -13.4472 -13.4162 -13.4020
   -13.2670 -13.2600  -1.2018   2.3653   4.9296   6.7739

          k = 0.0000-1.0000 0.0000 ( 57162 PWs)   bands (ev):

   -13.7691 -13.7691 -13.6326 -13.6326 -13.4927 -13.4927 -13.4075 -13.4075
   -13.2617 -13.2617   0.4177   0.4177   5.4841   5.4841

          k =-0.5000-1.0000 0.0000 ( 57216 PWs)   bands (ev):

   -13.7871 -13.7871 -13.5737 -13.5737 -13.5020 -13.5020 -13.4566 -13.4566
   -13.2442 -13.2442   0.4780   0.4780   4.8997   4.8997

     highest occupied level (ev):     8.0627

!    total energy              =    -325.63640307 Ry
     estimated scf accuracy    <       0.00000003 Ry

     The total energy is the sum of the following terms:
     one-electron contribution =    -151.00347852 Ry
     hartree contribution      =      93.26121364 Ry
     xc contribution           =     -95.23470783 Ry
     ewald contribution        =    -172.65943036 Ry

     convergence has been achieved in  10 iterations

     Writing all to output data dir ./alpha-sn-scf/alphatin.save/ :
     XML data file, charge density, pseudopotentials, collected wavefunctions

     init_run     :      1.10s CPU      1.19s WALL (       1 calls)
     electrons    :      3.16s CPU      3.39s WALL (       1 calls)

     Called by init_run:
     wfcinit      :      0.08s CPU      0.09s WALL (       1 calls)
     potinit      :      0.05s CPU      0.08s WALL (       1 calls)
     hinit0       :      0.50s CPU      0.51s WALL (       1 calls)

     Called by electrons:
     c_bands      :      1.64s CPU      1.68s WALL (      11 calls)
     sum_band     :      0.67s CPU      0.71s WALL (      11 calls)
     v_of_rho     :      0.50s CPU      0.56s WALL (      11 calls)
     newd         :      0.26s CPU      0.26s WALL (      11 calls)
     mix_rho      :      0.09s CPU      0.09s WALL (      11 calls)

     Called by c_bands:
     init_us_2    :      0.04s CPU      0.04s WALL (      46 calls)
     cegterg      :      1.51s CPU      1.53s WALL (      22 calls)

     Called by *egterg:
     cdiaghg      :      0.03s CPU      0.03s WALL (      87 calls)
     h_psi        :      1.37s CPU      1.40s WALL (      91 calls)
     s_psi        :      0.03s CPU      0.03s WALL (      91 calls)
     g_psi        :      0.00s CPU      0.00s WALL (      67 calls)

     Called by h_psi:
     h_psi:calbec :      0.06s CPU      0.06s WALL (      91 calls)
     vloc_psi     :      1.27s CPU      1.29s WALL (      91 calls)
     add_vuspsi   :      0.03s CPU      0.03s WALL (      91 calls)

     General routines
     calbec       :      0.07s CPU      0.07s WALL (     113 calls)
     fft          :      0.71s CPU      0.76s WALL (     122 calls)
     ffts         :      0.02s CPU      0.03s WALL (      11 calls)
     fftw         :      1.32s CPU      1.35s WALL (    1922 calls)

     Parallel routines

     PWSCF        :      4.57s CPU      5.28s WALL


   This run was terminated on:  12: 5:12   4Feb2026            

=------------------------------------------------------------------------------=
   JOB DONE.
=------------------------------------------------------------------------------=
