
     Program PWSCF v.7.3.1 starts on  4Feb2026 at 12: 5:49 

     This program is part of the open-source Quantum ESPRESSO suite
     for quantum simulation of materials; please cite
         "P. Giannozzi et al., J. Phys.:Condens. Matter 21 395502 (2009);
         "P. Giannozzi et al., J. Phys.:Condens. Matter 29 465901 (2017);
         "P. Giannozzi et al., J. Chem. Phys. 152 154105 (2020);
          URL http://www.quantum-espresso.org", 
     in publications or presentations arising from this work. More details at
     http://www.quantum-espresso.org/quote

     Parallel version (MPI), running on   128 processors

     MPI processes distributed on     1 nodes
     240505 MiB available memory on the printing compute node when the environment starts

     Waiting for input...
     Reading input from standard input
     Message from routine read_cards :
     DEPRECATED: no units specified in ATOMIC_POSITIONS card
     Message from routine read_cards :
     ATOMIC_POSITIONS: units set to alat

     Current dimensions of program PWSCF are:
     Max number of different atomic species (ntypx) = 10
     Max number of k-points (npk) =  40000
     Max angular momentum in pseudopotentials (lmaxx) =  4

     K-points division:     npool     =       4
     R & G space division:  proc/nbgrp/npool/nimage =      32
     Subspace diagonalization in iterative solution of the eigenvalue problem:
     a serial algorithm will be used


     Parallelization info
     --------------------
     sticks:   dense  smooth     PW     G-vecs:    dense   smooth      PW
     Min         257     257     68                15445    15445    2095
     Max         258     258     69                15449    15449    2098
     Sum        8245    8245   2185               494321   494321   67097

     Using Slab Decomposition



     bravais-lattice index     =            2
     lattice parameter (alat)  =      12.2300  a.u.
     unit-cell volume          =     457.3191 (a.u.)^3
     number of atoms/cell      =            2
     number of atomic types    =            1
     number of electrons       =        28.00
     number of Kohn-Sham states=           14
     kinetic-energy cutoff     =     400.0000  Ry
     charge density cutoff     =    1600.0000  Ry
     scf convergence threshold =      1.0E-07
     mixing beta               =       0.7000
     number of iterations used =            8  plain     mixing
     Exchange-correlation=  SLA  PW   GGX  GGC
                           (   1   4   2   2   0   0   0)

     celldm(1)=  12.230000  celldm(2)=   0.000000  celldm(3)=   0.000000
     celldm(4)=   0.000000  celldm(5)=   0.000000  celldm(6)=   0.000000

     crystal axes: (cart. coord. in units of alat)
               a(1) = (  -0.500000   0.000000   0.500000 )  
               a(2) = (   0.000000   0.500000   0.500000 )  
               a(3) = (  -0.500000   0.500000   0.000000 )  

     reciprocal axes: (cart. coord. in units 2 pi/alat)
               b(1) = ( -1.000000 -1.000000  1.000000 )  
               b(2) = (  1.000000  1.000000  1.000000 )  
               b(3) = ( -1.000000  1.000000 -1.000000 )  


     PseudoPot. # 1 for Sn read from file:
     ./Sn.pw91-n-van.UPF
     MD5 check sum: a38d2a872edd1a4efd76c0a1a38f7031
     Pseudo is Ultrasoft + core correction, Zval = 14.0
     Generated by new atomic code, or converted to UPF format
     Using radial grid of  891 points,  6 beta functions with: 
                l(1) =   0
                l(2) =   0
                l(3) =   1
                l(4) =   1
                l(5) =   2
                l(6) =   2
     Q(r) pseudized with  8 coefficients,  rinner =    1.100   1.100   1.100
                                                       1.100   1.100

     atomic species   valence    mass     pseudopotential
     Sn               14.00   118.70000     Sn( 1.00)

     48 Sym. Ops., with inversion, found (24 have fractional translation)



   Cartesian axes

     site n.     atom                  positions (alat units)
         1        Sn     tau(   1) = (   0.0000000   0.0000000   0.0000000  )
         2        Sn     tau(   2) = (   0.2500000   0.2500000   0.2500000  )

     number of k points=     8
                       cart. coord. in units 2pi/alat
        k(    1) = (   0.0000000   0.0000000   0.0000000), wk =   0.0312500
        k(    2) = (  -0.2500000   0.2500000  -0.2500000), wk =   0.2500000
        k(    3) = (   0.5000000  -0.5000000   0.5000000), wk =   0.1250000
        k(    4) = (   0.0000000   0.5000000   0.0000000), wk =   0.1875000
        k(    5) = (   0.7500000  -0.2500000   0.7500000), wk =   0.7500000
        k(    6) = (   0.5000000   0.0000000   0.5000000), wk =   0.3750000
        k(    7) = (   0.0000000  -1.0000000   0.0000000), wk =   0.0937500
        k(    8) = (  -0.5000000  -1.0000000   0.0000000), wk =   0.1875000

     Dense  grid:   494321 G-vectors     FFT dimensions: ( 120, 120, 120)

     Estimated max dynamical RAM per process >      27.13 MB

     Estimated total dynamical RAM >       3.04 GB

     Initial potential from superposition of free atoms

     starting charge      27.9964, renormalised to      28.0000
     Starting wfcs are   18 randomized atomic wfcs

     total cpu time spent up to now is        2.0 secs

     per-process dynamical memory:    29.2 Mb

     Self-consistent Calculation

     iteration #  1     ecut=   400.00 Ry     beta= 0.70
     Davidson diagonalization with overlap
     ethr =  1.00E-02,  avg # of iterations =  2.8

     Threshold (ethr) on eigenvalues was too large:
     Diagonalizing with lowered threshold

     Davidson diagonalization with overlap
     ethr =  6.31E-05,  avg # of iterations =  4.0

     total cpu time spent up to now is        2.6 secs

     total energy              =    -325.51115429 Ry
     estimated scf accuracy    <       0.02303349 Ry

     iteration #  2     ecut=   400.00 Ry     beta= 0.70
     Davidson diagonalization with overlap
     ethr =  8.23E-05,  avg # of iterations =  4.2

     total cpu time spent up to now is        3.0 secs

     total energy              =    -325.58623773 Ry
     estimated scf accuracy    <       0.03902231 Ry

     iteration #  3     ecut=   400.00 Ry     beta= 0.70
     Davidson diagonalization with overlap
     ethr =  8.23E-05,  avg # of iterations =  1.0

     total cpu time spent up to now is        3.3 secs

     total energy              =    -325.62097438 Ry
     estimated scf accuracy    <       0.01604957 Ry

     iteration #  4     ecut=   400.00 Ry     beta= 0.70
     Davidson diagonalization with overlap
     ethr =  5.73E-05,  avg # of iterations =  2.1

     total cpu time spent up to now is        3.6 secs

     total energy              =    -325.62616951 Ry
     estimated scf accuracy    <       0.00018203 Ry

     iteration #  5     ecut=   400.00 Ry     beta= 0.70
     Davidson diagonalization with overlap
     ethr =  6.50E-07,  avg # of iterations =  4.1

     negative rho (up, down):  8.387E-07 0.000E+00

     total cpu time spent up to now is        4.0 secs

     total energy              =    -325.63348193 Ry
     estimated scf accuracy    <       0.00010992 Ry

     iteration #  6     ecut=   400.00 Ry     beta= 0.70
     Davidson diagonalization with overlap
     ethr =  3.93E-07,  avg # of iterations =  2.0

     total cpu time spent up to now is        4.3 secs

     total energy              =    -325.63649631 Ry
     estimated scf accuracy    <       0.00027188 Ry

     iteration #  7     ecut=   400.00 Ry     beta= 0.70
     Davidson diagonalization with overlap
     ethr =  3.93E-07,  avg # of iterations =  2.0

     total cpu time spent up to now is        4.6 secs

     total energy              =    -325.63656168 Ry
     estimated scf accuracy    <       0.00000251 Ry

     iteration #  8     ecut=   400.00 Ry     beta= 0.70
     Davidson diagonalization with overlap
     ethr =  8.97E-09,  avg # of iterations =  3.2

     total cpu time spent up to now is        5.0 secs

     total energy              =    -325.63656322 Ry
     estimated scf accuracy    <       0.00000036 Ry

     iteration #  9     ecut=   400.00 Ry     beta= 0.70
     Davidson diagonalization with overlap
     ethr =  1.27E-09,  avg # of iterations =  2.5

     total cpu time spent up to now is        5.3 secs

     End of self-consistent calculation

          k = 0.0000 0.0000 0.0000 ( 62007 PWs)   bands (ev):

   -13.7156 -13.7156 -13.7156 -13.6564 -13.6564 -13.3392 -13.3392 -13.3392
   -13.3305 -13.3305  -2.7007   7.3368   8.0629   8.0629

          k =-0.2500 0.2500-0.2500 ( 61788 PWs)   bands (ev):

   -13.7419 -13.7419 -13.7025 -13.6157 -13.6157 -13.3848 -13.3848 -13.3560
   -13.2934 -13.2934  -2.1086   3.9181   7.2999   7.2999

          k = 0.5000-0.5000 0.5000 ( 61802 PWs)   bands (ev):

   -13.7527 -13.7527 -13.6885 -13.5945 -13.5945 -13.4010 -13.4010 -13.3738
   -13.2816 -13.2816  -1.0622   1.6347   6.8428   6.8428

          k = 0.0000 0.5000 0.0000 ( 61807 PWs)   bands (ev):

   -13.7438 -13.7438 -13.7197 -13.6078 -13.5581 -13.4717 -13.3773 -13.3091
   -13.2980 -13.2980  -1.8917   3.8043   6.3558   6.3558

          k = 0.7500-0.2500 0.7500 ( 61754 PWs)   bands (ev):

   -13.7826 -13.7621 -13.6558 -13.5570 -13.5279 -13.4997 -13.4321 -13.3835
   -13.2696 -13.2486  -0.7142   1.6731   5.0191   6.0386

          k = 0.5000 0.0000 0.5000 ( 61752 PWs)   bands (ev):

   -13.7760 -13.7640 -13.6497 -13.5915 -13.5539 -13.4460 -13.4151 -13.4008
   -13.2658 -13.2589  -1.2016   2.3655   4.9295   6.7740

          k = 0.0000-1.0000 0.0000 ( 61702 PWs)   bands (ev):

   -13.7680 -13.7680 -13.6315 -13.6315 -13.4916 -13.4916 -13.4063 -13.4063
   -13.2606 -13.2606   0.4179   0.4179   5.4842   5.4842

          k =-0.5000-1.0000 0.0000 ( 61760 PWs)   bands (ev):

   -13.7860 -13.7860 -13.5726 -13.5726 -13.5009 -13.5009 -13.4555 -13.4555
   -13.2430 -13.2430   0.4782   0.4782   4.8997   4.8997

     highest occupied level (ev):     8.0629

!    total energy              =    -325.63656337 Ry
     estimated scf accuracy    <       0.00000002 Ry

     The total energy is the sum of the following terms:
     one-electron contribution =    -151.00249346 Ry
     hartree contribution      =      93.25975126 Ry
     xc contribution           =     -95.23439081 Ry
     ewald contribution        =    -172.65943036 Ry

     convergence has been achieved in   9 iterations

     Writing all to output data dir ./alpha-sn-scf/alphatin.save/ :
     XML data file, charge density, pseudopotentials, collected wavefunctions

     init_run     :      1.60s CPU      1.70s WALL (       1 calls)
     electrons    :      3.26s CPU      3.51s WALL (       1 calls)

     Called by init_run:
     wfcinit      :      0.08s CPU      0.10s WALL (       1 calls)
     potinit      :      0.06s CPU      0.09s WALL (       1 calls)
     hinit0       :      0.91s CPU      0.92s WALL (       1 calls)

     Called by electrons:
     c_bands      :      1.67s CPU      1.71s WALL (      10 calls)
     sum_band     :      0.67s CPU      0.70s WALL (      10 calls)
     v_of_rho     :      0.58s CPU      0.63s WALL (      10 calls)
     newd         :      0.25s CPU      0.26s WALL (      10 calls)
     mix_rho      :      0.09s CPU      0.09s WALL (      10 calls)

     Called by c_bands:
     init_us_2    :      0.04s CPU      0.05s WALL (      42 calls)
     cegterg      :      1.56s CPU      1.59s WALL (      20 calls)

     Called by *egterg:
     cdiaghg      :      0.03s CPU      0.03s WALL (      85 calls)
     h_psi        :      1.41s CPU      1.45s WALL (      89 calls)
     s_psi        :      0.03s CPU      0.03s WALL (      89 calls)
     g_psi        :      0.00s CPU      0.00s WALL (      67 calls)

     Called by h_psi:
     h_psi:calbec :      0.07s CPU      0.07s WALL (      89 calls)
     vloc_psi     :      1.30s CPU      1.33s WALL (      89 calls)
     add_vuspsi   :      0.03s CPU      0.03s WALL (      89 calls)

     General routines
     calbec       :      0.08s CPU      0.09s WALL (     109 calls)
     fft          :      1.14s CPU      1.18s WALL (     111 calls)
     ffts         :      0.03s CPU      0.03s WALL (      10 calls)
     fftw         :      1.32s CPU      1.35s WALL (    1832 calls)

     Parallel routines

     PWSCF        :      5.27s CPU      5.96s WALL


   This run was terminated on:  12: 5:55   4Feb2026            

=------------------------------------------------------------------------------=
   JOB DONE.
=------------------------------------------------------------------------------=
