
     Program PWSCF v.7.3.1 starts on  5Feb2026 at 15:48:52 

     This program is part of the open-source Quantum ESPRESSO suite
     for quantum simulation of materials; please cite
         "P. Giannozzi et al., J. Phys.:Condens. Matter 21 395502 (2009);
         "P. Giannozzi et al., J. Phys.:Condens. Matter 29 465901 (2017);
         "P. Giannozzi et al., J. Chem. Phys. 152 154105 (2020);
          URL http://www.quantum-espresso.org", 
     in publications or presentations arising from this work. More details at
     http://www.quantum-espresso.org/quote

     Parallel version (MPI), running on   128 processors

     MPI processes distributed on     1 nodes
     242444 MiB available memory on the printing compute node when the environment starts

     Waiting for input...
     Reading input from standard input
     Message from routine read_cards :
     DEPRECATED: no units specified in ATOMIC_POSITIONS card
     Message from routine read_cards :
     ATOMIC_POSITIONS: units set to alat

     Current dimensions of program PWSCF are:
     Max number of different atomic species (ntypx) = 10
     Max number of k-points (npk) =  40000
     Max angular momentum in pseudopotentials (lmaxx) =  4

     K-points division:     npool     =       8
     R & G space division:  proc/nbgrp/npool/nimage =      16
     Subspace diagonalization in iterative solution of the eigenvalue problem:
     a serial algorithm will be used


     Parallelization info
     --------------------
     sticks:   dense  smooth     PW     G-vecs:    dense   smooth      PW
     Min          57      57     16                 1128     1128     180
     Max          58      58     18                 1131     1131     182
     Sum         913     913    265                18053    18053    2891

     Using Slab Decomposition



     bravais-lattice index     =            2
     lattice parameter (alat)  =      12.2300  a.u.
     unit-cell volume          =     457.3191 (a.u.)^3
     number of atoms/cell      =            2
     number of atomic types    =            1
     number of electrons       =        28.00
     number of Kohn-Sham states=           14
     kinetic-energy cutoff     =      44.0000  Ry
     charge density cutoff     =     176.0000  Ry
     scf convergence threshold =      1.0E-07
     mixing beta               =       0.7000
     number of iterations used =            8  plain     mixing
     Exchange-correlation=  SLA  PW   GGX  GGC
                           (   1   4   2   2   0   0   0)

     celldm(1)=  12.230000  celldm(2)=   0.000000  celldm(3)=   0.000000
     celldm(4)=   0.000000  celldm(5)=   0.000000  celldm(6)=   0.000000

     crystal axes: (cart. coord. in units of alat)
               a(1) = (  -0.500000   0.000000   0.500000 )  
               a(2) = (   0.000000   0.500000   0.500000 )  
               a(3) = (  -0.500000   0.500000   0.000000 )  

     reciprocal axes: (cart. coord. in units 2 pi/alat)
               b(1) = ( -1.000000 -1.000000  1.000000 )  
               b(2) = (  1.000000  1.000000  1.000000 )  
               b(3) = ( -1.000000  1.000000 -1.000000 )  


     PseudoPot. # 1 for Sn read from file:
     ./Sn.pw91-n-van.UPF
     MD5 check sum: a38d2a872edd1a4efd76c0a1a38f7031
     Pseudo is Ultrasoft + core correction, Zval = 14.0
     Generated by new atomic code, or converted to UPF format
     Using radial grid of  891 points,  6 beta functions with: 
                l(1) =   0
                l(2) =   0
                l(3) =   1
                l(4) =   1
                l(5) =   2
                l(6) =   2
     Q(r) pseudized with  8 coefficients,  rinner =    1.100   1.100   1.100
                                                       1.100   1.100

     atomic species   valence    mass     pseudopotential
     Sn               14.00   118.70000     Sn( 1.00)

     48 Sym. Ops., with inversion, found (24 have fractional translation)



   Cartesian axes

     site n.     atom                  positions (alat units)
         1        Sn     tau(   1) = (   0.0000000   0.0000000   0.0000000  )
         2        Sn     tau(   2) = (   0.2500000   0.2500000   0.2500000  )

     number of k points=     8
                       cart. coord. in units 2pi/alat
        k(    1) = (   0.0000000   0.0000000   0.0000000), wk =   0.0312500
        k(    2) = (  -0.2500000   0.2500000  -0.2500000), wk =   0.2500000
        k(    3) = (   0.5000000  -0.5000000   0.5000000), wk =   0.1250000
        k(    4) = (   0.0000000   0.5000000   0.0000000), wk =   0.1875000
        k(    5) = (   0.7500000  -0.2500000   0.7500000), wk =   0.7500000
        k(    6) = (   0.5000000   0.0000000   0.5000000), wk =   0.3750000
        k(    7) = (   0.0000000  -1.0000000   0.0000000), wk =   0.0937500
        k(    8) = (  -0.5000000  -1.0000000   0.0000000), wk =   0.1875000

     Dense  grid:    18053 G-vectors     FFT dimensions: (  40,  40,  40)

     Estimated max dynamical RAM per process >       2.39 MB

     Estimated total dynamical RAM >     275.16 MB

     Initial potential from superposition of free atoms

     starting charge      27.9964, renormalised to      28.0000
     Starting wfcs are   18 randomized atomic wfcs

     total cpu time spent up to now is        0.7 secs

     per-process dynamical memory:     9.9 Mb

     Self-consistent Calculation

     iteration #  1     ecut=    44.00 Ry     beta= 0.70
     Davidson diagonalization with overlap
     ethr =  1.00E-02,  avg # of iterations =  1.2

     Threshold (ethr) on eigenvalues was too large:
     Diagonalizing with lowered threshold

     Davidson diagonalization with overlap
     ethr =  8.30E-05,  avg # of iterations =  2.1

     negative rho (up, down):  6.334E-05 0.000E+00

     total cpu time spent up to now is        0.8 secs

     total energy              =    -325.60263232 Ry
     estimated scf accuracy    <       0.02869150 Ry

     iteration #  2     ecut=    44.00 Ry     beta= 0.70
     Davidson diagonalization with overlap
     ethr =  1.02E-04,  avg # of iterations =  1.0

     negative rho (up, down):  9.896E-05 0.000E+00

     total cpu time spent up to now is        0.8 secs

     total energy              =    -325.60370038 Ry
     estimated scf accuracy    <       0.00163537 Ry

     iteration #  3     ecut=    44.00 Ry     beta= 0.70
     Davidson diagonalization with overlap
     ethr =  5.84E-06,  avg # of iterations =  2.1

     negative rho (up, down):  1.109E-04 0.000E+00

     total cpu time spent up to now is        0.8 secs

     total energy              =    -325.60383614 Ry
     estimated scf accuracy    <       0.00003888 Ry

     iteration #  4     ecut=    44.00 Ry     beta= 0.70
     Davidson diagonalization with overlap
     ethr =  1.39E-07,  avg # of iterations =  3.6

     negative rho (up, down):  1.183E-04 0.000E+00

     total cpu time spent up to now is        0.8 secs

     total energy              =    -325.60384855 Ry
     estimated scf accuracy    <       0.00000330 Ry

     iteration #  5     ecut=    44.00 Ry     beta= 0.70
     Davidson diagonalization with overlap
     ethr =  1.18E-08,  avg # of iterations =  3.4

     negative rho (up, down):  1.174E-04 0.000E+00

     total cpu time spent up to now is        0.8 secs

     total energy              =    -325.60384925 Ry
     estimated scf accuracy    <       0.00000032 Ry

     iteration #  6     ecut=    44.00 Ry     beta= 0.70
     Davidson diagonalization with overlap
     ethr =  1.14E-09,  avg # of iterations =  2.5

     negative rho (up, down):  1.180E-04 0.000E+00

     total cpu time spent up to now is        0.9 secs

     End of self-consistent calculation

          k = 0.0000 0.0000 0.0000 (  2229 PWs)   bands (ev):

   -13.6980 -13.6980 -13.6980 -13.6398 -13.6398 -13.3213 -13.3213 -13.3213
   -13.3133 -13.3133  -2.6989   7.3357   8.0651   8.0651

          k =-0.2500 0.2500-0.2500 (  2238 PWs)   bands (ev):

   -13.7244 -13.7244 -13.6849 -13.5989 -13.5989 -13.3675 -13.3675 -13.3381
   -13.2755 -13.2755  -2.1070   3.9196   7.3020   7.3020

          k = 0.5000-0.5000 0.5000 (  2252 PWs)   bands (ev):

   -13.7351 -13.7351 -13.6710 -13.5777 -13.5777 -13.3838 -13.3838 -13.3558
   -13.2636 -13.2636  -1.0611   1.6371   6.8447   6.8447

          k = 0.0000 0.5000 0.0000 (  2269 PWs)   bands (ev):

   -13.7263 -13.7263 -13.7025 -13.5910 -13.5409 -13.4543 -13.3602 -13.2915
   -13.2800 -13.2800  -1.8901   3.8048   6.3580   6.3580

          k = 0.7500-0.2500 0.7500 (  2265 PWs)   bands (ev):

   -13.7651 -13.7445 -13.6385 -13.5402 -13.5107 -13.4823 -13.4150 -13.3659
   -13.2516 -13.2305  -0.7131   1.6743   5.0231   6.0408

          k = 0.5000 0.0000 0.5000 (  2269 PWs)   bands (ev):

   -13.7585 -13.7466 -13.6321 -13.5747 -13.5369 -13.4289 -13.3972 -13.3836
   -13.2479 -13.2408  -1.2003   2.3665   4.9338   6.7761

          k = 0.0000-1.0000 0.0000 (  2272 PWs)   bands (ev):

   -13.7505 -13.7505 -13.6143 -13.6143 -13.4747 -13.4747 -13.3889 -13.3889
   -13.2425 -13.2425   0.4189   0.4189   5.4864   5.4864

          k =-0.5000-1.0000 0.0000 (  2244 PWs)   bands (ev):

   -13.7686 -13.7686 -13.5552 -13.5552 -13.4838 -13.4838 -13.4382 -13.4382
   -13.2249 -13.2249   0.4791   0.4791   4.9037   4.9037

     highest occupied level (ev):     8.0651

!    total energy              =    -325.60384929 Ry
     estimated scf accuracy    <       0.00000010 Ry

     The total energy is the sum of the following terms:
     one-electron contribution =    -150.96292165 Ry
     hartree contribution      =      93.25088373 Ry
     xc contribution           =     -95.23238100 Ry
     ewald contribution        =    -172.65943038 Ry

     convergence has been achieved in   6 iterations

     Writing all to output data dir ./alpha-sn-scf/alphatin.save/ :
     XML data file, charge density, pseudopotentials, collected wavefunctions

     init_run     :      0.37s CPU      0.41s WALL (       1 calls)
     electrons    :      0.14s CPU      0.18s WALL (       1 calls)

     Called by init_run:
     wfcinit      :      0.02s CPU      0.02s WALL (       1 calls)
     potinit      :      0.01s CPU      0.02s WALL (       1 calls)
     hinit0       :      0.32s CPU      0.33s WALL (       1 calls)

     Called by electrons:
     c_bands      :      0.06s CPU      0.08s WALL (       7 calls)
     sum_band     :      0.03s CPU      0.04s WALL (       7 calls)
     v_of_rho     :      0.03s CPU      0.03s WALL (       7 calls)
     newd         :      0.00s CPU      0.01s WALL (       7 calls)
     mix_rho      :      0.00s CPU      0.00s WALL (       7 calls)

     Called by c_bands:
     init_us_2    :      0.00s CPU      0.00s WALL (      15 calls)
     cegterg      :      0.06s CPU      0.07s WALL (       7 calls)

     Called by *egterg:
     cdiaghg      :      0.01s CPU      0.01s WALL (      28 calls)
     h_psi        :      0.06s CPU      0.06s WALL (      30 calls)
     s_psi        :      0.00s CPU      0.00s WALL (      30 calls)
     g_psi        :      0.00s CPU      0.00s WALL (      22 calls)

     Called by h_psi:
     h_psi:calbec :      0.00s CPU      0.00s WALL (      30 calls)
     vloc_psi     :      0.05s CPU      0.05s WALL (      30 calls)
     add_vuspsi   :      0.00s CPU      0.00s WALL (      30 calls)

     General routines
     calbec       :      0.00s CPU      0.00s WALL (      37 calls)
     fft          :      0.31s CPU      0.31s WALL (      78 calls)
     ffts         :      0.00s CPU      0.00s WALL (       7 calls)
     fftw         :      0.05s CPU      0.06s WALL (     628 calls)

     Parallel routines

     PWSCF        :      1.68s CPU      1.92s WALL


   This run was terminated on:  15:48:54   5Feb2026            

=------------------------------------------------------------------------------=
   JOB DONE.
=------------------------------------------------------------------------------=
