
     Program PWSCF v.7.3.1 starts on  5Feb2026 at 15:49: 1 

     This program is part of the open-source Quantum ESPRESSO suite
     for quantum simulation of materials; please cite
         "P. Giannozzi et al., J. Phys.:Condens. Matter 21 395502 (2009);
         "P. Giannozzi et al., J. Phys.:Condens. Matter 29 465901 (2017);
         "P. Giannozzi et al., J. Chem. Phys. 152 154105 (2020);
          URL http://www.quantum-espresso.org", 
     in publications or presentations arising from this work. More details at
     http://www.quantum-espresso.org/quote

     Parallel version (MPI), running on   128 processors

     MPI processes distributed on     1 nodes
     242368 MiB available memory on the printing compute node when the environment starts

     Waiting for input...
     Reading input from standard input
     Message from routine read_cards :
     DEPRECATED: no units specified in ATOMIC_POSITIONS card
     Message from routine read_cards :
     ATOMIC_POSITIONS: units set to alat

     Current dimensions of program PWSCF are:
     Max number of different atomic species (ntypx) = 10
     Max number of k-points (npk) =  40000
     Max angular momentum in pseudopotentials (lmaxx) =  4

     K-points division:     npool     =       8
     R & G space division:  proc/nbgrp/npool/nimage =      16
     Subspace diagonalization in iterative solution of the eigenvalue problem:
     a serial algorithm will be used


     Parallelization info
     --------------------
     sticks:   dense  smooth     PW     G-vecs:    dense   smooth      PW
     Min          59      59     17                 1207     1207     194
     Max          60      60     18                 1210     1210     196
     Sum         955     955    283                19339    19339    3119

     Using Slab Decomposition



     bravais-lattice index     =            2
     lattice parameter (alat)  =      12.2300  a.u.
     unit-cell volume          =     457.3191 (a.u.)^3
     number of atoms/cell      =            2
     number of atomic types    =            1
     number of electrons       =        28.00
     number of Kohn-Sham states=           14
     kinetic-energy cutoff     =      46.0000  Ry
     charge density cutoff     =     184.0000  Ry
     scf convergence threshold =      1.0E-07
     mixing beta               =       0.7000
     number of iterations used =            8  plain     mixing
     Exchange-correlation=  SLA  PW   GGX  GGC
                           (   1   4   2   2   0   0   0)

     celldm(1)=  12.230000  celldm(2)=   0.000000  celldm(3)=   0.000000
     celldm(4)=   0.000000  celldm(5)=   0.000000  celldm(6)=   0.000000

     crystal axes: (cart. coord. in units of alat)
               a(1) = (  -0.500000   0.000000   0.500000 )  
               a(2) = (   0.000000   0.500000   0.500000 )  
               a(3) = (  -0.500000   0.500000   0.000000 )  

     reciprocal axes: (cart. coord. in units 2 pi/alat)
               b(1) = ( -1.000000 -1.000000  1.000000 )  
               b(2) = (  1.000000  1.000000  1.000000 )  
               b(3) = ( -1.000000  1.000000 -1.000000 )  


     PseudoPot. # 1 for Sn read from file:
     ./Sn.pw91-n-van.UPF
     MD5 check sum: a38d2a872edd1a4efd76c0a1a38f7031
     Pseudo is Ultrasoft + core correction, Zval = 14.0
     Generated by new atomic code, or converted to UPF format
     Using radial grid of  891 points,  6 beta functions with: 
                l(1) =   0
                l(2) =   0
                l(3) =   1
                l(4) =   1
                l(5) =   2
                l(6) =   2
     Q(r) pseudized with  8 coefficients,  rinner =    1.100   1.100   1.100
                                                       1.100   1.100

     atomic species   valence    mass     pseudopotential
     Sn               14.00   118.70000     Sn( 1.00)

     48 Sym. Ops., with inversion, found (24 have fractional translation)



   Cartesian axes

     site n.     atom                  positions (alat units)
         1        Sn     tau(   1) = (   0.0000000   0.0000000   0.0000000  )
         2        Sn     tau(   2) = (   0.2500000   0.2500000   0.2500000  )

     number of k points=     8
                       cart. coord. in units 2pi/alat
        k(    1) = (   0.0000000   0.0000000   0.0000000), wk =   0.0312500
        k(    2) = (  -0.2500000   0.2500000  -0.2500000), wk =   0.2500000
        k(    3) = (   0.5000000  -0.5000000   0.5000000), wk =   0.1250000
        k(    4) = (   0.0000000   0.5000000   0.0000000), wk =   0.1875000
        k(    5) = (   0.7500000  -0.2500000   0.7500000), wk =   0.7500000
        k(    6) = (   0.5000000   0.0000000   0.5000000), wk =   0.3750000
        k(    7) = (   0.0000000  -1.0000000   0.0000000), wk =   0.0937500
        k(    8) = (  -0.5000000  -1.0000000   0.0000000), wk =   0.1875000

     Dense  grid:    19339 G-vectors     FFT dimensions: (  40,  40,  40)

     Estimated max dynamical RAM per process >       2.49 MB

     Estimated total dynamical RAM >     285.12 MB

     Initial potential from superposition of free atoms

     starting charge      27.9964, renormalised to      28.0000
     Starting wfcs are   18 randomized atomic wfcs

     total cpu time spent up to now is        0.7 secs

     per-process dynamical memory:     9.9 Mb

     Self-consistent Calculation

     iteration #  1     ecut=    46.00 Ry     beta= 0.70
     Davidson diagonalization with overlap
     ethr =  1.00E-02,  avg # of iterations =  1.5

     Threshold (ethr) on eigenvalues was too large:
     Diagonalizing with lowered threshold

     Davidson diagonalization with overlap
     ethr =  8.37E-05,  avg # of iterations =  2.1

     negative rho (up, down):  8.166E-05 0.000E+00

     total cpu time spent up to now is        0.8 secs

     total energy              =    -325.60253368 Ry
     estimated scf accuracy    <       0.02868934 Ry

     iteration #  2     ecut=    46.00 Ry     beta= 0.70
     Davidson diagonalization with overlap
     ethr =  1.02E-04,  avg # of iterations =  1.0

     negative rho (up, down):  1.273E-04 0.000E+00

     total cpu time spent up to now is        0.8 secs

     total energy              =    -325.60359838 Ry
     estimated scf accuracy    <       0.00163176 Ry

     iteration #  3     ecut=    46.00 Ry     beta= 0.70
     Davidson diagonalization with overlap
     ethr =  5.83E-06,  avg # of iterations =  2.1

     negative rho (up, down):  1.401E-04 0.000E+00

     total cpu time spent up to now is        0.8 secs

     total energy              =    -325.60373435 Ry
     estimated scf accuracy    <       0.00003963 Ry

     iteration #  4     ecut=    46.00 Ry     beta= 0.70
     Davidson diagonalization with overlap
     ethr =  1.42E-07,  avg # of iterations =  3.4

     negative rho (up, down):  1.480E-04 0.000E+00

     total cpu time spent up to now is        0.9 secs

     total energy              =    -325.60374632 Ry
     estimated scf accuracy    <       0.00000333 Ry

     iteration #  5     ecut=    46.00 Ry     beta= 0.70
     Davidson diagonalization with overlap
     ethr =  1.19E-08,  avg # of iterations =  3.4

     negative rho (up, down):  1.472E-04 0.000E+00

     total cpu time spent up to now is        0.9 secs

     total energy              =    -325.60374699 Ry
     estimated scf accuracy    <       0.00000032 Ry

     iteration #  6     ecut=    46.00 Ry     beta= 0.70
     Davidson diagonalization with overlap
     ethr =  1.14E-09,  avg # of iterations =  2.6

     negative rho (up, down):  1.477E-04 0.000E+00

     total cpu time spent up to now is        0.9 secs

     End of self-consistent calculation

          k = 0.0000 0.0000 0.0000 (  2421 PWs)   bands (ev):

   -13.6990 -13.6990 -13.6990 -13.6402 -13.6402 -13.3223 -13.3223 -13.3223
   -13.3137 -13.3137  -2.6999   7.3348   8.0644   8.0644

          k =-0.2500 0.2500-0.2500 (  2427 PWs)   bands (ev):

   -13.7254 -13.7254 -13.6859 -13.5993 -13.5993 -13.3681 -13.3681 -13.3391
   -13.2764 -13.2764  -2.1079   3.9187   7.3013   7.3013

          k = 0.5000-0.5000 0.5000 (  2392 PWs)   bands (ev):

   -13.7361 -13.7361 -13.6720 -13.5781 -13.5781 -13.3843 -13.3843 -13.3568
   -13.2646 -13.2646  -1.0618   1.6359   6.8440   6.8440

          k = 0.0000 0.5000 0.0000 (  2429 PWs)   bands (ev):

   -13.7273 -13.7273 -13.7033 -13.5914 -13.5415 -13.4551 -13.3606 -13.2921
   -13.2810 -13.2810  -1.8910   3.8041   6.3572   6.3572

          k = 0.7500-0.2500 0.7500 (  2408 PWs)   bands (ev):

   -13.7661 -13.7455 -13.6393 -13.5406 -13.5113 -13.4831 -13.4155 -13.3667
   -13.2526 -13.2315  -0.7138   1.6735   5.0216   6.0400

          k = 0.5000 0.0000 0.5000 (  2395 PWs)   bands (ev):

   -13.7595 -13.7476 -13.6331 -13.5751 -13.5374 -13.4294 -13.3982 -13.3841
   -13.2488 -13.2418  -1.2011   2.3657   4.9323   6.7753

          k = 0.0000-1.0000 0.0000 (  2450 PWs)   bands (ev):

   -13.7515 -13.7515 -13.6150 -13.6150 -13.4751 -13.4751 -13.3895 -13.3895
   -13.2435 -13.2435   0.4182   0.4182   5.4856   5.4856

          k =-0.5000-1.0000 0.0000 (  2400 PWs)   bands (ev):

   -13.7696 -13.7696 -13.5560 -13.5560 -13.4843 -13.4843 -13.4388 -13.4388
   -13.2259 -13.2259   0.4784   0.4784   4.9023   4.9023

     highest occupied level (ev):     8.0644

!    total energy              =    -325.60374704 Ry
     estimated scf accuracy    <       0.00000009 Ry

     The total energy is the sum of the following terms:
     one-electron contribution =    -150.96161053 Ry
     hartree contribution      =      93.24924920 Ry
     xc contribution           =     -95.23195533 Ry
     ewald contribution        =    -172.65943038 Ry

     convergence has been achieved in   6 iterations

     Writing all to output data dir ./alpha-sn-scf/alphatin.save/ :
     XML data file, charge density, pseudopotentials, collected wavefunctions

     init_run     :      0.36s CPU      0.42s WALL (       1 calls)
     electrons    :      0.14s CPU      0.18s WALL (       1 calls)

     Called by init_run:
     wfcinit      :      0.01s CPU      0.02s WALL (       1 calls)
     potinit      :      0.01s CPU      0.02s WALL (       1 calls)
     hinit0       :      0.32s CPU      0.34s WALL (       1 calls)

     Called by electrons:
     c_bands      :      0.07s CPU      0.08s WALL (       7 calls)
     sum_band     :      0.02s CPU      0.04s WALL (       7 calls)
     v_of_rho     :      0.03s CPU      0.03s WALL (       7 calls)
     newd         :      0.01s CPU      0.01s WALL (       7 calls)
     mix_rho      :      0.00s CPU      0.00s WALL (       7 calls)

     Called by c_bands:
     init_us_2    :      0.00s CPU      0.00s WALL (      15 calls)
     cegterg      :      0.06s CPU      0.07s WALL (       7 calls)

     Called by *egterg:
     cdiaghg      :      0.01s CPU      0.01s WALL (      28 calls)
     h_psi        :      0.05s CPU      0.06s WALL (      30 calls)
     s_psi        :      0.00s CPU      0.00s WALL (      30 calls)
     g_psi        :      0.00s CPU      0.00s WALL (      22 calls)

     Called by h_psi:
     h_psi:calbec :      0.00s CPU      0.00s WALL (      30 calls)
     vloc_psi     :      0.05s CPU      0.05s WALL (      30 calls)
     add_vuspsi   :      0.00s CPU      0.00s WALL (      30 calls)

     General routines
     calbec       :      0.00s CPU      0.00s WALL (      37 calls)
     fft          :      0.30s CPU      0.31s WALL (      78 calls)
     ffts         :      0.00s CPU      0.00s WALL (       7 calls)
     fftw         :      0.05s CPU      0.06s WALL (     628 calls)

     Parallel routines

     PWSCF        :      0.75s CPU      1.01s WALL


   This run was terminated on:  15:49: 2   5Feb2026            

=------------------------------------------------------------------------------=
   JOB DONE.
=------------------------------------------------------------------------------=
