
     Program PWSCF v.7.3.1 starts on  5Feb2026 at 15:49:41 

     This program is part of the open-source Quantum ESPRESSO suite
     for quantum simulation of materials; please cite
         "P. Giannozzi et al., J. Phys.:Condens. Matter 21 395502 (2009);
         "P. Giannozzi et al., J. Phys.:Condens. Matter 29 465901 (2017);
         "P. Giannozzi et al., J. Chem. Phys. 152 154105 (2020);
          URL http://www.quantum-espresso.org", 
     in publications or presentations arising from this work. More details at
     http://www.quantum-espresso.org/quote

     Parallel version (MPI), running on   128 processors

     MPI processes distributed on     1 nodes
     242382 MiB available memory on the printing compute node when the environment starts

     Waiting for input...
     Reading input from standard input
     Message from routine read_cards :
     DEPRECATED: no units specified in ATOMIC_POSITIONS card
     Message from routine read_cards :
     ATOMIC_POSITIONS: units set to alat

     Current dimensions of program PWSCF are:
     Max number of different atomic species (ntypx) = 10
     Max number of k-points (npk) =  40000
     Max angular momentum in pseudopotentials (lmaxx) =  4

     K-points division:     npool     =       8
     R & G space division:  proc/nbgrp/npool/nimage =      16
     Subspace diagonalization in iterative solution of the eigenvalue problem:
     a serial algorithm will be used


     Parallelization info
     --------------------
     sticks:   dense  smooth     PW     G-vecs:    dense   smooth      PW
     Min          66      66     19                 1453     1453     230
     Max          67      67     20                 1457     1457     232
     Sum        1069    1069    313                23289    23289    3695

     Using Slab Decomposition



     bravais-lattice index     =            2
     lattice parameter (alat)  =      12.2300  a.u.
     unit-cell volume          =     457.3191 (a.u.)^3
     number of atoms/cell      =            2
     number of atomic types    =            1
     number of electrons       =        28.00
     number of Kohn-Sham states=           14
     kinetic-energy cutoff     =      52.0000  Ry
     charge density cutoff     =     208.0000  Ry
     scf convergence threshold =      1.0E-07
     mixing beta               =       0.7000
     number of iterations used =            8  plain     mixing
     Exchange-correlation=  SLA  PW   GGX  GGC
                           (   1   4   2   2   0   0   0)

     celldm(1)=  12.230000  celldm(2)=   0.000000  celldm(3)=   0.000000
     celldm(4)=   0.000000  celldm(5)=   0.000000  celldm(6)=   0.000000

     crystal axes: (cart. coord. in units of alat)
               a(1) = (  -0.500000   0.000000   0.500000 )  
               a(2) = (   0.000000   0.500000   0.500000 )  
               a(3) = (  -0.500000   0.500000   0.000000 )  

     reciprocal axes: (cart. coord. in units 2 pi/alat)
               b(1) = ( -1.000000 -1.000000  1.000000 )  
               b(2) = (  1.000000  1.000000  1.000000 )  
               b(3) = ( -1.000000  1.000000 -1.000000 )  


     PseudoPot. # 1 for Sn read from file:
     ./Sn.pw91-n-van.UPF
     MD5 check sum: a38d2a872edd1a4efd76c0a1a38f7031
     Pseudo is Ultrasoft + core correction, Zval = 14.0
     Generated by new atomic code, or converted to UPF format
     Using radial grid of  891 points,  6 beta functions with: 
                l(1) =   0
                l(2) =   0
                l(3) =   1
                l(4) =   1
                l(5) =   2
                l(6) =   2
     Q(r) pseudized with  8 coefficients,  rinner =    1.100   1.100   1.100
                                                       1.100   1.100

     atomic species   valence    mass     pseudopotential
     Sn               14.00   118.70000     Sn( 1.00)

     48 Sym. Ops., with inversion, found (24 have fractional translation)



   Cartesian axes

     site n.     atom                  positions (alat units)
         1        Sn     tau(   1) = (   0.0000000   0.0000000   0.0000000  )
         2        Sn     tau(   2) = (   0.2500000   0.2500000   0.2500000  )

     number of k points=     8
                       cart. coord. in units 2pi/alat
        k(    1) = (   0.0000000   0.0000000   0.0000000), wk =   0.0312500
        k(    2) = (  -0.2500000   0.2500000  -0.2500000), wk =   0.2500000
        k(    3) = (   0.5000000  -0.5000000   0.5000000), wk =   0.1250000
        k(    4) = (   0.0000000   0.5000000   0.0000000), wk =   0.1875000
        k(    5) = (   0.7500000  -0.2500000   0.7500000), wk =   0.7500000
        k(    6) = (   0.5000000   0.0000000   0.5000000), wk =   0.3750000
        k(    7) = (   0.0000000  -1.0000000   0.0000000), wk =   0.0937500
        k(    8) = (  -0.5000000  -1.0000000   0.0000000), wk =   0.1875000

     Dense  grid:    23289 G-vectors     FFT dimensions: (  40,  40,  40)

     Estimated max dynamical RAM per process >       2.77 MB

     Estimated total dynamical RAM >     315.16 MB

     Initial potential from superposition of free atoms

     starting charge      27.9964, renormalised to      28.0000
     Starting wfcs are   18 randomized atomic wfcs

     total cpu time spent up to now is        0.7 secs

     per-process dynamical memory:    10.1 Mb

     Self-consistent Calculation

     iteration #  1     ecut=    52.00 Ry     beta= 0.70
     Davidson diagonalization with overlap
     ethr =  1.00E-02,  avg # of iterations =  1.5

     Threshold (ethr) on eigenvalues was too large:
     Diagonalizing with lowered threshold

     Davidson diagonalization with overlap
     ethr =  8.31E-05,  avg # of iterations =  2.1

     negative rho (up, down):  6.464E-05 0.000E+00

     total cpu time spent up to now is        0.8 secs

     total energy              =    -325.60393982 Ry
     estimated scf accuracy    <       0.02871547 Ry

     iteration #  2     ecut=    52.00 Ry     beta= 0.70
     Davidson diagonalization with overlap
     ethr =  1.03E-04,  avg # of iterations =  1.0

     negative rho (up, down):  1.313E-04 0.000E+00

     total cpu time spent up to now is        0.8 secs

     total energy              =    -325.60491422 Ry
     estimated scf accuracy    <       0.00163406 Ry

     iteration #  3     ecut=    52.00 Ry     beta= 0.70
     Davidson diagonalization with overlap
     ethr =  5.84E-06,  avg # of iterations =  2.1

     negative rho (up, down):  1.455E-04 0.000E+00

     total cpu time spent up to now is        0.8 secs

     total energy              =    -325.60504880 Ry
     estimated scf accuracy    <       0.00003974 Ry

     iteration #  4     ecut=    52.00 Ry     beta= 0.70
     Davidson diagonalization with overlap
     ethr =  1.42E-07,  avg # of iterations =  3.2

     negative rho (up, down):  1.545E-04 0.000E+00

     total cpu time spent up to now is        0.8 secs

     total energy              =    -325.60506100 Ry
     estimated scf accuracy    <       0.00000333 Ry

     iteration #  5     ecut=    52.00 Ry     beta= 0.70
     Davidson diagonalization with overlap
     ethr =  1.19E-08,  avg # of iterations =  3.8

     negative rho (up, down):  1.536E-04 0.000E+00

     total cpu time spent up to now is        0.9 secs

     total energy              =    -325.60506161 Ry
     estimated scf accuracy    <       0.00000032 Ry

     iteration #  6     ecut=    52.00 Ry     beta= 0.70
     Davidson diagonalization with overlap
     ethr =  1.13E-09,  avg # of iterations =  2.4

     negative rho (up, down):  1.541E-04 0.000E+00

     total cpu time spent up to now is        0.9 secs

     End of self-consistent calculation

          k = 0.0000 0.0000 0.0000 (  2891 PWs)   bands (ev):

   -13.6993 -13.6993 -13.6993 -13.6409 -13.6409 -13.3228 -13.3228 -13.3228
   -13.3141 -13.3141  -2.6996   7.3352   8.0646   8.0646

          k =-0.2500 0.2500-0.2500 (  2884 PWs)   bands (ev):

   -13.7258 -13.7258 -13.6862 -13.5998 -13.5998 -13.3685 -13.3685 -13.3395
   -13.2768 -13.2768  -2.1077   3.9190   7.3014   7.3014

          k = 0.5000-0.5000 0.5000 (  2914 PWs)   bands (ev):

   -13.7366 -13.7366 -13.6724 -13.5787 -13.5787 -13.3849 -13.3849 -13.3574
   -13.2652 -13.2652  -1.0616   1.6362   6.8441   6.8441

          k = 0.0000 0.5000 0.0000 (  2890 PWs)   bands (ev):

   -13.7278 -13.7278 -13.7037 -13.5920 -13.5420 -13.4555 -13.3610 -13.2925
   -13.2814 -13.2814  -1.8907   3.8044   6.3574   6.3574

          k = 0.7500-0.2500 0.7500 (  2896 PWs)   bands (ev):

   -13.7666 -13.7460 -13.6397 -13.5412 -13.5118 -13.4835 -13.4160 -13.3671
   -13.2531 -13.2319  -0.7136   1.6737   5.0220   6.0402

          k = 0.5000 0.0000 0.5000 (  2894 PWs)   bands (ev):

   -13.7600 -13.7480 -13.6336 -13.5757 -13.5380 -13.4299 -13.3987 -13.3845
   -13.2492 -13.2422  -1.2009   2.3660   4.9327   6.7755

          k = 0.0000-1.0000 0.0000 (  2914 PWs)   bands (ev):

   -13.7521 -13.7521 -13.6154 -13.6154 -13.4758 -13.4758 -13.3898 -13.3898
   -13.2442 -13.2442   0.4184   0.4184   5.4858   5.4858

          k =-0.5000-1.0000 0.0000 (  2872 PWs)   bands (ev):

   -13.7700 -13.7700 -13.5564 -13.5564 -13.4847 -13.4847 -13.4393 -13.4393
   -13.2263 -13.2263   0.4786   0.4786   4.9026   4.9026

     highest occupied level (ev):     8.0646

!    total energy              =    -325.60506166 Ry
     estimated scf accuracy    <       0.00000006 Ry

     The total energy is the sum of the following terms:
     one-electron contribution =    -150.96358960 Ry
     hartree contribution      =      93.25045145 Ry
     xc contribution           =     -95.23249313 Ry
     ewald contribution        =    -172.65943039 Ry

     convergence has been achieved in   6 iterations

     Writing all to output data dir ./alpha-sn-scf/alphatin.save/ :
     XML data file, charge density, pseudopotentials, collected wavefunctions

     init_run     :      0.39s CPU      0.42s WALL (       1 calls)
     electrons    :      0.14s CPU      0.19s WALL (       1 calls)

     Called by init_run:
     wfcinit      :      0.01s CPU      0.02s WALL (       1 calls)
     potinit      :      0.02s CPU      0.03s WALL (       1 calls)
     hinit0       :      0.33s CPU      0.34s WALL (       1 calls)

     Called by electrons:
     c_bands      :      0.06s CPU      0.08s WALL (       7 calls)
     sum_band     :      0.03s CPU      0.04s WALL (       7 calls)
     v_of_rho     :      0.03s CPU      0.04s WALL (       7 calls)
     newd         :      0.01s CPU      0.01s WALL (       7 calls)
     mix_rho      :      0.00s CPU      0.00s WALL (       7 calls)

     Called by c_bands:
     init_us_2    :      0.00s CPU      0.00s WALL (      15 calls)
     cegterg      :      0.05s CPU      0.07s WALL (       7 calls)

     Called by *egterg:
     cdiaghg      :      0.01s CPU      0.01s WALL (      26 calls)
     h_psi        :      0.05s CPU      0.06s WALL (      28 calls)
     s_psi        :      0.00s CPU      0.00s WALL (      28 calls)
     g_psi        :      0.00s CPU      0.00s WALL (      20 calls)

     Called by h_psi:
     h_psi:calbec :      0.00s CPU      0.00s WALL (      28 calls)
     vloc_psi     :      0.04s CPU      0.05s WALL (      28 calls)
     add_vuspsi   :      0.00s CPU      0.00s WALL (      28 calls)

     General routines
     calbec       :      0.00s CPU      0.00s WALL (      35 calls)
     fft          :      0.31s CPU      0.31s WALL (      78 calls)
     ffts         :      0.00s CPU      0.00s WALL (       7 calls)
     fftw         :      0.05s CPU      0.06s WALL (     612 calls)

     Parallel routines

     PWSCF        :      0.76s CPU      1.00s WALL


   This run was terminated on:  15:49:42   5Feb2026            

=------------------------------------------------------------------------------=
   JOB DONE.
=------------------------------------------------------------------------------=
