
     Program PWSCF v.7.3.1 starts on  5Feb2026 at 15:50: 6 

     This program is part of the open-source Quantum ESPRESSO suite
     for quantum simulation of materials; please cite
         "P. Giannozzi et al., J. Phys.:Condens. Matter 21 395502 (2009);
         "P. Giannozzi et al., J. Phys.:Condens. Matter 29 465901 (2017);
         "P. Giannozzi et al., J. Chem. Phys. 152 154105 (2020);
          URL http://www.quantum-espresso.org", 
     in publications or presentations arising from this work. More details at
     http://www.quantum-espresso.org/quote

     Parallel version (MPI), running on   128 processors

     MPI processes distributed on     1 nodes
     242396 MiB available memory on the printing compute node when the environment starts

     Waiting for input...
     Reading input from standard input
     Message from routine read_cards :
     DEPRECATED: no units specified in ATOMIC_POSITIONS card
     Message from routine read_cards :
     ATOMIC_POSITIONS: units set to alat

     Current dimensions of program PWSCF are:
     Max number of different atomic species (ntypx) = 10
     Max number of k-points (npk) =  40000
     Max angular momentum in pseudopotentials (lmaxx) =  4

     K-points division:     npool     =       8
     R & G space division:  proc/nbgrp/npool/nimage =      16
     Subspace diagonalization in iterative solution of the eigenvalue problem:
     a serial algorithm will be used


     Parallelization info
     --------------------
     sticks:   dense  smooth     PW     G-vecs:    dense   smooth      PW
     Min          74      74     21                 1706     1706     266
     Max          75      75     22                 1709     1709     269
     Sum        1189    1189    349                27317    27317    4279

     Using Slab Decomposition



     bravais-lattice index     =            2
     lattice parameter (alat)  =      12.2300  a.u.
     unit-cell volume          =     457.3191 (a.u.)^3
     number of atoms/cell      =            2
     number of atomic types    =            1
     number of electrons       =        28.00
     number of Kohn-Sham states=           14
     kinetic-energy cutoff     =      58.0000  Ry
     charge density cutoff     =     232.0000  Ry
     scf convergence threshold =      1.0E-07
     mixing beta               =       0.7000
     number of iterations used =            8  plain     mixing
     Exchange-correlation=  SLA  PW   GGX  GGC
                           (   1   4   2   2   0   0   0)

     celldm(1)=  12.230000  celldm(2)=   0.000000  celldm(3)=   0.000000
     celldm(4)=   0.000000  celldm(5)=   0.000000  celldm(6)=   0.000000

     crystal axes: (cart. coord. in units of alat)
               a(1) = (  -0.500000   0.000000   0.500000 )  
               a(2) = (   0.000000   0.500000   0.500000 )  
               a(3) = (  -0.500000   0.500000   0.000000 )  

     reciprocal axes: (cart. coord. in units 2 pi/alat)
               b(1) = ( -1.000000 -1.000000  1.000000 )  
               b(2) = (  1.000000  1.000000  1.000000 )  
               b(3) = ( -1.000000  1.000000 -1.000000 )  


     PseudoPot. # 1 for Sn read from file:
     ./Sn.pw91-n-van.UPF
     MD5 check sum: a38d2a872edd1a4efd76c0a1a38f7031
     Pseudo is Ultrasoft + core correction, Zval = 14.0
     Generated by new atomic code, or converted to UPF format
     Using radial grid of  891 points,  6 beta functions with: 
                l(1) =   0
                l(2) =   0
                l(3) =   1
                l(4) =   1
                l(5) =   2
                l(6) =   2
     Q(r) pseudized with  8 coefficients,  rinner =    1.100   1.100   1.100
                                                       1.100   1.100

     atomic species   valence    mass     pseudopotential
     Sn               14.00   118.70000     Sn( 1.00)

     48 Sym. Ops., with inversion, found (24 have fractional translation)



   Cartesian axes

     site n.     atom                  positions (alat units)
         1        Sn     tau(   1) = (   0.0000000   0.0000000   0.0000000  )
         2        Sn     tau(   2) = (   0.2500000   0.2500000   0.2500000  )

     number of k points=     8
                       cart. coord. in units 2pi/alat
        k(    1) = (   0.0000000   0.0000000   0.0000000), wk =   0.0312500
        k(    2) = (  -0.2500000   0.2500000  -0.2500000), wk =   0.2500000
        k(    3) = (   0.5000000  -0.5000000   0.5000000), wk =   0.1250000
        k(    4) = (   0.0000000   0.5000000   0.0000000), wk =   0.1875000
        k(    5) = (   0.7500000  -0.2500000   0.7500000), wk =   0.7500000
        k(    6) = (   0.5000000   0.0000000   0.5000000), wk =   0.3750000
        k(    7) = (   0.0000000  -1.0000000   0.0000000), wk =   0.0937500
        k(    8) = (  -0.5000000  -1.0000000   0.0000000), wk =   0.1875000

     Dense  grid:    27317 G-vectors     FFT dimensions: (  48,  48,  48)

     Estimated max dynamical RAM per process >       3.20 MB

     Estimated total dynamical RAM >     363.49 MB

     Initial potential from superposition of free atoms

     starting charge      27.9964, renormalised to      28.0000
     Starting wfcs are   18 randomized atomic wfcs

     total cpu time spent up to now is        0.8 secs

     per-process dynamical memory:    10.8 Mb

     Self-consistent Calculation

     iteration #  1     ecut=    58.00 Ry     beta= 0.70
     Davidson diagonalization with overlap
     ethr =  1.00E-02,  avg # of iterations =  1.5

     Threshold (ethr) on eigenvalues was too large:
     Diagonalizing with lowered threshold

     Davidson diagonalization with overlap
     ethr =  8.29E-05,  avg # of iterations =  2.1

     total cpu time spent up to now is        0.8 secs

     total energy              =    -325.60912967 Ry
     estimated scf accuracy    <       0.02867935 Ry

     iteration #  2     ecut=    58.00 Ry     beta= 0.70
     Davidson diagonalization with overlap
     ethr =  1.02E-04,  avg # of iterations =  1.0

     negative rho (up, down):  9.941E-06 0.000E+00

     total cpu time spent up to now is        0.9 secs

     total energy              =    -325.61015891 Ry
     estimated scf accuracy    <       0.00165665 Ry

     iteration #  3     ecut=    58.00 Ry     beta= 0.70
     Davidson diagonalization with overlap
     ethr =  5.92E-06,  avg # of iterations =  2.1

     negative rho (up, down):  1.795E-05 0.000E+00

     total cpu time spent up to now is        0.9 secs

     total energy              =    -325.61029515 Ry
     estimated scf accuracy    <       0.00003791 Ry

     iteration #  4     ecut=    58.00 Ry     beta= 0.70
     Davidson diagonalization with overlap
     ethr =  1.35E-07,  avg # of iterations =  3.8

     negative rho (up, down):  2.290E-05 0.000E+00

     total cpu time spent up to now is        0.9 secs

     total energy              =    -325.61030701 Ry
     estimated scf accuracy    <       0.00000324 Ry

     iteration #  5     ecut=    58.00 Ry     beta= 0.70
     Davidson diagonalization with overlap
     ethr =  1.16E-08,  avg # of iterations =  3.4

     negative rho (up, down):  2.237E-05 0.000E+00

     total cpu time spent up to now is        0.9 secs

     total energy              =    -325.61030766 Ry
     estimated scf accuracy    <       0.00000031 Ry

     iteration #  6     ecut=    58.00 Ry     beta= 0.70
     Davidson diagonalization with overlap
     ethr =  1.11E-09,  avg # of iterations =  2.2

     negative rho (up, down):  2.260E-05 0.000E+00

     total cpu time spent up to now is        1.0 secs

     total energy              =    -325.61030771 Ry
     estimated scf accuracy    <       0.00000010 Ry

     iteration #  7     ecut=    58.00 Ry     beta= 0.70
     Davidson diagonalization with overlap
     ethr =  3.72E-10,  avg # of iterations =  2.0

     negative rho (up, down):  2.263E-05 0.000E+00

     total cpu time spent up to now is        1.0 secs

     End of self-consistent calculation

          k = 0.0000 0.0000 0.0000 (  3479 PWs)   bands (ev):

   -13.6987 -13.6987 -13.6987 -13.6419 -13.6419 -13.3214 -13.3214 -13.3214
   -13.3157 -13.3157  -2.6952   7.3395   8.0675   8.0675

          k =-0.2500 0.2500-0.2500 (  3416 PWs)   bands (ev):

   -13.7250 -13.7250 -13.6852 -13.6007 -13.6007 -13.3689 -13.3689 -13.3380
   -13.2758 -13.2758  -2.1035   3.9230   7.3045   7.3045

          k = 0.5000-0.5000 0.5000 (  3426 PWs)   bands (ev):

   -13.7355 -13.7355 -13.6714 -13.5797 -13.5797 -13.3859 -13.3859 -13.3555
   -13.2635 -13.2635  -1.0582   1.6414   6.8471   6.8471

          k = 0.0000 0.5000 0.0000 (  3399 PWs)   bands (ev):

   -13.7265 -13.7265 -13.7032 -13.5928 -13.5424 -13.4551 -13.3621 -13.2926
   -13.2795 -13.2795  -1.8866   3.8075   6.3611   6.3611

          k = 0.7500-0.2500 0.7500 (  3415 PWs)   bands (ev):

   -13.7656 -13.7449 -13.6392 -13.5420 -13.5120 -13.4833 -13.4169 -13.3669
   -13.2513 -13.2304  -0.7100   1.6773   5.0283   6.0438

          k = 0.5000 0.0000 0.5000 (  3418 PWs)   bands (ev):

   -13.7588 -13.7472 -13.6324 -13.5766 -13.5387 -13.4306 -13.3972 -13.3855
   -13.2480 -13.2406  -1.1971   2.3695   4.9394   6.7787

          k = 0.0000-1.0000 0.0000 (  3378 PWs)   bands (ev):

   -13.7506 -13.7506 -13.6151 -13.6151 -13.4763 -13.4763 -13.3901 -13.3901
   -13.2417 -13.2417   0.4219   0.4219   5.4897   5.4897

          k =-0.5000-1.0000 0.0000 (  3400 PWs)   bands (ev):

   -13.7690 -13.7690 -13.5558 -13.5558 -13.4855 -13.4855 -13.4395 -13.4395
   -13.2246 -13.2246   0.4818   0.4818   4.9090   4.9090

     highest occupied level (ev):     8.0675

!    total energy              =    -325.61030771 Ry
     estimated scf accuracy    <          1.5E-09 Ry

     The total energy is the sum of the following terms:
     one-electron contribution =    -150.97677722 Ry
     hartree contribution      =      93.26126927 Ry
     xc contribution           =     -95.23536936 Ry
     ewald contribution        =    -172.65943040 Ry

     convergence has been achieved in   7 iterations

     Writing all to output data dir ./alpha-sn-scf/alphatin.save/ :
     XML data file, charge density, pseudopotentials, collected wavefunctions

     init_run     :      0.43s CPU      0.48s WALL (       1 calls)
     electrons    :      0.17s CPU      0.24s WALL (       1 calls)

     Called by init_run:
     wfcinit      :      0.01s CPU      0.02s WALL (       1 calls)
     potinit      :      0.01s CPU      0.02s WALL (       1 calls)
     hinit0       :      0.37s CPU      0.39s WALL (       1 calls)

     Called by electrons:
     c_bands      :      0.08s CPU      0.10s WALL (       8 calls)
     sum_band     :      0.03s CPU      0.05s WALL (       8 calls)
     v_of_rho     :      0.04s CPU      0.05s WALL (       8 calls)
     newd         :      0.01s CPU      0.02s WALL (       8 calls)
     mix_rho      :      0.00s CPU      0.00s WALL (       8 calls)

     Called by c_bands:
     init_us_2    :      0.00s CPU      0.00s WALL (      17 calls)
     cegterg      :      0.07s CPU      0.08s WALL (       8 calls)

     Called by *egterg:
     cdiaghg      :      0.01s CPU      0.01s WALL (      29 calls)
     h_psi        :      0.06s CPU      0.08s WALL (      31 calls)
     s_psi        :      0.00s CPU      0.00s WALL (      31 calls)
     g_psi        :      0.00s CPU      0.00s WALL (      22 calls)

     Called by h_psi:
     h_psi:calbec :      0.00s CPU      0.01s WALL (      31 calls)
     vloc_psi     :      0.06s CPU      0.07s WALL (      31 calls)
     add_vuspsi   :      0.00s CPU      0.00s WALL (      31 calls)

     General routines
     calbec       :      0.00s CPU      0.00s WALL (      39 calls)
     fft          :      0.36s CPU      0.37s WALL (      89 calls)
     ffts         :      0.00s CPU      0.00s WALL (       8 calls)
     fftw         :      0.06s CPU      0.08s WALL (     696 calls)

     Parallel routines

     PWSCF        :      0.81s CPU      1.10s WALL


   This run was terminated on:  15:50: 7   5Feb2026            

=------------------------------------------------------------------------------=
   JOB DONE.
=------------------------------------------------------------------------------=
