
     Program PWSCF v.7.3.1 starts on  5Feb2026 at 15:50:43 

     This program is part of the open-source Quantum ESPRESSO suite
     for quantum simulation of materials; please cite
         "P. Giannozzi et al., J. Phys.:Condens. Matter 21 395502 (2009);
         "P. Giannozzi et al., J. Phys.:Condens. Matter 29 465901 (2017);
         "P. Giannozzi et al., J. Chem. Phys. 152 154105 (2020);
          URL http://www.quantum-espresso.org", 
     in publications or presentations arising from this work. More details at
     http://www.quantum-espresso.org/quote

     Parallel version (MPI), running on   128 processors

     MPI processes distributed on     1 nodes
     242482 MiB available memory on the printing compute node when the environment starts

     Waiting for input...
     Reading input from standard input
     Message from routine read_cards :
     DEPRECATED: no units specified in ATOMIC_POSITIONS card
     Message from routine read_cards :
     ATOMIC_POSITIONS: units set to alat

     Current dimensions of program PWSCF are:
     Max number of different atomic species (ntypx) = 10
     Max number of k-points (npk) =  40000
     Max angular momentum in pseudopotentials (lmaxx) =  4

     K-points division:     npool     =       8
     R & G space division:  proc/nbgrp/npool/nimage =      16
     Subspace diagonalization in iterative solution of the eigenvalue problem:
     a serial algorithm will be used


     Parallelization info
     --------------------
     sticks:   dense  smooth     PW     G-vecs:    dense   smooth      PW
     Min          80      80     22                 1896     1896     288
     Max          81      81     23                 1899     1899     291
     Sum        1285    1285    367                30347    30347    4645

     Using Slab Decomposition



     bravais-lattice index     =            2
     lattice parameter (alat)  =      12.2300  a.u.
     unit-cell volume          =     457.3191 (a.u.)^3
     number of atoms/cell      =            2
     number of atomic types    =            1
     number of electrons       =        28.00
     number of Kohn-Sham states=           14
     kinetic-energy cutoff     =      62.0000  Ry
     charge density cutoff     =     248.0000  Ry
     scf convergence threshold =      1.0E-07
     mixing beta               =       0.7000
     number of iterations used =            8  plain     mixing
     Exchange-correlation=  SLA  PW   GGX  GGC
                           (   1   4   2   2   0   0   0)

     celldm(1)=  12.230000  celldm(2)=   0.000000  celldm(3)=   0.000000
     celldm(4)=   0.000000  celldm(5)=   0.000000  celldm(6)=   0.000000

     crystal axes: (cart. coord. in units of alat)
               a(1) = (  -0.500000   0.000000   0.500000 )  
               a(2) = (   0.000000   0.500000   0.500000 )  
               a(3) = (  -0.500000   0.500000   0.000000 )  

     reciprocal axes: (cart. coord. in units 2 pi/alat)
               b(1) = ( -1.000000 -1.000000  1.000000 )  
               b(2) = (  1.000000  1.000000  1.000000 )  
               b(3) = ( -1.000000  1.000000 -1.000000 )  


     PseudoPot. # 1 for Sn read from file:
     ./Sn.pw91-n-van.UPF
     MD5 check sum: a38d2a872edd1a4efd76c0a1a38f7031
     Pseudo is Ultrasoft + core correction, Zval = 14.0
     Generated by new atomic code, or converted to UPF format
     Using radial grid of  891 points,  6 beta functions with: 
                l(1) =   0
                l(2) =   0
                l(3) =   1
                l(4) =   1
                l(5) =   2
                l(6) =   2
     Q(r) pseudized with  8 coefficients,  rinner =    1.100   1.100   1.100
                                                       1.100   1.100

     atomic species   valence    mass     pseudopotential
     Sn               14.00   118.70000     Sn( 1.00)

     48 Sym. Ops., with inversion, found (24 have fractional translation)



   Cartesian axes

     site n.     atom                  positions (alat units)
         1        Sn     tau(   1) = (   0.0000000   0.0000000   0.0000000  )
         2        Sn     tau(   2) = (   0.2500000   0.2500000   0.2500000  )

     number of k points=     8
                       cart. coord. in units 2pi/alat
        k(    1) = (   0.0000000   0.0000000   0.0000000), wk =   0.0312500
        k(    2) = (  -0.2500000   0.2500000  -0.2500000), wk =   0.2500000
        k(    3) = (   0.5000000  -0.5000000   0.5000000), wk =   0.1250000
        k(    4) = (   0.0000000   0.5000000   0.0000000), wk =   0.1875000
        k(    5) = (   0.7500000  -0.2500000   0.7500000), wk =   0.7500000
        k(    6) = (   0.5000000   0.0000000   0.5000000), wk =   0.3750000
        k(    7) = (   0.0000000  -1.0000000   0.0000000), wk =   0.0937500
        k(    8) = (  -0.5000000  -1.0000000   0.0000000), wk =   0.1875000

     Dense  grid:    30347 G-vectors     FFT dimensions: (  48,  48,  48)

     Estimated max dynamical RAM per process >       3.41 MB

     Estimated total dynamical RAM >     384.92 MB

     Initial potential from superposition of free atoms

     starting charge      27.9964, renormalised to      28.0000
     Starting wfcs are   18 randomized atomic wfcs

     total cpu time spent up to now is        0.8 secs

     per-process dynamical memory:    11.5 Mb

     Self-consistent Calculation

     iteration #  1     ecut=    62.00 Ry     beta= 0.70
     Davidson diagonalization with overlap
     ethr =  1.00E-02,  avg # of iterations =  1.5

     Threshold (ethr) on eigenvalues was too large:
     Diagonalizing with lowered threshold

     Davidson diagonalization with overlap
     ethr =  8.23E-05,  avg # of iterations =  2.1

     total cpu time spent up to now is        0.8 secs

     total energy              =    -325.61114960 Ry
     estimated scf accuracy    <       0.02863795 Ry

     iteration #  2     ecut=    62.00 Ry     beta= 0.70
     Davidson diagonalization with overlap
     ethr =  1.02E-04,  avg # of iterations =  1.0

     total cpu time spent up to now is        0.9 secs

     total energy              =    -325.61219146 Ry
     estimated scf accuracy    <       0.00165106 Ry

     iteration #  3     ecut=    62.00 Ry     beta= 0.70
     Davidson diagonalization with overlap
     ethr =  5.90E-06,  avg # of iterations =  2.1

     total cpu time spent up to now is        0.9 secs

     total energy              =    -325.61232954 Ry
     estimated scf accuracy    <       0.00003855 Ry

     iteration #  4     ecut=    62.00 Ry     beta= 0.70
     Davidson diagonalization with overlap
     ethr =  1.38E-07,  avg # of iterations =  3.8

     total cpu time spent up to now is        0.9 secs

     total energy              =    -325.61234239 Ry
     estimated scf accuracy    <       0.00000332 Ry

     iteration #  5     ecut=    62.00 Ry     beta= 0.70
     Davidson diagonalization with overlap
     ethr =  1.19E-08,  avg # of iterations =  3.6

     total cpu time spent up to now is        0.9 secs

     total energy              =    -325.61234307 Ry
     estimated scf accuracy    <       0.00000033 Ry

     iteration #  6     ecut=    62.00 Ry     beta= 0.70
     Davidson diagonalization with overlap
     ethr =  1.18E-09,  avg # of iterations =  2.2

     total cpu time spent up to now is        1.0 secs

     End of self-consistent calculation

          k = 0.0000 0.0000 0.0000 (  3719 PWs)   bands (ev):

   -13.6998 -13.6998 -13.6998 -13.6410 -13.6410 -13.3222 -13.3222 -13.3222
   -13.3149 -13.3149  -2.6956   7.3400   8.0674   8.0674

          k =-0.2500 0.2500-0.2500 (  3756 PWs)   bands (ev):

   -13.7260 -13.7260 -13.6864 -13.6005 -13.6005 -13.3690 -13.3690 -13.3393
   -13.2769 -13.2769  -2.1038   3.9228   7.3042   7.3042

          k = 0.5000-0.5000 0.5000 (  3798 PWs)   bands (ev):

   -13.7369 -13.7369 -13.6727 -13.5793 -13.5793 -13.3856 -13.3856 -13.3571
   -13.2650 -13.2650  -1.0582   1.6408   6.8469   6.8469

          k = 0.0000 0.5000 0.0000 (  3767 PWs)   bands (ev):

   -13.7279 -13.7279 -13.7041 -13.5927 -13.5425 -13.4557 -13.3619 -13.2929
   -13.2811 -13.2811  -1.8869   3.8077   6.3606   6.3606

          k = 0.7500-0.2500 0.7500 (  3775 PWs)   bands (ev):

   -13.7668 -13.7462 -13.6400 -13.5417 -13.5122 -13.4838 -13.4168 -13.3675
   -13.2528 -13.2318  -0.7101   1.6772   5.0271   6.0433

          k = 0.5000 0.0000 0.5000 (  3775 PWs)   bands (ev):

   -13.7602 -13.7482 -13.6336 -13.5763 -13.5385 -13.4304 -13.3986 -13.3853
   -13.2493 -13.2421  -1.1973   2.3694   4.9381   6.7784

          k = 0.0000-1.0000 0.0000 (  3812 PWs)   bands (ev):

   -13.7522 -13.7522 -13.6158 -13.6158 -13.4764 -13.4764 -13.3906 -13.3906
   -13.2438 -13.2438   0.4218   0.4218   5.4891   5.4891

          k =-0.5000-1.0000 0.0000 (  3736 PWs)   bands (ev):

   -13.7702 -13.7702 -13.5564 -13.5564 -13.4853 -13.4853 -13.4397 -13.4397
   -13.2260 -13.2260   0.4819   0.4819   4.9077   4.9077

     highest occupied level (ev):     8.0674

!    total energy              =    -325.61234312 Ry
     estimated scf accuracy    <       0.00000010 Ry

     The total energy is the sum of the following terms:
     one-electron contribution =    -150.97661255 Ry
     hartree contribution      =      93.25824964 Ry
     xc contribution           =     -95.23454983 Ry
     ewald contribution        =    -172.65943038 Ry

     convergence has been achieved in   6 iterations

     Writing all to output data dir ./alpha-sn-scf/alphatin.save/ :
     XML data file, charge density, pseudopotentials, collected wavefunctions

     init_run     :      0.43s CPU      0.48s WALL (       1 calls)
     electrons    :      0.18s CPU      0.22s WALL (       1 calls)

     Called by init_run:
     wfcinit      :      0.01s CPU      0.02s WALL (       1 calls)
     potinit      :      0.01s CPU      0.02s WALL (       1 calls)
     hinit0       :      0.39s CPU      0.40s WALL (       1 calls)

     Called by electrons:
     c_bands      :      0.08s CPU      0.09s WALL (       7 calls)
     sum_band     :      0.03s CPU      0.05s WALL (       7 calls)
     v_of_rho     :      0.04s CPU      0.05s WALL (       7 calls)
     newd         :      0.01s CPU      0.01s WALL (       7 calls)
     mix_rho      :      0.00s CPU      0.00s WALL (       7 calls)

     Called by c_bands:
     init_us_2    :      0.00s CPU      0.00s WALL (      15 calls)
     cegterg      :      0.07s CPU      0.08s WALL (       7 calls)

     Called by *egterg:
     cdiaghg      :      0.01s CPU      0.01s WALL (      27 calls)
     h_psi        :      0.06s CPU      0.07s WALL (      29 calls)
     s_psi        :      0.00s CPU      0.00s WALL (      29 calls)
     g_psi        :      0.00s CPU      0.00s WALL (      21 calls)

     Called by h_psi:
     h_psi:calbec :      0.00s CPU      0.00s WALL (      29 calls)
     vloc_psi     :      0.06s CPU      0.06s WALL (      29 calls)
     add_vuspsi   :      0.00s CPU      0.00s WALL (      29 calls)

     General routines
     calbec       :      0.00s CPU      0.01s WALL (      36 calls)
     fft          :      0.36s CPU      0.37s WALL (      78 calls)
     ffts         :      0.00s CPU      0.00s WALL (       7 calls)
     fftw         :      0.06s CPU      0.07s WALL (     626 calls)

     Parallel routines

     PWSCF        :      0.84s CPU      1.09s WALL


   This run was terminated on:  15:50:45   5Feb2026            

=------------------------------------------------------------------------------=
   JOB DONE.
=------------------------------------------------------------------------------=
