
     Program PWSCF v.7.3.1 starts on  5Feb2026 at 15:51:11 

     This program is part of the open-source Quantum ESPRESSO suite
     for quantum simulation of materials; please cite
         "P. Giannozzi et al., J. Phys.:Condens. Matter 21 395502 (2009);
         "P. Giannozzi et al., J. Phys.:Condens. Matter 29 465901 (2017);
         "P. Giannozzi et al., J. Chem. Phys. 152 154105 (2020);
          URL http://www.quantum-espresso.org", 
     in publications or presentations arising from this work. More details at
     http://www.quantum-espresso.org/quote

     Parallel version (MPI), running on   128 processors

     MPI processes distributed on     1 nodes
     242444 MiB available memory on the printing compute node when the environment starts

     Waiting for input...
     Reading input from standard input
     Message from routine read_cards :
     DEPRECATED: no units specified in ATOMIC_POSITIONS card
     Message from routine read_cards :
     ATOMIC_POSITIONS: units set to alat

     Current dimensions of program PWSCF are:
     Max number of different atomic species (ntypx) = 10
     Max number of k-points (npk) =  40000
     Max angular momentum in pseudopotentials (lmaxx) =  4

     K-points division:     npool     =       8
     R & G space division:  proc/nbgrp/npool/nimage =      16
     Subspace diagonalization in iterative solution of the eigenvalue problem:
     a serial algorithm will be used


     Parallelization info
     --------------------
     sticks:   dense  smooth     PW     G-vecs:    dense   smooth      PW
     Min          87      87     24                 2163     2163     325
     Max          88      88     25                 2167     2167     327
     Sum        1393    1393    397                34621    34621    5209

     Using Slab Decomposition



     bravais-lattice index     =            2
     lattice parameter (alat)  =      12.2300  a.u.
     unit-cell volume          =     457.3191 (a.u.)^3
     number of atoms/cell      =            2
     number of atomic types    =            1
     number of electrons       =        28.00
     number of Kohn-Sham states=           14
     kinetic-energy cutoff     =      68.0000  Ry
     charge density cutoff     =     272.0000  Ry
     scf convergence threshold =      1.0E-07
     mixing beta               =       0.7000
     number of iterations used =            8  plain     mixing
     Exchange-correlation=  SLA  PW   GGX  GGC
                           (   1   4   2   2   0   0   0)

     celldm(1)=  12.230000  celldm(2)=   0.000000  celldm(3)=   0.000000
     celldm(4)=   0.000000  celldm(5)=   0.000000  celldm(6)=   0.000000

     crystal axes: (cart. coord. in units of alat)
               a(1) = (  -0.500000   0.000000   0.500000 )  
               a(2) = (   0.000000   0.500000   0.500000 )  
               a(3) = (  -0.500000   0.500000   0.000000 )  

     reciprocal axes: (cart. coord. in units 2 pi/alat)
               b(1) = ( -1.000000 -1.000000  1.000000 )  
               b(2) = (  1.000000  1.000000  1.000000 )  
               b(3) = ( -1.000000  1.000000 -1.000000 )  


     PseudoPot. # 1 for Sn read from file:
     ./Sn.pw91-n-van.UPF
     MD5 check sum: a38d2a872edd1a4efd76c0a1a38f7031
     Pseudo is Ultrasoft + core correction, Zval = 14.0
     Generated by new atomic code, or converted to UPF format
     Using radial grid of  891 points,  6 beta functions with: 
                l(1) =   0
                l(2) =   0
                l(3) =   1
                l(4) =   1
                l(5) =   2
                l(6) =   2
     Q(r) pseudized with  8 coefficients,  rinner =    1.100   1.100   1.100
                                                       1.100   1.100

     atomic species   valence    mass     pseudopotential
     Sn               14.00   118.70000     Sn( 1.00)

     48 Sym. Ops., with inversion, found (24 have fractional translation)



   Cartesian axes

     site n.     atom                  positions (alat units)
         1        Sn     tau(   1) = (   0.0000000   0.0000000   0.0000000  )
         2        Sn     tau(   2) = (   0.2500000   0.2500000   0.2500000  )

     number of k points=     8
                       cart. coord. in units 2pi/alat
        k(    1) = (   0.0000000   0.0000000   0.0000000), wk =   0.0312500
        k(    2) = (  -0.2500000   0.2500000  -0.2500000), wk =   0.2500000
        k(    3) = (   0.5000000  -0.5000000   0.5000000), wk =   0.1250000
        k(    4) = (   0.0000000   0.5000000   0.0000000), wk =   0.1875000
        k(    5) = (   0.7500000  -0.2500000   0.7500000), wk =   0.7500000
        k(    6) = (   0.5000000   0.0000000   0.5000000), wk =   0.3750000
        k(    7) = (   0.0000000  -1.0000000   0.0000000), wk =   0.0937500
        k(    8) = (  -0.5000000  -1.0000000   0.0000000), wk =   0.1875000

     Dense  grid:    34621 G-vectors     FFT dimensions: (  48,  48,  48)

     Estimated max dynamical RAM per process >       3.71 MB

     Estimated total dynamical RAM >     415.43 MB

     Initial potential from superposition of free atoms

     starting charge      27.9964, renormalised to      28.0000
     Starting wfcs are   18 randomized atomic wfcs

     total cpu time spent up to now is        0.8 secs

     per-process dynamical memory:    11.1 Mb

     Self-consistent Calculation

     iteration #  1     ecut=    68.00 Ry     beta= 0.70
     Davidson diagonalization with overlap
     ethr =  1.00E-02,  avg # of iterations =  1.6

     Threshold (ethr) on eigenvalues was too large:
     Diagonalizing with lowered threshold

     Davidson diagonalization with overlap
     ethr =  8.34E-05,  avg # of iterations =  2.1

     total cpu time spent up to now is        0.8 secs

     total energy              =    -325.61159429 Ry
     estimated scf accuracy    <       0.02860554 Ry

     iteration #  2     ecut=    68.00 Ry     beta= 0.70
     Davidson diagonalization with overlap
     ethr =  1.02E-04,  avg # of iterations =  1.0

     total cpu time spent up to now is        0.9 secs

     total energy              =    -325.61256523 Ry
     estimated scf accuracy    <       0.00162799 Ry

     iteration #  3     ecut=    68.00 Ry     beta= 0.70
     Davidson diagonalization with overlap
     ethr =  5.81E-06,  avg # of iterations =  2.5

     total cpu time spent up to now is        0.9 secs

     total energy              =    -325.61270253 Ry
     estimated scf accuracy    <       0.00003886 Ry

     iteration #  4     ecut=    68.00 Ry     beta= 0.70
     Davidson diagonalization with overlap
     ethr =  1.39E-07,  avg # of iterations =  3.6

     total cpu time spent up to now is        0.9 secs

     total energy              =    -325.61271482 Ry
     estimated scf accuracy    <       0.00000329 Ry

     iteration #  5     ecut=    68.00 Ry     beta= 0.70
     Davidson diagonalization with overlap
     ethr =  1.17E-08,  avg # of iterations =  3.5

     total cpu time spent up to now is        1.0 secs

     total energy              =    -325.61271544 Ry
     estimated scf accuracy    <       0.00000033 Ry

     iteration #  6     ecut=    68.00 Ry     beta= 0.70
     Davidson diagonalization with overlap
     ethr =  1.18E-09,  avg # of iterations =  2.2

     total cpu time spent up to now is        1.0 secs

     End of self-consistent calculation

          k = 0.0000 0.0000 0.0000 (  4285 PWs)   bands (ev):

   -13.7047 -13.7047 -13.7047 -13.6457 -13.6457 -13.3277 -13.3277 -13.3277
   -13.3194 -13.3194  -2.7001   7.3363   8.0641   8.0641

          k =-0.2500 0.2500-0.2500 (  4339 PWs)   bands (ev):

   -13.7311 -13.7311 -13.6916 -13.6050 -13.6050 -13.3737 -13.3737 -13.3447
   -13.2819 -13.2819  -2.1081   3.9187   7.3009   7.3009

          k = 0.5000-0.5000 0.5000 (  4338 PWs)   bands (ev):

   -13.7418 -13.7418 -13.6776 -13.5837 -13.5837 -13.3900 -13.3900 -13.3624
   -13.2701 -13.2701  -1.0617   1.6355   6.8437   6.8437

          k = 0.0000 0.5000 0.0000 (  4336 PWs)   bands (ev):

   -13.7329 -13.7329 -13.7089 -13.5970 -13.5472 -13.4606 -13.3663 -13.2978
   -13.2865 -13.2865  -1.8911   3.8047   6.3567   6.3567

          k = 0.7500-0.2500 0.7500 (  4327 PWs)   bands (ev):

   -13.7718 -13.7512 -13.6449 -13.5462 -13.5169 -13.4887 -13.4211 -13.3723
   -13.2581 -13.2370  -0.7137   1.6736   5.0203   6.0395

          k = 0.5000 0.0000 0.5000 (  4335 PWs)   bands (ev):

   -13.7652 -13.7532 -13.6387 -13.5807 -13.5430 -13.4350 -13.4038 -13.3898
   -13.2544 -13.2473  -1.2011   2.3660   4.9309   6.7750

          k = 0.0000-1.0000 0.0000 (  4328 PWs)   bands (ev):

   -13.7572 -13.7572 -13.6206 -13.6206 -13.4807 -13.4807 -13.3952 -13.3952
   -13.2490 -13.2490   0.4184   0.4184   5.4850   5.4850

          k =-0.5000-1.0000 0.0000 (  4348 PWs)   bands (ev):

   -13.7752 -13.7752 -13.5616 -13.5616 -13.4899 -13.4899 -13.4445 -13.4445
   -13.2315 -13.2315   0.4786   0.4786   4.9009   4.9009

     highest occupied level (ev):     8.0641

!    total energy              =    -325.61271549 Ry
     estimated scf accuracy    <       0.00000007 Ry

     The total energy is the sum of the following terms:
     one-electron contribution =    -150.97069277 Ry
     hartree contribution      =      93.24961071 Ry
     xc contribution           =     -95.23220308 Ry
     ewald contribution        =    -172.65943036 Ry

     convergence has been achieved in   6 iterations

     Writing all to output data dir ./alpha-sn-scf/alphatin.save/ :
     XML data file, charge density, pseudopotentials, collected wavefunctions

     init_run     :      0.42s CPU      0.48s WALL (       1 calls)
     electrons    :      0.19s CPU      0.23s WALL (       1 calls)

     Called by init_run:
     wfcinit      :      0.01s CPU      0.02s WALL (       1 calls)
     potinit      :      0.01s CPU      0.02s WALL (       1 calls)
     hinit0       :      0.38s CPU      0.40s WALL (       1 calls)

     Called by electrons:
     c_bands      :      0.09s CPU      0.10s WALL (       7 calls)
     sum_band     :      0.03s CPU      0.05s WALL (       7 calls)
     v_of_rho     :      0.03s CPU      0.05s WALL (       7 calls)
     newd         :      0.01s CPU      0.02s WALL (       7 calls)
     mix_rho      :      0.00s CPU      0.00s WALL (       7 calls)

     Called by c_bands:
     init_us_2    :      0.00s CPU      0.00s WALL (      15 calls)
     cegterg      :      0.08s CPU      0.08s WALL (       7 calls)

     Called by *egterg:
     cdiaghg      :      0.01s CPU      0.01s WALL (      28 calls)
     h_psi        :      0.07s CPU      0.07s WALL (      30 calls)
     s_psi        :      0.00s CPU      0.00s WALL (      30 calls)
     g_psi        :      0.00s CPU      0.00s WALL (      22 calls)

     Called by h_psi:
     h_psi:calbec :      0.00s CPU      0.00s WALL (      30 calls)
     vloc_psi     :      0.06s CPU      0.06s WALL (      30 calls)
     add_vuspsi   :      0.00s CPU      0.00s WALL (      30 calls)

     General routines
     calbec       :      0.00s CPU      0.01s WALL (      37 calls)
     fft          :      0.36s CPU      0.37s WALL (      78 calls)
     ffts         :      0.00s CPU      0.00s WALL (       7 calls)
     fftw         :      0.06s CPU      0.07s WALL (     620 calls)

     Parallel routines

     PWSCF        :      0.88s CPU      1.15s WALL


   This run was terminated on:  15:51:12   5Feb2026            

=------------------------------------------------------------------------------=
   JOB DONE.
=------------------------------------------------------------------------------=
