
     Program PWSCF v.7.3.1 starts on  5Feb2026 at 15:51:45 

     This program is part of the open-source Quantum ESPRESSO suite
     for quantum simulation of materials; please cite
         "P. Giannozzi et al., J. Phys.:Condens. Matter 21 395502 (2009);
         "P. Giannozzi et al., J. Phys.:Condens. Matter 29 465901 (2017);
         "P. Giannozzi et al., J. Chem. Phys. 152 154105 (2020);
          URL http://www.quantum-espresso.org", 
     in publications or presentations arising from this work. More details at
     http://www.quantum-espresso.org/quote

     Parallel version (MPI), running on   128 processors

     MPI processes distributed on     1 nodes
     242393 MiB available memory on the printing compute node when the environment starts

     Waiting for input...
     Reading input from standard input
     Message from routine read_cards :
     DEPRECATED: no units specified in ATOMIC_POSITIONS card
     Message from routine read_cards :
     ATOMIC_POSITIONS: units set to alat

     Current dimensions of program PWSCF are:
     Max number of different atomic species (ntypx) = 10
     Max number of k-points (npk) =  40000
     Max angular momentum in pseudopotentials (lmaxx) =  4

     K-points division:     npool     =       8
     R & G space division:  proc/nbgrp/npool/nimage =      16
     Subspace diagonalization in iterative solution of the eigenvalue problem:
     a serial algorithm will be used


     Parallelization info
     --------------------
     sticks:   dense  smooth     PW     G-vecs:    dense   smooth      PW
     Min          94      94     27                 2450     2450     372
     Max          95      95     28                 2454     2454     375
     Sum        1519    1519    433                39237    39237    5961

     Using Slab Decomposition



     bravais-lattice index     =            2
     lattice parameter (alat)  =      12.2300  a.u.
     unit-cell volume          =     457.3191 (a.u.)^3
     number of atoms/cell      =            2
     number of atomic types    =            1
     number of electrons       =        28.00
     number of Kohn-Sham states=           14
     kinetic-energy cutoff     =      74.0000  Ry
     charge density cutoff     =     296.0000  Ry
     scf convergence threshold =      1.0E-07
     mixing beta               =       0.7000
     number of iterations used =            8  plain     mixing
     Exchange-correlation=  SLA  PW   GGX  GGC
                           (   1   4   2   2   0   0   0)

     celldm(1)=  12.230000  celldm(2)=   0.000000  celldm(3)=   0.000000
     celldm(4)=   0.000000  celldm(5)=   0.000000  celldm(6)=   0.000000

     crystal axes: (cart. coord. in units of alat)
               a(1) = (  -0.500000   0.000000   0.500000 )  
               a(2) = (   0.000000   0.500000   0.500000 )  
               a(3) = (  -0.500000   0.500000   0.000000 )  

     reciprocal axes: (cart. coord. in units 2 pi/alat)
               b(1) = ( -1.000000 -1.000000  1.000000 )  
               b(2) = (  1.000000  1.000000  1.000000 )  
               b(3) = ( -1.000000  1.000000 -1.000000 )  


     PseudoPot. # 1 for Sn read from file:
     ./Sn.pw91-n-van.UPF
     MD5 check sum: a38d2a872edd1a4efd76c0a1a38f7031
     Pseudo is Ultrasoft + core correction, Zval = 14.0
     Generated by new atomic code, or converted to UPF format
     Using radial grid of  891 points,  6 beta functions with: 
                l(1) =   0
                l(2) =   0
                l(3) =   1
                l(4) =   1
                l(5) =   2
                l(6) =   2
     Q(r) pseudized with  8 coefficients,  rinner =    1.100   1.100   1.100
                                                       1.100   1.100

     atomic species   valence    mass     pseudopotential
     Sn               14.00   118.70000     Sn( 1.00)

     48 Sym. Ops., with inversion, found (24 have fractional translation)



   Cartesian axes

     site n.     atom                  positions (alat units)
         1        Sn     tau(   1) = (   0.0000000   0.0000000   0.0000000  )
         2        Sn     tau(   2) = (   0.2500000   0.2500000   0.2500000  )

     number of k points=     8
                       cart. coord. in units 2pi/alat
        k(    1) = (   0.0000000   0.0000000   0.0000000), wk =   0.0312500
        k(    2) = (  -0.2500000   0.2500000  -0.2500000), wk =   0.2500000
        k(    3) = (   0.5000000  -0.5000000   0.5000000), wk =   0.1250000
        k(    4) = (   0.0000000   0.5000000   0.0000000), wk =   0.1875000
        k(    5) = (   0.7500000  -0.2500000   0.7500000), wk =   0.7500000
        k(    6) = (   0.5000000   0.0000000   0.5000000), wk =   0.3750000
        k(    7) = (   0.0000000  -1.0000000   0.0000000), wk =   0.0937500
        k(    8) = (  -0.5000000  -1.0000000   0.0000000), wk =   0.1875000

     Dense  grid:    39237 G-vectors     FFT dimensions: (  48,  48,  48)

     Estimated max dynamical RAM per process >       4.02 MB

     Estimated total dynamical RAM >     447.54 MB

     Initial potential from superposition of free atoms

     starting charge      27.9964, renormalised to      28.0000
     Starting wfcs are   18 randomized atomic wfcs

     total cpu time spent up to now is        0.8 secs

     per-process dynamical memory:    11.3 Mb

     Self-consistent Calculation

     iteration #  1     ecut=    74.00 Ry     beta= 0.70
     Davidson diagonalization with overlap
     ethr =  1.00E-02,  avg # of iterations =  1.6

     Threshold (ethr) on eigenvalues was too large:
     Diagonalizing with lowered threshold

     Davidson diagonalization with overlap
     ethr =  8.40E-05,  avg # of iterations =  2.0

     total cpu time spent up to now is        0.9 secs

     total energy              =    -325.61198838 Ry
     estimated scf accuracy    <       0.02856219 Ry

     iteration #  2     ecut=    74.00 Ry     beta= 0.70
     Davidson diagonalization with overlap
     ethr =  1.02E-04,  avg # of iterations =  1.0

     total cpu time spent up to now is        0.9 secs

     total energy              =    -325.61297401 Ry
     estimated scf accuracy    <       0.00164348 Ry

     iteration #  3     ecut=    74.00 Ry     beta= 0.70
     Davidson diagonalization with overlap
     ethr =  5.87E-06,  avg # of iterations =  2.1

     total cpu time spent up to now is        0.9 secs

     total energy              =    -325.61311216 Ry
     estimated scf accuracy    <       0.00003978 Ry

     iteration #  4     ecut=    74.00 Ry     beta= 0.70
     Davidson diagonalization with overlap
     ethr =  1.42E-07,  avg # of iterations =  4.0

     total cpu time spent up to now is        1.0 secs

     total energy              =    -325.61312490 Ry
     estimated scf accuracy    <       0.00000335 Ry

     iteration #  5     ecut=    74.00 Ry     beta= 0.70
     Davidson diagonalization with overlap
     ethr =  1.20E-08,  avg # of iterations =  3.4

     total cpu time spent up to now is        1.0 secs

     total energy              =    -325.61312564 Ry
     estimated scf accuracy    <       0.00000033 Ry

     iteration #  6     ecut=    74.00 Ry     beta= 0.70
     Davidson diagonalization with overlap
     ethr =  1.17E-09,  avg # of iterations =  2.4

     total cpu time spent up to now is        1.0 secs

     End of self-consistent calculation

          k = 0.0000 0.0000 0.0000 (  4957 PWs)   bands (ev):

   -13.7035 -13.7035 -13.7035 -13.6454 -13.6454 -13.3265 -13.3265 -13.3265
   -13.3190 -13.3190  -2.6986   7.3376   8.0652   8.0652

          k =-0.2500 0.2500-0.2500 (  4900 PWs)   bands (ev):

   -13.7299 -13.7299 -13.6903 -13.6045 -13.6045 -13.3731 -13.3731 -13.3434
   -13.2809 -13.2809  -2.1067   3.9201   7.3020   7.3020

          k = 0.5000-0.5000 0.5000 (  4910 PWs)   bands (ev):

   -13.7406 -13.7406 -13.6763 -13.5832 -13.5832 -13.3896 -13.3896 -13.3611
   -13.2689 -13.2689  -1.0605   1.6371   6.8447   6.8447

          k = 0.0000 0.5000 0.0000 (  4953 PWs)   bands (ev):

   -13.7317 -13.7317 -13.7079 -13.5967 -13.5465 -13.4597 -13.3659 -13.2970
   -13.2852 -13.2852  -1.8897   3.8057   6.3579   6.3579

          k = 0.7500-0.2500 0.7500 (  4918 PWs)   bands (ev):

   -13.7705 -13.7500 -13.6439 -13.5458 -13.5162 -13.4878 -13.4207 -13.3715
   -13.2569 -13.2358  -0.7125   1.6748   5.0224   6.0407

          k = 0.5000 0.0000 0.5000 (  4910 PWs)   bands (ev):

   -13.7639 -13.7520 -13.6375 -13.5803 -13.5425 -13.4345 -13.4025 -13.3893
   -13.2532 -13.2461  -1.1998   2.3672   4.9330   6.7760

          k = 0.0000-1.0000 0.0000 (  4880 PWs)   bands (ev):

   -13.7559 -13.7559 -13.6196 -13.6196 -13.4803 -13.4803 -13.3944 -13.3944
   -13.2477 -13.2477   0.4195   0.4195   5.4863   5.4863

          k =-0.5000-1.0000 0.0000 (  4916 PWs)   bands (ev):

   -13.7740 -13.7740 -13.5606 -13.5606 -13.4894 -13.4894 -13.4438 -13.4438
   -13.2303 -13.2303   0.4797   0.4797   4.9030   4.9030

     highest occupied level (ev):     8.0652

!    total energy              =    -325.61312568 Ry
     estimated scf accuracy    <       0.00000009 Ry

     The total energy is the sum of the following terms:
     one-electron contribution =    -150.97259717 Ry
     hartree contribution      =      93.25155832 Ry
     xc contribution           =     -95.23265647 Ry
     ewald contribution        =    -172.65943036 Ry

     convergence has been achieved in   6 iterations

     Writing all to output data dir ./alpha-sn-scf/alphatin.save/ :
     XML data file, charge density, pseudopotentials, collected wavefunctions

     init_run     :      0.43s CPU      0.49s WALL (       1 calls)
     electrons    :      0.16s CPU      0.24s WALL (       1 calls)

     Called by init_run:
     wfcinit      :      0.00s CPU      0.02s WALL (       1 calls)
     potinit      :      0.01s CPU      0.02s WALL (       1 calls)
     hinit0       :      0.39s CPU      0.40s WALL (       1 calls)

     Called by electrons:
     c_bands      :      0.07s CPU      0.10s WALL (       7 calls)
     sum_band     :      0.03s CPU      0.05s WALL (       7 calls)
     v_of_rho     :      0.04s CPU      0.05s WALL (       7 calls)
     newd         :      0.02s CPU      0.02s WALL (       7 calls)
     mix_rho      :      0.00s CPU      0.01s WALL (       7 calls)

     Called by c_bands:
     init_us_2    :      0.00s CPU      0.00s WALL (      15 calls)
     cegterg      :      0.07s CPU      0.08s WALL (       7 calls)

     Called by *egterg:
     cdiaghg      :      0.01s CPU      0.01s WALL (      27 calls)
     h_psi        :      0.05s CPU      0.07s WALL (      29 calls)
     s_psi        :      0.00s CPU      0.00s WALL (      29 calls)
     g_psi        :      0.00s CPU      0.00s WALL (      21 calls)

     Called by h_psi:
     h_psi:calbec :      0.00s CPU      0.00s WALL (      29 calls)
     vloc_psi     :      0.05s CPU      0.06s WALL (      29 calls)
     add_vuspsi   :      0.00s CPU      0.00s WALL (      29 calls)

     General routines
     calbec       :      0.00s CPU      0.00s WALL (      36 calls)
     fft          :      0.37s CPU      0.37s WALL (      78 calls)
     ffts         :      0.00s CPU      0.00s WALL (       7 calls)
     fftw         :      0.05s CPU      0.07s WALL (     624 calls)

     Parallel routines

     PWSCF        :      0.81s CPU      1.12s WALL


   This run was terminated on:  15:51:46   5Feb2026            

=------------------------------------------------------------------------------=
   JOB DONE.
=------------------------------------------------------------------------------=
