
     Program PWSCF v.7.3.1 starts on  5Feb2026 at 15:51:53 

     This program is part of the open-source Quantum ESPRESSO suite
     for quantum simulation of materials; please cite
         "P. Giannozzi et al., J. Phys.:Condens. Matter 21 395502 (2009);
         "P. Giannozzi et al., J. Phys.:Condens. Matter 29 465901 (2017);
         "P. Giannozzi et al., J. Chem. Phys. 152 154105 (2020);
          URL http://www.quantum-espresso.org", 
     in publications or presentations arising from this work. More details at
     http://www.quantum-espresso.org/quote

     Parallel version (MPI), running on   128 processors

     MPI processes distributed on     1 nodes
     242402 MiB available memory on the printing compute node when the environment starts

     Waiting for input...
     Reading input from standard input
     Message from routine read_cards :
     DEPRECATED: no units specified in ATOMIC_POSITIONS card
     Message from routine read_cards :
     ATOMIC_POSITIONS: units set to alat

     Current dimensions of program PWSCF are:
     Max number of different atomic species (ntypx) = 10
     Max number of k-points (npk) =  40000
     Max angular momentum in pseudopotentials (lmaxx) =  4

     K-points division:     npool     =       8
     R & G space division:  proc/nbgrp/npool/nimage =      16
     Subspace diagonalization in iterative solution of the eigenvalue problem:
     a serial algorithm will be used


     Parallelization info
     --------------------
     sticks:   dense  smooth     PW     G-vecs:    dense   smooth      PW
     Min          97      97     27                 2550     2550     385
     Max          98      98     28                 2554     2554     390
     Sum        1555    1555    439                40821    40821    6183

     Using Slab Decomposition



     bravais-lattice index     =            2
     lattice parameter (alat)  =      12.2300  a.u.
     unit-cell volume          =     457.3191 (a.u.)^3
     number of atoms/cell      =            2
     number of atomic types    =            1
     number of electrons       =        28.00
     number of Kohn-Sham states=           14
     kinetic-energy cutoff     =      76.0000  Ry
     charge density cutoff     =     304.0000  Ry
     scf convergence threshold =      1.0E-07
     mixing beta               =       0.7000
     number of iterations used =            8  plain     mixing
     Exchange-correlation=  SLA  PW   GGX  GGC
                           (   1   4   2   2   0   0   0)

     celldm(1)=  12.230000  celldm(2)=   0.000000  celldm(3)=   0.000000
     celldm(4)=   0.000000  celldm(5)=   0.000000  celldm(6)=   0.000000

     crystal axes: (cart. coord. in units of alat)
               a(1) = (  -0.500000   0.000000   0.500000 )  
               a(2) = (   0.000000   0.500000   0.500000 )  
               a(3) = (  -0.500000   0.500000   0.000000 )  

     reciprocal axes: (cart. coord. in units 2 pi/alat)
               b(1) = ( -1.000000 -1.000000  1.000000 )  
               b(2) = (  1.000000  1.000000  1.000000 )  
               b(3) = ( -1.000000  1.000000 -1.000000 )  


     PseudoPot. # 1 for Sn read from file:
     ./Sn.pw91-n-van.UPF
     MD5 check sum: a38d2a872edd1a4efd76c0a1a38f7031
     Pseudo is Ultrasoft + core correction, Zval = 14.0
     Generated by new atomic code, or converted to UPF format
     Using radial grid of  891 points,  6 beta functions with: 
                l(1) =   0
                l(2) =   0
                l(3) =   1
                l(4) =   1
                l(5) =   2
                l(6) =   2
     Q(r) pseudized with  8 coefficients,  rinner =    1.100   1.100   1.100
                                                       1.100   1.100

     atomic species   valence    mass     pseudopotential
     Sn               14.00   118.70000     Sn( 1.00)

     48 Sym. Ops., with inversion, found (24 have fractional translation)



   Cartesian axes

     site n.     atom                  positions (alat units)
         1        Sn     tau(   1) = (   0.0000000   0.0000000   0.0000000  )
         2        Sn     tau(   2) = (   0.2500000   0.2500000   0.2500000  )

     number of k points=     8
                       cart. coord. in units 2pi/alat
        k(    1) = (   0.0000000   0.0000000   0.0000000), wk =   0.0312500
        k(    2) = (  -0.2500000   0.2500000  -0.2500000), wk =   0.2500000
        k(    3) = (   0.5000000  -0.5000000   0.5000000), wk =   0.1250000
        k(    4) = (   0.0000000   0.5000000   0.0000000), wk =   0.1875000
        k(    5) = (   0.7500000  -0.2500000   0.7500000), wk =   0.7500000
        k(    6) = (   0.5000000   0.0000000   0.5000000), wk =   0.3750000
        k(    7) = (   0.0000000  -1.0000000   0.0000000), wk =   0.0937500
        k(    8) = (  -0.5000000  -1.0000000   0.0000000), wk =   0.1875000

     Dense  grid:    40821 G-vectors     FFT dimensions: (  48,  48,  48)

     Estimated max dynamical RAM per process >       4.12 MB

     Estimated total dynamical RAM >     458.18 MB

     Initial potential from superposition of free atoms

     starting charge      27.9964, renormalised to      28.0000
     Starting wfcs are   18 randomized atomic wfcs

     total cpu time spent up to now is        0.8 secs

     per-process dynamical memory:    11.3 Mb

     Self-consistent Calculation

     iteration #  1     ecut=    76.00 Ry     beta= 0.70
     Davidson diagonalization with overlap
     ethr =  1.00E-02,  avg # of iterations =  1.6

     Threshold (ethr) on eigenvalues was too large:
     Diagonalizing with lowered threshold

     Davidson diagonalization with overlap
     ethr =  8.35E-05,  avg # of iterations =  2.1

     total cpu time spent up to now is        0.9 secs

     total energy              =    -325.61219196 Ry
     estimated scf accuracy    <       0.02866367 Ry

     iteration #  2     ecut=    76.00 Ry     beta= 0.70
     Davidson diagonalization with overlap
     ethr =  1.02E-04,  avg # of iterations =  1.0

     total cpu time spent up to now is        0.9 secs

     total energy              =    -325.61319953 Ry
     estimated scf accuracy    <       0.00163269 Ry

     iteration #  3     ecut=    76.00 Ry     beta= 0.70
     Davidson diagonalization with overlap
     ethr =  5.83E-06,  avg # of iterations =  2.2

     total cpu time spent up to now is        0.9 secs

     total energy              =    -325.61333923 Ry
     estimated scf accuracy    <       0.00004008 Ry

     iteration #  4     ecut=    76.00 Ry     beta= 0.70
     Davidson diagonalization with overlap
     ethr =  1.43E-07,  avg # of iterations =  3.8

     total cpu time spent up to now is        1.0 secs

     total energy              =    -325.61335103 Ry
     estimated scf accuracy    <       0.00000330 Ry

     iteration #  5     ecut=    76.00 Ry     beta= 0.70
     Davidson diagonalization with overlap
     ethr =  1.18E-08,  avg # of iterations =  3.9

     total cpu time spent up to now is        1.0 secs

     total energy              =    -325.61335171 Ry
     estimated scf accuracy    <       0.00000031 Ry

     iteration #  6     ecut=    76.00 Ry     beta= 0.70
     Davidson diagonalization with overlap
     ethr =  1.10E-09,  avg # of iterations =  2.6

     total cpu time spent up to now is        1.0 secs

     total energy              =    -325.61335175 Ry
     estimated scf accuracy    <       0.00000012 Ry

     iteration #  7     ecut=    76.00 Ry     beta= 0.70
     Davidson diagonalization with overlap
     ethr =  4.38E-10,  avg # of iterations =  2.0

     total cpu time spent up to now is        1.0 secs

     End of self-consistent calculation

          k = 0.0000 0.0000 0.0000 (  5029 PWs)   bands (ev):

   -13.7037 -13.7037 -13.7037 -13.6466 -13.6466 -13.3268 -13.3268 -13.3268
   -13.3203 -13.3203  -2.6985   7.3376   8.0649   8.0649

          k =-0.2500 0.2500-0.2500 (  5096 PWs)   bands (ev):

   -13.7302 -13.7302 -13.6906 -13.6056 -13.6056 -13.3741 -13.3741 -13.3437
   -13.2814 -13.2814  -2.1066   3.9201   7.3018   7.3018

          k = 0.5000-0.5000 0.5000 (  5120 PWs)   bands (ev):

   -13.7409 -13.7409 -13.6766 -13.5844 -13.5844 -13.3908 -13.3908 -13.3614
   -13.2692 -13.2692  -1.0606   1.6375   6.8445   6.8445

          k = 0.0000 0.5000 0.0000 (  5073 PWs)   bands (ev):

   -13.7320 -13.7320 -13.7085 -13.5979 -13.5474 -13.4604 -13.3671 -13.2978
   -13.2855 -13.2855  -1.8896   3.8055   6.3579   6.3579

          k = 0.7500-0.2500 0.7500 (  5111 PWs)   bands (ev):

   -13.7709 -13.7503 -13.6444 -13.5470 -13.5171 -13.4886 -13.4220 -13.3722
   -13.2572 -13.2362  -0.7126   1.6748   5.0231   6.0407

          k = 0.5000 0.0000 0.5000 (  5110 PWs)   bands (ev):

   -13.7642 -13.7524 -13.6378 -13.5815 -13.5437 -13.4356 -13.4029 -13.3905
   -13.2537 -13.2464  -1.1998   2.3670   4.9339   6.7759

          k = 0.0000-1.0000 0.0000 (  5104 PWs)   bands (ev):

   -13.7562 -13.7562 -13.6203 -13.6203 -13.4816 -13.4816 -13.3953 -13.3953
   -13.2480 -13.2480   0.4194   0.4194   5.4863   5.4863

          k =-0.5000-1.0000 0.0000 (  5124 PWs)   bands (ev):

   -13.7743 -13.7743 -13.5612 -13.5612 -13.4906 -13.4906 -13.4447 -13.4447
   -13.2306 -13.2306   0.4796   0.4796   4.9037   4.9037

     highest occupied level (ev):     8.0649

!    total energy              =    -325.61335176 Ry
     estimated scf accuracy    <          1.1E-09 Ry

     The total energy is the sum of the following terms:
     one-electron contribution =    -150.97511989 Ry
     hartree contribution      =      93.25448929 Ry
     xc contribution           =     -95.23329080 Ry
     ewald contribution        =    -172.65943036 Ry

     convergence has been achieved in   7 iterations

     Writing all to output data dir ./alpha-sn-scf/alphatin.save/ :
     XML data file, charge density, pseudopotentials, collected wavefunctions

     init_run     :      0.44s CPU      0.49s WALL (       1 calls)
     electrons    :      0.23s CPU      0.27s WALL (       1 calls)

     Called by init_run:
     wfcinit      :      0.01s CPU      0.02s WALL (       1 calls)
     potinit      :      0.02s CPU      0.02s WALL (       1 calls)
     hinit0       :      0.38s CPU      0.40s WALL (       1 calls)

     Called by electrons:
     c_bands      :      0.10s CPU      0.11s WALL (       8 calls)
     sum_band     :      0.04s CPU      0.06s WALL (       8 calls)
     v_of_rho     :      0.05s CPU      0.05s WALL (       8 calls)
     newd         :      0.02s CPU      0.02s WALL (       8 calls)
     mix_rho      :      0.01s CPU      0.01s WALL (       8 calls)

     Called by c_bands:
     init_us_2    :      0.00s CPU      0.00s WALL (      17 calls)
     cegterg      :      0.09s CPU      0.10s WALL (       8 calls)

     Called by *egterg:
     cdiaghg      :      0.01s CPU      0.01s WALL (      31 calls)
     h_psi        :      0.08s CPU      0.09s WALL (      33 calls)
     s_psi        :      0.00s CPU      0.00s WALL (      33 calls)
     g_psi        :      0.00s CPU      0.00s WALL (      24 calls)

     Called by h_psi:
     h_psi:calbec :      0.01s CPU      0.01s WALL (      33 calls)
     vloc_psi     :      0.07s CPU      0.08s WALL (      33 calls)
     add_vuspsi   :      0.00s CPU      0.00s WALL (      33 calls)

     General routines
     calbec       :      0.01s CPU      0.01s WALL (      41 calls)
     fft          :      0.37s CPU      0.37s WALL (      89 calls)
     ffts         :      0.00s CPU      0.00s WALL (       8 calls)
     fftw         :      0.07s CPU      0.08s WALL (     710 calls)

     Parallel routines

     PWSCF        :      0.90s CPU      1.17s WALL


   This run was terminated on:  15:51:54   5Feb2026            

=------------------------------------------------------------------------------=
   JOB DONE.
=------------------------------------------------------------------------------=
