
     Program PWSCF v.7.3.1 starts on  5Feb2026 at 15:52:10 

     This program is part of the open-source Quantum ESPRESSO suite
     for quantum simulation of materials; please cite
         "P. Giannozzi et al., J. Phys.:Condens. Matter 21 395502 (2009);
         "P. Giannozzi et al., J. Phys.:Condens. Matter 29 465901 (2017);
         "P. Giannozzi et al., J. Chem. Phys. 152 154105 (2020);
          URL http://www.quantum-espresso.org", 
     in publications or presentations arising from this work. More details at
     http://www.quantum-espresso.org/quote

     Parallel version (MPI), running on   128 processors

     MPI processes distributed on     1 nodes
     242378 MiB available memory on the printing compute node when the environment starts

     Waiting for input...
     Reading input from standard input
     Message from routine read_cards :
     DEPRECATED: no units specified in ATOMIC_POSITIONS card
     Message from routine read_cards :
     ATOMIC_POSITIONS: units set to alat

     Current dimensions of program PWSCF are:
     Max number of different atomic species (ntypx) = 10
     Max number of k-points (npk) =  40000
     Max angular momentum in pseudopotentials (lmaxx) =  4

     K-points division:     npool     =       8
     R & G space division:  proc/nbgrp/npool/nimage =      16
     Subspace diagonalization in iterative solution of the eigenvalue problem:
     a serial algorithm will be used


     Parallelization info
     --------------------
     sticks:   dense  smooth     PW     G-vecs:    dense   smooth      PW
     Min         103     103     28                 2772     2772     413
     Max         104     104     29                 2775     2775     415
     Sum        1651    1651    463                44375    44375    6615

     Using Slab Decomposition



     bravais-lattice index     =            2
     lattice parameter (alat)  =      12.2300  a.u.
     unit-cell volume          =     457.3191 (a.u.)^3
     number of atoms/cell      =            2
     number of atomic types    =            1
     number of electrons       =        28.00
     number of Kohn-Sham states=           14
     kinetic-energy cutoff     =      80.0000  Ry
     charge density cutoff     =     320.0000  Ry
     scf convergence threshold =      1.0E-07
     mixing beta               =       0.7000
     number of iterations used =            8  plain     mixing
     Exchange-correlation=  SLA  PW   GGX  GGC
                           (   1   4   2   2   0   0   0)

     celldm(1)=  12.230000  celldm(2)=   0.000000  celldm(3)=   0.000000
     celldm(4)=   0.000000  celldm(5)=   0.000000  celldm(6)=   0.000000

     crystal axes: (cart. coord. in units of alat)
               a(1) = (  -0.500000   0.000000   0.500000 )  
               a(2) = (   0.000000   0.500000   0.500000 )  
               a(3) = (  -0.500000   0.500000   0.000000 )  

     reciprocal axes: (cart. coord. in units 2 pi/alat)
               b(1) = ( -1.000000 -1.000000  1.000000 )  
               b(2) = (  1.000000  1.000000  1.000000 )  
               b(3) = ( -1.000000  1.000000 -1.000000 )  


     PseudoPot. # 1 for Sn read from file:
     ./Sn.pw91-n-van.UPF
     MD5 check sum: a38d2a872edd1a4efd76c0a1a38f7031
     Pseudo is Ultrasoft + core correction, Zval = 14.0
     Generated by new atomic code, or converted to UPF format
     Using radial grid of  891 points,  6 beta functions with: 
                l(1) =   0
                l(2) =   0
                l(3) =   1
                l(4) =   1
                l(5) =   2
                l(6) =   2
     Q(r) pseudized with  8 coefficients,  rinner =    1.100   1.100   1.100
                                                       1.100   1.100

     atomic species   valence    mass     pseudopotential
     Sn               14.00   118.70000     Sn( 1.00)

     48 Sym. Ops., with inversion, found (24 have fractional translation)



   Cartesian axes

     site n.     atom                  positions (alat units)
         1        Sn     tau(   1) = (   0.0000000   0.0000000   0.0000000  )
         2        Sn     tau(   2) = (   0.2500000   0.2500000   0.2500000  )

     number of k points=     8
                       cart. coord. in units 2pi/alat
        k(    1) = (   0.0000000   0.0000000   0.0000000), wk =   0.0312500
        k(    2) = (  -0.2500000   0.2500000  -0.2500000), wk =   0.2500000
        k(    3) = (   0.5000000  -0.5000000   0.5000000), wk =   0.1250000
        k(    4) = (   0.0000000   0.5000000   0.0000000), wk =   0.1875000
        k(    5) = (   0.7500000  -0.2500000   0.7500000), wk =   0.7500000
        k(    6) = (   0.5000000   0.0000000   0.5000000), wk =   0.3750000
        k(    7) = (   0.0000000  -1.0000000   0.0000000), wk =   0.0937500
        k(    8) = (  -0.5000000  -1.0000000   0.0000000), wk =   0.1875000

     Dense  grid:    44375 G-vectors     FFT dimensions: (  60,  60,  60)

     Estimated max dynamical RAM per process >       4.87 MB

     Estimated total dynamical RAM >     547.55 MB

     Initial potential from superposition of free atoms

     starting charge      27.9964, renormalised to      28.0000
     Starting wfcs are   18 randomized atomic wfcs

     total cpu time spent up to now is        0.8 secs

     per-process dynamical memory:    11.8 Mb

     Self-consistent Calculation

     iteration #  1     ecut=    80.00 Ry     beta= 0.70
     Davidson diagonalization with overlap
     ethr =  1.00E-02,  avg # of iterations =  1.4

     Threshold (ethr) on eigenvalues was too large:
     Diagonalizing with lowered threshold

     Davidson diagonalization with overlap
     ethr =  8.28E-05,  avg # of iterations =  2.2

     total cpu time spent up to now is        0.9 secs

     total energy              =    -325.61270523 Ry
     estimated scf accuracy    <       0.02871740 Ry

     iteration #  2     ecut=    80.00 Ry     beta= 0.70
     Davidson diagonalization with overlap
     ethr =  1.03E-04,  avg # of iterations =  1.0

     total cpu time spent up to now is        1.0 secs

     total energy              =    -325.61373652 Ry
     estimated scf accuracy    <       0.00162630 Ry

     iteration #  3     ecut=    80.00 Ry     beta= 0.70
     Davidson diagonalization with overlap
     ethr =  5.81E-06,  avg # of iterations =  2.1

     total cpu time spent up to now is        1.0 secs

     total energy              =    -325.61387186 Ry
     estimated scf accuracy    <       0.00003747 Ry

     iteration #  4     ecut=    80.00 Ry     beta= 0.70
     Davidson diagonalization with overlap
     ethr =  1.34E-07,  avg # of iterations =  3.2

     total cpu time spent up to now is        1.1 secs

     total energy              =    -325.61388400 Ry
     estimated scf accuracy    <       0.00000319 Ry

     iteration #  5     ecut=    80.00 Ry     beta= 0.70
     Davidson diagonalization with overlap
     ethr =  1.14E-08,  avg # of iterations =  3.9

     total cpu time spent up to now is        1.1 secs

     total energy              =    -325.61388465 Ry
     estimated scf accuracy    <       0.00000029 Ry

     iteration #  6     ecut=    80.00 Ry     beta= 0.70
     Davidson diagonalization with overlap
     ethr =  1.03E-09,  avg # of iterations =  2.5

     total cpu time spent up to now is        1.2 secs

     End of self-consistent calculation

          k = 0.0000 0.0000 0.0000 (  5577 PWs)   bands (ev):

   -13.7019 -13.7019 -13.7019 -13.6441 -13.6441 -13.3250 -13.3250 -13.3250
   -13.3178 -13.3178  -2.6971   7.3391   8.0661   8.0661

          k =-0.2500 0.2500-0.2500 (  5522 PWs)   bands (ev):

   -13.7283 -13.7283 -13.6887 -13.6031 -13.6031 -13.3717 -13.3717 -13.3418
   -13.2794 -13.2794  -2.1052   3.9215   7.3029   7.3029

          k = 0.5000-0.5000 0.5000 (  5564 PWs)   bands (ev):

   -13.7390 -13.7390 -13.6749 -13.5820 -13.5820 -13.3882 -13.3882 -13.3596
   -13.2674 -13.2674  -1.0594   1.6390   6.8456   6.8456

          k = 0.0000 0.5000 0.0000 (  5537 PWs)   bands (ev):

   -13.7301 -13.7301 -13.7064 -13.5953 -13.5451 -13.4583 -13.3646 -13.2956
   -13.2837 -13.2837  -1.8883   3.8067   6.3591   6.3591

          k = 0.7500-0.2500 0.7500 (  5514 PWs)   bands (ev):

   -13.7690 -13.7484 -13.6424 -13.5444 -13.5148 -13.4863 -13.4194 -13.3700
   -13.2553 -13.2342  -0.7113   1.6761   5.0248   6.0418

          k = 0.5000 0.0000 0.5000 (  5516 PWs)   bands (ev):

   -13.7623 -13.7505 -13.6359 -13.5790 -13.5412 -13.4330 -13.4010 -13.3880
   -13.2517 -13.2445  -1.1985   2.3683   4.9356   6.7770

          k = 0.0000-1.0000 0.0000 (  5514 PWs)   bands (ev):

   -13.7543 -13.7543 -13.6182 -13.6182 -13.4790 -13.4790 -13.3929 -13.3929
   -13.2461 -13.2461   0.4207   0.4207   5.4875   5.4875

          k =-0.5000-1.0000 0.0000 (  5520 PWs)   bands (ev):

   -13.7724 -13.7724 -13.5591 -13.5591 -13.4881 -13.4881 -13.4424 -13.4424
   -13.2287 -13.2287   0.4808   0.4808   4.9054   4.9054

     highest occupied level (ev):     8.0661

!    total energy              =    -325.61388469 Ry
     estimated scf accuracy    <       0.00000010 Ry

     The total energy is the sum of the following terms:
     one-electron contribution =    -150.97614113 Ry
     hartree contribution      =      93.25524420 Ry
     xc contribution           =     -95.23355741 Ry
     ewald contribution        =    -172.65943036 Ry

     convergence has been achieved in   6 iterations

     Writing all to output data dir ./alpha-sn-scf/alphatin.save/ :
     XML data file, charge density, pseudopotentials, collected wavefunctions

     init_run     :      0.51s CPU      0.56s WALL (       1 calls)
     electrons    :      0.30s CPU      0.39s WALL (       1 calls)

     Called by init_run:
     wfcinit      :      0.01s CPU      0.02s WALL (       1 calls)
     potinit      :      0.02s CPU      0.03s WALL (       1 calls)
     hinit0       :      0.44s CPU      0.46s WALL (       1 calls)

     Called by electrons:
     c_bands      :      0.14s CPU      0.15s WALL (       7 calls)
     sum_band     :      0.06s CPU      0.07s WALL (       7 calls)
     v_of_rho     :      0.07s CPU      0.08s WALL (       7 calls)
     newd         :      0.02s CPU      0.03s WALL (       7 calls)
     mix_rho      :      0.01s CPU      0.01s WALL (       7 calls)

     Called by c_bands:
     init_us_2    :      0.00s CPU      0.00s WALL (      15 calls)
     cegterg      :      0.13s CPU      0.13s WALL (       7 calls)

     Called by *egterg:
     cdiaghg      :      0.01s CPU      0.01s WALL (      30 calls)
     h_psi        :      0.11s CPU      0.12s WALL (      32 calls)
     s_psi        :      0.00s CPU      0.00s WALL (      32 calls)
     g_psi        :      0.00s CPU      0.00s WALL (      24 calls)

     Called by h_psi:
     h_psi:calbec :      0.01s CPU      0.01s WALL (      32 calls)
     vloc_psi     :      0.10s CPU      0.11s WALL (      32 calls)
     add_vuspsi   :      0.00s CPU      0.00s WALL (      32 calls)

     General routines
     calbec       :      0.01s CPU      0.01s WALL (      39 calls)
     fft          :      0.43s CPU      0.44s WALL (      78 calls)
     ffts         :      0.00s CPU      0.00s WALL (       7 calls)
     fftw         :      0.11s CPU      0.12s WALL (     632 calls)

     Parallel routines

     PWSCF        :      1.02s CPU      1.33s WALL


   This run was terminated on:  15:52:11   5Feb2026            

=------------------------------------------------------------------------------=
   JOB DONE.
=------------------------------------------------------------------------------=
