
     Program PWSCF v.7.3.1 starts on  5Feb2026 at 15:52:18 

     This program is part of the open-source Quantum ESPRESSO suite
     for quantum simulation of materials; please cite
         "P. Giannozzi et al., J. Phys.:Condens. Matter 21 395502 (2009);
         "P. Giannozzi et al., J. Phys.:Condens. Matter 29 465901 (2017);
         "P. Giannozzi et al., J. Chem. Phys. 152 154105 (2020);
          URL http://www.quantum-espresso.org", 
     in publications or presentations arising from this work. More details at
     http://www.quantum-espresso.org/quote

     Parallel version (MPI), running on   128 processors

     MPI processes distributed on     1 nodes
     242358 MiB available memory on the printing compute node when the environment starts

     Waiting for input...
     Reading input from standard input
     Message from routine read_cards :
     DEPRECATED: no units specified in ATOMIC_POSITIONS card
     Message from routine read_cards :
     ATOMIC_POSITIONS: units set to alat

     Current dimensions of program PWSCF are:
     Max number of different atomic species (ntypx) = 10
     Max number of k-points (npk) =  40000
     Max angular momentum in pseudopotentials (lmaxx) =  4

     K-points division:     npool     =       8
     R & G space division:  proc/nbgrp/npool/nimage =      16
     Subspace diagonalization in iterative solution of the eigenvalue problem:
     a serial algorithm will be used


     Parallelization info
     --------------------
     sticks:   dense  smooth     PW     G-vecs:    dense   smooth      PW
     Min         104     104     29                 2859     2859     427
     Max         105     105     30                 2862     2862     430
     Sum        1675    1675    475                45767    45767    6855

     Using Slab Decomposition



     bravais-lattice index     =            2
     lattice parameter (alat)  =      12.2300  a.u.
     unit-cell volume          =     457.3191 (a.u.)^3
     number of atoms/cell      =            2
     number of atomic types    =            1
     number of electrons       =        28.00
     number of Kohn-Sham states=           14
     kinetic-energy cutoff     =      82.0000  Ry
     charge density cutoff     =     328.0000  Ry
     scf convergence threshold =      1.0E-07
     mixing beta               =       0.7000
     number of iterations used =            8  plain     mixing
     Exchange-correlation=  SLA  PW   GGX  GGC
                           (   1   4   2   2   0   0   0)

     celldm(1)=  12.230000  celldm(2)=   0.000000  celldm(3)=   0.000000
     celldm(4)=   0.000000  celldm(5)=   0.000000  celldm(6)=   0.000000

     crystal axes: (cart. coord. in units of alat)
               a(1) = (  -0.500000   0.000000   0.500000 )  
               a(2) = (   0.000000   0.500000   0.500000 )  
               a(3) = (  -0.500000   0.500000   0.000000 )  

     reciprocal axes: (cart. coord. in units 2 pi/alat)
               b(1) = ( -1.000000 -1.000000  1.000000 )  
               b(2) = (  1.000000  1.000000  1.000000 )  
               b(3) = ( -1.000000  1.000000 -1.000000 )  


     PseudoPot. # 1 for Sn read from file:
     ./Sn.pw91-n-van.UPF
     MD5 check sum: a38d2a872edd1a4efd76c0a1a38f7031
     Pseudo is Ultrasoft + core correction, Zval = 14.0
     Generated by new atomic code, or converted to UPF format
     Using radial grid of  891 points,  6 beta functions with: 
                l(1) =   0
                l(2) =   0
                l(3) =   1
                l(4) =   1
                l(5) =   2
                l(6) =   2
     Q(r) pseudized with  8 coefficients,  rinner =    1.100   1.100   1.100
                                                       1.100   1.100

     atomic species   valence    mass     pseudopotential
     Sn               14.00   118.70000     Sn( 1.00)

     48 Sym. Ops., with inversion, found (24 have fractional translation)



   Cartesian axes

     site n.     atom                  positions (alat units)
         1        Sn     tau(   1) = (   0.0000000   0.0000000   0.0000000  )
         2        Sn     tau(   2) = (   0.2500000   0.2500000   0.2500000  )

     number of k points=     8
                       cart. coord. in units 2pi/alat
        k(    1) = (   0.0000000   0.0000000   0.0000000), wk =   0.0312500
        k(    2) = (  -0.2500000   0.2500000  -0.2500000), wk =   0.2500000
        k(    3) = (   0.5000000  -0.5000000   0.5000000), wk =   0.1250000
        k(    4) = (   0.0000000   0.5000000   0.0000000), wk =   0.1875000
        k(    5) = (   0.7500000  -0.2500000   0.7500000), wk =   0.7500000
        k(    6) = (   0.5000000   0.0000000   0.5000000), wk =   0.3750000
        k(    7) = (   0.0000000  -1.0000000   0.0000000), wk =   0.0937500
        k(    8) = (  -0.5000000  -1.0000000   0.0000000), wk =   0.1875000

     Dense  grid:    45767 G-vectors     FFT dimensions: (  60,  60,  60)

     Estimated max dynamical RAM per process >       4.97 MB

     Estimated total dynamical RAM >     557.68 MB

     Initial potential from superposition of free atoms

     starting charge      27.9964, renormalised to      28.0000
     Starting wfcs are   18 randomized atomic wfcs

     total cpu time spent up to now is        0.9 secs

     per-process dynamical memory:    11.9 Mb

     Self-consistent Calculation

     iteration #  1     ecut=    82.00 Ry     beta= 0.70
     Davidson diagonalization with overlap
     ethr =  1.00E-02,  avg # of iterations =  1.5

     Threshold (ethr) on eigenvalues was too large:
     Diagonalizing with lowered threshold

     Davidson diagonalization with overlap
     ethr =  8.19E-05,  avg # of iterations =  2.2

     total cpu time spent up to now is        1.0 secs

     total energy              =    -325.61292527 Ry
     estimated scf accuracy    <       0.02867544 Ry

     iteration #  2     ecut=    82.00 Ry     beta= 0.70
     Davidson diagonalization with overlap
     ethr =  1.02E-04,  avg # of iterations =  1.0

     total cpu time spent up to now is        1.0 secs

     total energy              =    -325.61393707 Ry
     estimated scf accuracy    <       0.00163078 Ry

     iteration #  3     ecut=    82.00 Ry     beta= 0.70
     Davidson diagonalization with overlap
     ethr =  5.82E-06,  avg # of iterations =  2.1

     total cpu time spent up to now is        1.1 secs

     total energy              =    -325.61407294 Ry
     estimated scf accuracy    <       0.00003849 Ry

     iteration #  4     ecut=    82.00 Ry     beta= 0.70
     Davidson diagonalization with overlap
     ethr =  1.37E-07,  avg # of iterations =  2.8

     total cpu time spent up to now is        1.1 secs

     total energy              =    -325.61408499 Ry
     estimated scf accuracy    <       0.00000329 Ry

     iteration #  5     ecut=    82.00 Ry     beta= 0.70
     Davidson diagonalization with overlap
     ethr =  1.18E-08,  avg # of iterations =  4.0

     total cpu time spent up to now is        1.2 secs

     total energy              =    -325.61408564 Ry
     estimated scf accuracy    <       0.00000031 Ry

     iteration #  6     ecut=    82.00 Ry     beta= 0.70
     Davidson diagonalization with overlap
     ethr =  1.12E-09,  avg # of iterations =  2.2

     total cpu time spent up to now is        1.2 secs

     End of self-consistent calculation

          k = 0.0000 0.0000 0.0000 (  5769 PWs)   bands (ev):

   -13.7029 -13.7029 -13.7029 -13.6442 -13.6442 -13.3261 -13.3261 -13.3261
   -13.3178 -13.3178  -2.6978   7.3385   8.0656   8.0656

          k =-0.2500 0.2500-0.2500 (  5738 PWs)   bands (ev):

   -13.7293 -13.7293 -13.6897 -13.6033 -13.6033 -13.3721 -13.3721 -13.3429
   -13.2802 -13.2802  -2.1059   3.9208   7.3025   7.3025

          k = 0.5000-0.5000 0.5000 (  5696 PWs)   bands (ev):

   -13.7399 -13.7399 -13.6757 -13.5820 -13.5820 -13.3884 -13.3884 -13.3606
   -13.2682 -13.2682  -1.0599   1.6382   6.8452   6.8452

          k = 0.0000 0.5000 0.0000 (  5758 PWs)   bands (ev):

   -13.7311 -13.7311 -13.7072 -13.5954 -13.5456 -13.4589 -13.3647 -13.2961
   -13.2847 -13.2847  -1.8889   3.8062   6.3585   6.3585

          k = 0.7500-0.2500 0.7500 (  5725 PWs)   bands (ev):

   -13.7699 -13.7493 -13.6432 -13.5446 -13.5153 -13.4869 -13.4195 -13.3706
   -13.2563 -13.2352  -0.7119   1.6755   5.0238   6.0413

          k = 0.5000 0.0000 0.5000 (  5756 PWs)   bands (ev):

   -13.7633 -13.7514 -13.6369 -13.5791 -13.5414 -13.4335 -13.4020 -13.3882
   -13.2527 -13.2456  -1.1991   2.3678   4.9346   6.7766

          k = 0.0000-1.0000 0.0000 (  5738 PWs)   bands (ev):

   -13.7552 -13.7552 -13.6189 -13.6189 -13.4791 -13.4791 -13.3936 -13.3936
   -13.2471 -13.2471   0.4201   0.4201   5.4869   5.4869

          k =-0.5000-1.0000 0.0000 (  5708 PWs)   bands (ev):

   -13.7734 -13.7734 -13.5598 -13.5598 -13.4883 -13.4883 -13.4428 -13.4428
   -13.2296 -13.2296   0.4803   0.4803   4.9044   4.9044

     highest occupied level (ev):     8.0656

!    total energy              =    -325.61408568 Ry
     estimated scf accuracy    <       0.00000008 Ry

     The total energy is the sum of the following terms:
     one-electron contribution =    -150.97570027 Ry
     hartree contribution      =      93.25441161 Ry
     xc contribution           =     -95.23336666 Ry
     ewald contribution        =    -172.65943036 Ry

     convergence has been achieved in   6 iterations

     Writing all to output data dir ./alpha-sn-scf/alphatin.save/ :
     XML data file, charge density, pseudopotentials, collected wavefunctions

     init_run     :      0.51s CPU      0.57s WALL (       1 calls)
     electrons    :      0.30s CPU      0.36s WALL (       1 calls)

     Called by init_run:
     wfcinit      :      0.01s CPU      0.02s WALL (       1 calls)
     potinit      :      0.02s CPU      0.04s WALL (       1 calls)
     hinit0       :      0.44s CPU      0.45s WALL (       1 calls)

     Called by electrons:
     c_bands      :      0.13s CPU      0.14s WALL (       7 calls)
     sum_band     :      0.07s CPU      0.07s WALL (       7 calls)
     v_of_rho     :      0.07s CPU      0.08s WALL (       7 calls)
     newd         :      0.02s CPU      0.03s WALL (       7 calls)
     mix_rho      :      0.01s CPU      0.01s WALL (       7 calls)

     Called by c_bands:
     init_us_2    :      0.00s CPU      0.00s WALL (      15 calls)
     cegterg      :      0.12s CPU      0.13s WALL (       7 calls)

     Called by *egterg:
     cdiaghg      :      0.01s CPU      0.01s WALL (      25 calls)
     h_psi        :      0.11s CPU      0.12s WALL (      27 calls)
     s_psi        :      0.00s CPU      0.00s WALL (      27 calls)
     g_psi        :      0.00s CPU      0.00s WALL (      19 calls)

     Called by h_psi:
     h_psi:calbec :      0.00s CPU      0.01s WALL (      27 calls)
     vloc_psi     :      0.10s CPU      0.11s WALL (      27 calls)
     add_vuspsi   :      0.00s CPU      0.00s WALL (      27 calls)

     General routines
     calbec       :      0.00s CPU      0.01s WALL (      34 calls)
     fft          :      0.44s CPU      0.44s WALL (      78 calls)
     ffts         :      0.00s CPU      0.00s WALL (       7 calls)
     fftw         :      0.11s CPU      0.12s WALL (     620 calls)

     Parallel routines

     PWSCF        :      1.03s CPU      1.32s WALL


   This run was terminated on:  15:52:19   5Feb2026            

=------------------------------------------------------------------------------=
   JOB DONE.
=------------------------------------------------------------------------------=
