
     Program PWSCF v.7.3.1 starts on  5Feb2026 at 15:53: 1 

     This program is part of the open-source Quantum ESPRESSO suite
     for quantum simulation of materials; please cite
         "P. Giannozzi et al., J. Phys.:Condens. Matter 21 395502 (2009);
         "P. Giannozzi et al., J. Phys.:Condens. Matter 29 465901 (2017);
         "P. Giannozzi et al., J. Chem. Phys. 152 154105 (2020);
          URL http://www.quantum-espresso.org", 
     in publications or presentations arising from this work. More details at
     http://www.quantum-espresso.org/quote

     Parallel version (MPI), running on   128 processors

     MPI processes distributed on     1 nodes
     242338 MiB available memory on the printing compute node when the environment starts

     Waiting for input...
     Reading input from standard input
     Message from routine read_cards :
     DEPRECATED: no units specified in ATOMIC_POSITIONS card
     Message from routine read_cards :
     ATOMIC_POSITIONS: units set to alat

     Current dimensions of program PWSCF are:
     Max number of different atomic species (ntypx) = 10
     Max number of k-points (npk) =  40000
     Max angular momentum in pseudopotentials (lmaxx) =  4

     K-points division:     npool     =       8
     R & G space division:  proc/nbgrp/npool/nimage =      16
     Subspace diagonalization in iterative solution of the eigenvalue problem:
     a serial algorithm will be used


     Parallelization info
     --------------------
     sticks:   dense  smooth     PW     G-vecs:    dense   smooth      PW
     Min         113     113     31                 3193     3193     475
     Max         114     114     32                 3195     3195     478
     Sum        1813    1813    511                51109    51109    7631

     Using Slab Decomposition



     bravais-lattice index     =            2
     lattice parameter (alat)  =      12.2300  a.u.
     unit-cell volume          =     457.3191 (a.u.)^3
     number of atoms/cell      =            2
     number of atomic types    =            1
     number of electrons       =        28.00
     number of Kohn-Sham states=           14
     kinetic-energy cutoff     =      88.0000  Ry
     charge density cutoff     =     352.0000  Ry
     scf convergence threshold =      1.0E-07
     mixing beta               =       0.7000
     number of iterations used =            8  plain     mixing
     Exchange-correlation=  SLA  PW   GGX  GGC
                           (   1   4   2   2   0   0   0)

     celldm(1)=  12.230000  celldm(2)=   0.000000  celldm(3)=   0.000000
     celldm(4)=   0.000000  celldm(5)=   0.000000  celldm(6)=   0.000000

     crystal axes: (cart. coord. in units of alat)
               a(1) = (  -0.500000   0.000000   0.500000 )  
               a(2) = (   0.000000   0.500000   0.500000 )  
               a(3) = (  -0.500000   0.500000   0.000000 )  

     reciprocal axes: (cart. coord. in units 2 pi/alat)
               b(1) = ( -1.000000 -1.000000  1.000000 )  
               b(2) = (  1.000000  1.000000  1.000000 )  
               b(3) = ( -1.000000  1.000000 -1.000000 )  


     PseudoPot. # 1 for Sn read from file:
     ./Sn.pw91-n-van.UPF
     MD5 check sum: a38d2a872edd1a4efd76c0a1a38f7031
     Pseudo is Ultrasoft + core correction, Zval = 14.0
     Generated by new atomic code, or converted to UPF format
     Using radial grid of  891 points,  6 beta functions with: 
                l(1) =   0
                l(2) =   0
                l(3) =   1
                l(4) =   1
                l(5) =   2
                l(6) =   2
     Q(r) pseudized with  8 coefficients,  rinner =    1.100   1.100   1.100
                                                       1.100   1.100

     atomic species   valence    mass     pseudopotential
     Sn               14.00   118.70000     Sn( 1.00)

     48 Sym. Ops., with inversion, found (24 have fractional translation)



   Cartesian axes

     site n.     atom                  positions (alat units)
         1        Sn     tau(   1) = (   0.0000000   0.0000000   0.0000000  )
         2        Sn     tau(   2) = (   0.2500000   0.2500000   0.2500000  )

     number of k points=     8
                       cart. coord. in units 2pi/alat
        k(    1) = (   0.0000000   0.0000000   0.0000000), wk =   0.0312500
        k(    2) = (  -0.2500000   0.2500000  -0.2500000), wk =   0.2500000
        k(    3) = (   0.5000000  -0.5000000   0.5000000), wk =   0.1250000
        k(    4) = (   0.0000000   0.5000000   0.0000000), wk =   0.1875000
        k(    5) = (   0.7500000  -0.2500000   0.7500000), wk =   0.7500000
        k(    6) = (   0.5000000   0.0000000   0.5000000), wk =   0.3750000
        k(    7) = (   0.0000000  -1.0000000   0.0000000), wk =   0.0937500
        k(    8) = (  -0.5000000  -1.0000000   0.0000000), wk =   0.1875000

     Dense  grid:    51109 G-vectors     FFT dimensions: (  60,  60,  60)

     Estimated max dynamical RAM per process >       5.31 MB

     Estimated total dynamical RAM >     592.83 MB

     Initial potential from superposition of free atoms

     starting charge      27.9964, renormalised to      28.0000
     Starting wfcs are   18 randomized atomic wfcs

     total cpu time spent up to now is        0.9 secs

     per-process dynamical memory:    12.1 Mb

     Self-consistent Calculation

     iteration #  1     ecut=    88.00 Ry     beta= 0.70
     Davidson diagonalization with overlap
     ethr =  1.00E-02,  avg # of iterations =  1.6

     Threshold (ethr) on eigenvalues was too large:
     Diagonalizing with lowered threshold

     Davidson diagonalization with overlap
     ethr =  8.30E-05,  avg # of iterations =  2.2

     total cpu time spent up to now is        1.0 secs

     total energy              =    -325.61370162 Ry
     estimated scf accuracy    <       0.02880119 Ry

     iteration #  2     ecut=    88.00 Ry     beta= 0.70
     Davidson diagonalization with overlap
     ethr =  1.03E-04,  avg # of iterations =  1.0

     negative rho (up, down):  7.381E-06 0.000E+00

     total cpu time spent up to now is        1.0 secs

     total energy              =    -325.61470177 Ry
     estimated scf accuracy    <       0.00158891 Ry

     iteration #  3     ecut=    88.00 Ry     beta= 0.70
     Davidson diagonalization with overlap
     ethr =  5.67E-06,  avg # of iterations =  2.1

     negative rho (up, down):  1.161E-05 0.000E+00

     total cpu time spent up to now is        1.1 secs

     total energy              =    -325.61482969 Ry
     estimated scf accuracy    <       0.00003636 Ry

     iteration #  4     ecut=    88.00 Ry     beta= 0.70
     Davidson diagonalization with overlap
     ethr =  1.30E-07,  avg # of iterations =  3.0

     negative rho (up, down):  1.406E-05 0.000E+00

     total cpu time spent up to now is        1.1 secs

     total energy              =    -325.61484026 Ry
     estimated scf accuracy    <       0.00000305 Ry

     iteration #  5     ecut=    88.00 Ry     beta= 0.70
     Davidson diagonalization with overlap
     ethr =  1.09E-08,  avg # of iterations =  3.8

     negative rho (up, down):  1.387E-05 0.000E+00

     total cpu time spent up to now is        1.2 secs

     total energy              =    -325.61484082 Ry
     estimated scf accuracy    <       0.00000026 Ry

     iteration #  6     ecut=    88.00 Ry     beta= 0.70
     Davidson diagonalization with overlap
     ethr =  9.11E-10,  avg # of iterations =  2.2

     negative rho (up, down):  1.400E-05 0.000E+00

     total cpu time spent up to now is        1.2 secs

     End of self-consistent calculation

          k = 0.0000 0.0000 0.0000 (  6375 PWs)   bands (ev):

   -13.7049 -13.7049 -13.7049 -13.6467 -13.6467 -13.3284 -13.3284 -13.3284
   -13.3203 -13.3203  -2.7000   7.3364   8.0640   8.0640

          k =-0.2500 0.2500-0.2500 (  6363 PWs)   bands (ev):

   -13.7314 -13.7314 -13.6919 -13.6058 -13.6058 -13.3745 -13.3745 -13.3451
   -13.2826 -13.2826  -2.1080   3.9187   7.3009   7.3009

          k = 0.5000-0.5000 0.5000 (  6394 PWs)   bands (ev):

   -13.7421 -13.7421 -13.6779 -13.5845 -13.5845 -13.3910 -13.3910 -13.3630
   -13.2707 -13.2707  -1.0617   1.6355   6.8436   6.8436

          k = 0.0000 0.5000 0.0000 (  6374 PWs)   bands (ev):

   -13.7332 -13.7332 -13.7093 -13.5979 -13.5479 -13.4613 -13.3672 -13.2985
   -13.2871 -13.2871  -1.8910   3.8046   6.3567   6.3567

          k = 0.7500-0.2500 0.7500 (  6373 PWs)   bands (ev):

   -13.7721 -13.7515 -13.6454 -13.5470 -13.5176 -13.4893 -13.4220 -13.3730
   -13.2587 -13.2376  -0.7137   1.6736   5.0205   6.0396

          k = 0.5000 0.0000 0.5000 (  6375 PWs)   bands (ev):

   -13.7654 -13.7536 -13.6391 -13.5816 -13.5438 -13.4359 -13.4042 -13.3906
   -13.2549 -13.2479  -1.2011   2.3660   4.9310   6.7750

          k = 0.0000-1.0000 0.0000 (  6386 PWs)   bands (ev):

   -13.7575 -13.7575 -13.6211 -13.6211 -13.4816 -13.4816 -13.3959 -13.3959
   -13.2496 -13.2496   0.4184   0.4184   5.4851   5.4851

          k =-0.5000-1.0000 0.0000 (  6392 PWs)   bands (ev):

   -13.7755 -13.7755 -13.5622 -13.5622 -13.4908 -13.4908 -13.4452 -13.4452
   -13.2321 -13.2321   0.4786   0.4786   4.9011   4.9011

     highest occupied level (ev):     8.0640

!    total energy              =    -325.61484087 Ry
     estimated scf accuracy    <       0.00000007 Ry

     The total energy is the sum of the following terms:
     one-electron contribution =    -150.97382401 Ry
     hartree contribution      =      93.25089296 Ry
     xc contribution           =     -95.23247946 Ry
     ewald contribution        =    -172.65943036 Ry

     convergence has been achieved in   6 iterations

     Writing all to output data dir ./alpha-sn-scf/alphatin.save/ :
     XML data file, charge density, pseudopotentials, collected wavefunctions

     init_run     :      0.51s CPU      0.57s WALL (       1 calls)
     electrons    :      0.31s CPU      0.36s WALL (       1 calls)

     Called by init_run:
     wfcinit      :      0.00s CPU      0.02s WALL (       1 calls)
     potinit      :      0.02s CPU      0.04s WALL (       1 calls)
     hinit0       :      0.44s CPU      0.46s WALL (       1 calls)

     Called by electrons:
     c_bands      :      0.14s CPU      0.15s WALL (       7 calls)
     sum_band     :      0.06s CPU      0.07s WALL (       7 calls)
     v_of_rho     :      0.07s CPU      0.09s WALL (       7 calls)
     newd         :      0.03s CPU      0.03s WALL (       7 calls)
     mix_rho      :      0.01s CPU      0.01s WALL (       7 calls)

     Called by c_bands:
     init_us_2    :      0.00s CPU      0.00s WALL (      15 calls)
     cegterg      :      0.13s CPU      0.13s WALL (       7 calls)

     Called by *egterg:
     cdiaghg      :      0.01s CPU      0.01s WALL (      27 calls)
     h_psi        :      0.11s CPU      0.12s WALL (      29 calls)
     s_psi        :      0.00s CPU      0.00s WALL (      29 calls)
     g_psi        :      0.00s CPU      0.00s WALL (      21 calls)

     Called by h_psi:
     h_psi:calbec :      0.00s CPU      0.01s WALL (      29 calls)
     vloc_psi     :      0.10s CPU      0.11s WALL (      29 calls)
     add_vuspsi   :      0.00s CPU      0.00s WALL (      29 calls)

     General routines
     calbec       :      0.01s CPU      0.01s WALL (      36 calls)
     fft          :      0.44s CPU      0.44s WALL (      78 calls)
     ffts         :      0.00s CPU      0.00s WALL (       7 calls)
     fftw         :      0.10s CPU      0.12s WALL (     630 calls)

     Parallel routines

     PWSCF        :      1.03s CPU      1.32s WALL


   This run was terminated on:  15:53: 3   5Feb2026            

=------------------------------------------------------------------------------=
   JOB DONE.
=------------------------------------------------------------------------------=
