
     Program PWSCF v.7.3.1 starts on  5Feb2026 at 15:53: 9 

     This program is part of the open-source Quantum ESPRESSO suite
     for quantum simulation of materials; please cite
         "P. Giannozzi et al., J. Phys.:Condens. Matter 21 395502 (2009);
         "P. Giannozzi et al., J. Phys.:Condens. Matter 29 465901 (2017);
         "P. Giannozzi et al., J. Chem. Phys. 152 154105 (2020);
          URL http://www.quantum-espresso.org", 
     in publications or presentations arising from this work. More details at
     http://www.quantum-espresso.org/quote

     Parallel version (MPI), running on   128 processors

     MPI processes distributed on     1 nodes
     242394 MiB available memory on the printing compute node when the environment starts

     Waiting for input...
     Reading input from standard input
     Message from routine read_cards :
     DEPRECATED: no units specified in ATOMIC_POSITIONS card
     Message from routine read_cards :
     ATOMIC_POSITIONS: units set to alat

     Current dimensions of program PWSCF are:
     Max number of different atomic species (ntypx) = 10
     Max number of k-points (npk) =  40000
     Max angular momentum in pseudopotentials (lmaxx) =  4

     K-points division:     npool     =       8
     R & G space division:  proc/nbgrp/npool/nimage =      16
     Subspace diagonalization in iterative solution of the eigenvalue problem:
     a serial algorithm will be used


     Parallelization info
     --------------------
     sticks:   dense  smooth     PW     G-vecs:    dense   smooth      PW
     Min         116     116     31                 3283     3283     484
     Max         117     117     32                 3284     3284     489
     Sum        1867    1867    511                52537    52537    7799

     Using Slab Decomposition



     bravais-lattice index     =            2
     lattice parameter (alat)  =      12.2300  a.u.
     unit-cell volume          =     457.3191 (a.u.)^3
     number of atoms/cell      =            2
     number of atomic types    =            1
     number of electrons       =        28.00
     number of Kohn-Sham states=           14
     kinetic-energy cutoff     =      90.0000  Ry
     charge density cutoff     =     360.0000  Ry
     scf convergence threshold =      1.0E-07
     mixing beta               =       0.7000
     number of iterations used =            8  plain     mixing
     Exchange-correlation=  SLA  PW   GGX  GGC
                           (   1   4   2   2   0   0   0)

     celldm(1)=  12.230000  celldm(2)=   0.000000  celldm(3)=   0.000000
     celldm(4)=   0.000000  celldm(5)=   0.000000  celldm(6)=   0.000000

     crystal axes: (cart. coord. in units of alat)
               a(1) = (  -0.500000   0.000000   0.500000 )  
               a(2) = (   0.000000   0.500000   0.500000 )  
               a(3) = (  -0.500000   0.500000   0.000000 )  

     reciprocal axes: (cart. coord. in units 2 pi/alat)
               b(1) = ( -1.000000 -1.000000  1.000000 )  
               b(2) = (  1.000000  1.000000  1.000000 )  
               b(3) = ( -1.000000  1.000000 -1.000000 )  


     PseudoPot. # 1 for Sn read from file:
     ./Sn.pw91-n-van.UPF
     MD5 check sum: a38d2a872edd1a4efd76c0a1a38f7031
     Pseudo is Ultrasoft + core correction, Zval = 14.0
     Generated by new atomic code, or converted to UPF format
     Using radial grid of  891 points,  6 beta functions with: 
                l(1) =   0
                l(2) =   0
                l(3) =   1
                l(4) =   1
                l(5) =   2
                l(6) =   2
     Q(r) pseudized with  8 coefficients,  rinner =    1.100   1.100   1.100
                                                       1.100   1.100

     atomic species   valence    mass     pseudopotential
     Sn               14.00   118.70000     Sn( 1.00)

     48 Sym. Ops., with inversion, found (24 have fractional translation)



   Cartesian axes

     site n.     atom                  positions (alat units)
         1        Sn     tau(   1) = (   0.0000000   0.0000000   0.0000000  )
         2        Sn     tau(   2) = (   0.2500000   0.2500000   0.2500000  )

     number of k points=     8
                       cart. coord. in units 2pi/alat
        k(    1) = (   0.0000000   0.0000000   0.0000000), wk =   0.0312500
        k(    2) = (  -0.2500000   0.2500000  -0.2500000), wk =   0.2500000
        k(    3) = (   0.5000000  -0.5000000   0.5000000), wk =   0.1250000
        k(    4) = (   0.0000000   0.5000000   0.0000000), wk =   0.1875000
        k(    5) = (   0.7500000  -0.2500000   0.7500000), wk =   0.7500000
        k(    6) = (   0.5000000   0.0000000   0.5000000), wk =   0.3750000
        k(    7) = (   0.0000000  -1.0000000   0.0000000), wk =   0.0937500
        k(    8) = (  -0.5000000  -1.0000000   0.0000000), wk =   0.1875000

     Dense  grid:    52537 G-vectors     FFT dimensions: (  60,  60,  60)

     Estimated max dynamical RAM per process >       5.41 MB

     Estimated total dynamical RAM >     602.87 MB

     Initial potential from superposition of free atoms

     starting charge      27.9964, renormalised to      28.0000
     Starting wfcs are   18 randomized atomic wfcs

     total cpu time spent up to now is        0.9 secs

     per-process dynamical memory:    12.0 Mb

     Self-consistent Calculation

     iteration #  1     ecut=    90.00 Ry     beta= 0.70
     Davidson diagonalization with overlap
     ethr =  1.00E-02,  avg # of iterations =  1.6

     Threshold (ethr) on eigenvalues was too large:
     Diagonalizing with lowered threshold

     Davidson diagonalization with overlap
     ethr =  8.29E-05,  avg # of iterations =  2.2

     total cpu time spent up to now is        1.0 secs

     total energy              =    -325.61397846 Ry
     estimated scf accuracy    <       0.02887712 Ry

     iteration #  2     ecut=    90.00 Ry     beta= 0.70
     Davidson diagonalization with overlap
     ethr =  1.03E-04,  avg # of iterations =  1.0

     negative rho (up, down):  1.004E-05 0.000E+00

     total cpu time spent up to now is        1.0 secs

     total energy              =    -325.61499800 Ry
     estimated scf accuracy    <       0.00157208 Ry

     iteration #  3     ecut=    90.00 Ry     beta= 0.70
     Davidson diagonalization with overlap
     ethr =  5.61E-06,  avg # of iterations =  2.1

     negative rho (up, down):  1.432E-05 0.000E+00

     total cpu time spent up to now is        1.0 secs

     total energy              =    -325.61512628 Ry
     estimated scf accuracy    <       0.00003531 Ry

     iteration #  4     ecut=    90.00 Ry     beta= 0.70
     Davidson diagonalization with overlap
     ethr =  1.26E-07,  avg # of iterations =  3.2

     negative rho (up, down):  1.673E-05 0.000E+00

     total cpu time spent up to now is        1.1 secs

     total energy              =    -325.61513657 Ry
     estimated scf accuracy    <       0.00000297 Ry

     iteration #  5     ecut=    90.00 Ry     beta= 0.70
     Davidson diagonalization with overlap
     ethr =  1.06E-08,  avg # of iterations =  3.6

     negative rho (up, down):  1.656E-05 0.000E+00

     total cpu time spent up to now is        1.1 secs

     total energy              =    -325.61513716 Ry
     estimated scf accuracy    <       0.00000024 Ry

     iteration #  6     ecut=    90.00 Ry     beta= 0.70
     Davidson diagonalization with overlap
     ethr =  8.41E-10,  avg # of iterations =  2.8

     negative rho (up, down):  1.668E-05 0.000E+00

     total cpu time spent up to now is        1.2 secs

     End of self-consistent calculation

          k = 0.0000 0.0000 0.0000 (  6615 PWs)   bands (ev):

   -13.7058 -13.7058 -13.7058 -13.6469 -13.6469 -13.3292 -13.3292 -13.3292
   -13.3204 -13.3204  -2.7004   7.3360   8.0637   8.0637

          k =-0.2500 0.2500-0.2500 (  6573 PWs)   bands (ev):

   -13.7321 -13.7321 -13.6927 -13.6060 -13.6060 -13.3749 -13.3749 -13.3460
   -13.2833 -13.2833  -2.1084   3.9184   7.3006   7.3006

          k = 0.5000-0.5000 0.5000 (  6586 PWs)   bands (ev):

   -13.7429 -13.7429 -13.6788 -13.5847 -13.5847 -13.3911 -13.3911 -13.3637
   -13.2715 -13.2715  -1.0620   1.6351   6.8434   6.8434

          k = 0.0000 0.5000 0.0000 (  6606 PWs)   bands (ev):

   -13.7340 -13.7340 -13.7099 -13.5981 -13.5483 -13.4618 -13.3674 -13.2990
   -13.2879 -13.2879  -1.8914   3.8044   6.3564   6.3564

          k = 0.7500-0.2500 0.7500 (  6600 PWs)   bands (ev):

   -13.7729 -13.7523 -13.6460 -13.5473 -13.5180 -13.4898 -13.4222 -13.3734
   -13.2595 -13.2384  -0.7140   1.6733   5.0200   6.0393

          k = 0.5000 0.0000 0.5000 (  6585 PWs)   bands (ev):

   -13.7662 -13.7543 -13.6399 -13.5818 -13.5441 -13.4361 -13.4051 -13.3908
   -13.2557 -13.2487  -1.2014   2.3657   4.9305   6.7747

          k = 0.0000-1.0000 0.0000 (  6526 PWs)   bands (ev):

   -13.7582 -13.7582 -13.6216 -13.6216 -13.4818 -13.4818 -13.3962 -13.3962
   -13.2504 -13.2504   0.4181   0.4181   5.4848   5.4848

          k =-0.5000-1.0000 0.0000 (  6620 PWs)   bands (ev):

   -13.7764 -13.7764 -13.5628 -13.5628 -13.4911 -13.4911 -13.4456 -13.4456
   -13.2329 -13.2329   0.4783   0.4783   4.9006   4.9006

     highest occupied level (ev):     8.0637

!    total energy              =    -325.61513720 Ry
     estimated scf accuracy    <       0.00000005 Ry

     The total energy is the sum of the following terms:
     one-electron contribution =    -150.97387595 Ry
     hartree contribution      =      93.25053266 Ry
     xc contribution           =     -95.23236355 Ry
     ewald contribution        =    -172.65943036 Ry

     convergence has been achieved in   6 iterations

     Writing all to output data dir ./alpha-sn-scf/alphatin.save/ :
     XML data file, charge density, pseudopotentials, collected wavefunctions

     init_run     :      0.53s CPU      0.58s WALL (       1 calls)
     electrons    :      0.31s CPU      1.93s WALL (       1 calls)

     Called by init_run:
     wfcinit      :      0.02s CPU      0.02s WALL (       1 calls)
     potinit      :      0.03s CPU      0.03s WALL (       1 calls)
     hinit0       :      0.45s CPU      0.46s WALL (       1 calls)

     Called by electrons:
     c_bands      :      0.13s CPU      0.14s WALL (       7 calls)
     sum_band     :      0.07s CPU      0.07s WALL (       7 calls)
     v_of_rho     :      0.08s CPU      0.08s WALL (       7 calls)
     newd         :      0.02s CPU      0.02s WALL (       7 calls)
     mix_rho      :      0.01s CPU      0.01s WALL (       7 calls)

     Called by c_bands:
     init_us_2    :      0.00s CPU      0.00s WALL (      15 calls)
     cegterg      :      0.12s CPU      0.13s WALL (       7 calls)

     Called by *egterg:
     cdiaghg      :      0.01s CPU      0.01s WALL (      27 calls)
     h_psi        :      0.11s CPU      0.12s WALL (      29 calls)
     s_psi        :      0.00s CPU      0.00s WALL (      29 calls)
     g_psi        :      0.00s CPU      0.00s WALL (      21 calls)

     Called by h_psi:
     h_psi:calbec :      0.01s CPU      0.01s WALL (      29 calls)
     vloc_psi     :      0.10s CPU      0.11s WALL (      29 calls)
     add_vuspsi   :      0.00s CPU      0.00s WALL (      29 calls)

     General routines
     calbec       :      0.01s CPU      0.01s WALL (      36 calls)
     fft          :      0.44s CPU      0.44s WALL (      78 calls)
     ffts         :      0.00s CPU      0.00s WALL (       7 calls)
     fftw         :      0.11s CPU      0.12s WALL (     624 calls)

     Parallel routines

     PWSCF        :      1.07s CPU      2.89s WALL


   This run was terminated on:  15:53:12   5Feb2026            

=------------------------------------------------------------------------------=
   JOB DONE.
=------------------------------------------------------------------------------=
