
     Program PWSCF v.7.3.1 starts on  5Feb2026 at 15:53:23 

     This program is part of the open-source Quantum ESPRESSO suite
     for quantum simulation of materials; please cite
         "P. Giannozzi et al., J. Phys.:Condens. Matter 21 395502 (2009);
         "P. Giannozzi et al., J. Phys.:Condens. Matter 29 465901 (2017);
         "P. Giannozzi et al., J. Chem. Phys. 152 154105 (2020);
          URL http://www.quantum-espresso.org", 
     in publications or presentations arising from this work. More details at
     http://www.quantum-espresso.org/quote

     Parallel version (MPI), running on   128 processors

     MPI processes distributed on     1 nodes
     242370 MiB available memory on the printing compute node when the environment starts

     Waiting for input...
     Reading input from standard input
     Message from routine read_cards :
     DEPRECATED: no units specified in ATOMIC_POSITIONS card
     Message from routine read_cards :
     ATOMIC_POSITIONS: units set to alat

     Current dimensions of program PWSCF are:
     Max number of different atomic species (ntypx) = 10
     Max number of k-points (npk) =  40000
     Max angular momentum in pseudopotentials (lmaxx) =  4

     K-points division:     npool     =       8
     R & G space division:  proc/nbgrp/npool/nimage =      16
     Subspace diagonalization in iterative solution of the eigenvalue problem:
     a serial algorithm will be used


     Parallelization info
     --------------------
     sticks:   dense  smooth     PW     G-vecs:    dense   smooth      PW
     Min         118     118     32                 3393     3393     498
     Max         119     119     33                 3398     3398     501
     Sum        1891    1891    517                54313    54313    7991

     Using Slab Decomposition



     bravais-lattice index     =            2
     lattice parameter (alat)  =      12.2300  a.u.
     unit-cell volume          =     457.3191 (a.u.)^3
     number of atoms/cell      =            2
     number of atomic types    =            1
     number of electrons       =        28.00
     number of Kohn-Sham states=           14
     kinetic-energy cutoff     =      92.0000  Ry
     charge density cutoff     =     368.0000  Ry
     scf convergence threshold =      1.0E-07
     mixing beta               =       0.7000
     number of iterations used =            8  plain     mixing
     Exchange-correlation=  SLA  PW   GGX  GGC
                           (   1   4   2   2   0   0   0)

     celldm(1)=  12.230000  celldm(2)=   0.000000  celldm(3)=   0.000000
     celldm(4)=   0.000000  celldm(5)=   0.000000  celldm(6)=   0.000000

     crystal axes: (cart. coord. in units of alat)
               a(1) = (  -0.500000   0.000000   0.500000 )  
               a(2) = (   0.000000   0.500000   0.500000 )  
               a(3) = (  -0.500000   0.500000   0.000000 )  

     reciprocal axes: (cart. coord. in units 2 pi/alat)
               b(1) = ( -1.000000 -1.000000  1.000000 )  
               b(2) = (  1.000000  1.000000  1.000000 )  
               b(3) = ( -1.000000  1.000000 -1.000000 )  


     PseudoPot. # 1 for Sn read from file:
     ./Sn.pw91-n-van.UPF
     MD5 check sum: a38d2a872edd1a4efd76c0a1a38f7031
     Pseudo is Ultrasoft + core correction, Zval = 14.0
     Generated by new atomic code, or converted to UPF format
     Using radial grid of  891 points,  6 beta functions with: 
                l(1) =   0
                l(2) =   0
                l(3) =   1
                l(4) =   1
                l(5) =   2
                l(6) =   2
     Q(r) pseudized with  8 coefficients,  rinner =    1.100   1.100   1.100
                                                       1.100   1.100

     atomic species   valence    mass     pseudopotential
     Sn               14.00   118.70000     Sn( 1.00)

     48 Sym. Ops., with inversion, found (24 have fractional translation)



   Cartesian axes

     site n.     atom                  positions (alat units)
         1        Sn     tau(   1) = (   0.0000000   0.0000000   0.0000000  )
         2        Sn     tau(   2) = (   0.2500000   0.2500000   0.2500000  )

     number of k points=     8
                       cart. coord. in units 2pi/alat
        k(    1) = (   0.0000000   0.0000000   0.0000000), wk =   0.0312500
        k(    2) = (  -0.2500000   0.2500000  -0.2500000), wk =   0.2500000
        k(    3) = (   0.5000000  -0.5000000   0.5000000), wk =   0.1250000
        k(    4) = (   0.0000000   0.5000000   0.0000000), wk =   0.1875000
        k(    5) = (   0.7500000  -0.2500000   0.7500000), wk =   0.7500000
        k(    6) = (   0.5000000   0.0000000   0.5000000), wk =   0.3750000
        k(    7) = (   0.0000000  -1.0000000   0.0000000), wk =   0.0937500
        k(    8) = (  -0.5000000  -1.0000000   0.0000000), wk =   0.1875000

     Dense  grid:    54313 G-vectors     FFT dimensions: (  60,  60,  60)

     Estimated max dynamical RAM per process >       5.53 MB

     Estimated total dynamical RAM >     614.47 MB

     Initial potential from superposition of free atoms

     starting charge      27.9964, renormalised to      28.0000
     Starting wfcs are   18 randomized atomic wfcs

     total cpu time spent up to now is        0.9 secs

     per-process dynamical memory:    12.2 Mb

     Self-consistent Calculation

     iteration #  1     ecut=    92.00 Ry     beta= 0.70
     Davidson diagonalization with overlap
     ethr =  1.00E-02,  avg # of iterations =  1.6

     Threshold (ethr) on eigenvalues was too large:
     Diagonalizing with lowered threshold

     Davidson diagonalization with overlap
     ethr =  8.21E-05,  avg # of iterations =  2.1

     total cpu time spent up to now is        1.0 secs

     total energy              =    -325.61424128 Ry
     estimated scf accuracy    <       0.02874500 Ry

     iteration #  2     ecut=    92.00 Ry     beta= 0.70
     Davidson diagonalization with overlap
     ethr =  1.03E-04,  avg # of iterations =  1.0

     negative rho (up, down):  1.176E-05 0.000E+00

     total cpu time spent up to now is        1.0 secs

     total energy              =    -325.61525342 Ry
     estimated scf accuracy    <       0.00159400 Ry

     iteration #  3     ecut=    92.00 Ry     beta= 0.70
     Davidson diagonalization with overlap
     ethr =  5.69E-06,  avg # of iterations =  2.1

     negative rho (up, down):  1.587E-05 0.000E+00

     total cpu time spent up to now is        1.1 secs

     total energy              =    -325.61538485 Ry
     estimated scf accuracy    <       0.00003672 Ry

     iteration #  4     ecut=    92.00 Ry     beta= 0.70
     Davidson diagonalization with overlap
     ethr =  1.31E-07,  avg # of iterations =  3.6

     negative rho (up, down):  1.831E-05 0.000E+00

     total cpu time spent up to now is        1.1 secs

     total energy              =    -325.61539606 Ry
     estimated scf accuracy    <       0.00000311 Ry

     iteration #  5     ecut=    92.00 Ry     beta= 0.70
     Davidson diagonalization with overlap
     ethr =  1.11E-08,  avg # of iterations =  3.5

     negative rho (up, down):  1.810E-05 0.000E+00

     total cpu time spent up to now is        1.2 secs

     total energy              =    -325.61539670 Ry
     estimated scf accuracy    <       0.00000028 Ry

     iteration #  6     ecut=    92.00 Ry     beta= 0.70
     Davidson diagonalization with overlap
     ethr =  9.83E-10,  avg # of iterations =  2.4

     negative rho (up, down):  1.822E-05 0.000E+00

     total cpu time spent up to now is        1.2 secs

     End of self-consistent calculation

          k = 0.0000 0.0000 0.0000 (  6855 PWs)   bands (ev):

   -13.7062 -13.7062 -13.7062 -13.6471 -13.6471 -13.3294 -13.3294 -13.3294
   -13.3209 -13.3209  -2.7006   7.3359   8.0636   8.0636

          k =-0.2500 0.2500-0.2500 (  6808 PWs)   bands (ev):

   -13.7325 -13.7325 -13.6930 -13.6063 -13.6063 -13.3751 -13.3751 -13.3463
   -13.2835 -13.2835  -2.1085   3.9183   7.3005   7.3005

          k = 0.5000-0.5000 0.5000 (  6778 PWs)   bands (ev):

   -13.7432 -13.7432 -13.6790 -13.5850 -13.5850 -13.3913 -13.3913 -13.3640
   -13.2718 -13.2718  -1.0621   1.6349   6.8433   6.8433

          k = 0.0000 0.5000 0.0000 (  6843 PWs)   bands (ev):

   -13.7343 -13.7343 -13.7103 -13.5984 -13.5486 -13.4622 -13.3677 -13.2993
   -13.2882 -13.2882  -1.8916   3.8043   6.3563   6.3563

          k = 0.7500-0.2500 0.7500 (  6812 PWs)   bands (ev):

   -13.7732 -13.7526 -13.6464 -13.5476 -13.5184 -13.4901 -13.4225 -13.3738
   -13.2598 -13.2387  -0.7141   1.6732   5.0197   6.0391

          k = 0.5000 0.0000 0.5000 (  6841 PWs)   bands (ev):

   -13.7666 -13.7546 -13.6402 -13.5821 -13.5444 -13.4364 -13.4054 -13.3912
   -13.2560 -13.2490  -1.2015   2.3656   4.9302   6.7746

          k = 0.0000-1.0000 0.0000 (  6782 PWs)   bands (ev):

   -13.7585 -13.7585 -13.6220 -13.6220 -13.4821 -13.4821 -13.3966 -13.3966
   -13.2507 -13.2507   0.4179   0.4179   5.4846   5.4846

          k =-0.5000-1.0000 0.0000 (  6796 PWs)   bands (ev):

   -13.7766 -13.7766 -13.5630 -13.5630 -13.4913 -13.4913 -13.4459 -13.4459
   -13.2332 -13.2332   0.4782   0.4782   4.9003   4.9003

     highest occupied level (ev):     8.0636

!    total energy              =    -325.61539674 Ry
     estimated scf accuracy    <       0.00000006 Ry

     The total energy is the sum of the following terms:
     one-electron contribution =    -150.97386768 Ry
     hartree contribution      =      93.25016250 Ry
     xc contribution           =     -95.23226120 Ry
     ewald contribution        =    -172.65943036 Ry

     convergence has been achieved in   6 iterations

     Writing all to output data dir ./alpha-sn-scf/alphatin.save/ :
     XML data file, charge density, pseudopotentials, collected wavefunctions

     init_run     :      0.53s CPU      0.58s WALL (       1 calls)
     electrons    :      0.31s CPU      0.37s WALL (       1 calls)

     Called by init_run:
     wfcinit      :      0.01s CPU      0.02s WALL (       1 calls)
     potinit      :      0.02s CPU      0.03s WALL (       1 calls)
     hinit0       :      0.45s CPU      0.46s WALL (       1 calls)

     Called by electrons:
     c_bands      :      0.15s CPU      0.15s WALL (       7 calls)
     sum_band     :      0.06s CPU      0.07s WALL (       7 calls)
     v_of_rho     :      0.08s CPU      0.08s WALL (       7 calls)
     newd         :      0.02s CPU      0.03s WALL (       7 calls)
     mix_rho      :      0.01s CPU      0.01s WALL (       7 calls)

     Called by c_bands:
     init_us_2    :      0.00s CPU      0.00s WALL (      15 calls)
     cegterg      :      0.14s CPU      0.14s WALL (       7 calls)

     Called by *egterg:
     cdiaghg      :      0.01s CPU      0.01s WALL (      26 calls)
     h_psi        :      0.12s CPU      0.12s WALL (      28 calls)
     s_psi        :      0.00s CPU      0.00s WALL (      28 calls)
     g_psi        :      0.00s CPU      0.00s WALL (      20 calls)

     Called by h_psi:
     h_psi:calbec :      0.01s CPU      0.01s WALL (      28 calls)
     vloc_psi     :      0.11s CPU      0.12s WALL (      28 calls)
     add_vuspsi   :      0.00s CPU      0.00s WALL (      28 calls)

     General routines
     calbec       :      0.01s CPU      0.01s WALL (      35 calls)
     fft          :      0.44s CPU      0.44s WALL (      78 calls)
     ffts         :      0.00s CPU      0.00s WALL (       7 calls)
     fftw         :      0.12s CPU      0.12s WALL (     630 calls)

     Parallel routines

     PWSCF        :      1.12s CPU      1.37s WALL


   This run was terminated on:  15:53:25   5Feb2026            

=------------------------------------------------------------------------------=
   JOB DONE.
=------------------------------------------------------------------------------=
