
     Program PWSCF v.7.3.1 starts on  5Feb2026 at 15:53:45 

     This program is part of the open-source Quantum ESPRESSO suite
     for quantum simulation of materials; please cite
         "P. Giannozzi et al., J. Phys.:Condens. Matter 21 395502 (2009);
         "P. Giannozzi et al., J. Phys.:Condens. Matter 29 465901 (2017);
         "P. Giannozzi et al., J. Chem. Phys. 152 154105 (2020);
          URL http://www.quantum-espresso.org", 
     in publications or presentations arising from this work. More details at
     http://www.quantum-espresso.org/quote

     Parallel version (MPI), running on   128 processors

     MPI processes distributed on     1 nodes
     242354 MiB available memory on the printing compute node when the environment starts

     Waiting for input...
     Reading input from standard input
     Message from routine read_cards :
     DEPRECATED: no units specified in ATOMIC_POSITIONS card
     Message from routine read_cards :
     ATOMIC_POSITIONS: units set to alat

     Current dimensions of program PWSCF are:
     Max number of different atomic species (ntypx) = 10
     Max number of k-points (npk) =  40000
     Max angular momentum in pseudopotentials (lmaxx) =  4

     K-points division:     npool     =       8
     R & G space division:  proc/nbgrp/npool/nimage =      16
     Subspace diagonalization in iterative solution of the eigenvalue problem:
     a serial algorithm will be used


     Parallelization info
     --------------------
     sticks:   dense  smooth     PW     G-vecs:    dense   smooth      PW
     Min         123     123     34                 3628     3628     536
     Max         124     124     35                 3631     3631     539
     Sum        1969    1969    559                58071    58071    8609

     Using Slab Decomposition



     bravais-lattice index     =            2
     lattice parameter (alat)  =      12.2300  a.u.
     unit-cell volume          =     457.3191 (a.u.)^3
     number of atoms/cell      =            2
     number of atomic types    =            1
     number of electrons       =        28.00
     number of Kohn-Sham states=           14
     kinetic-energy cutoff     =      96.0000  Ry
     charge density cutoff     =     384.0000  Ry
     scf convergence threshold =      1.0E-07
     mixing beta               =       0.7000
     number of iterations used =            8  plain     mixing
     Exchange-correlation=  SLA  PW   GGX  GGC
                           (   1   4   2   2   0   0   0)

     celldm(1)=  12.230000  celldm(2)=   0.000000  celldm(3)=   0.000000
     celldm(4)=   0.000000  celldm(5)=   0.000000  celldm(6)=   0.000000

     crystal axes: (cart. coord. in units of alat)
               a(1) = (  -0.500000   0.000000   0.500000 )  
               a(2) = (   0.000000   0.500000   0.500000 )  
               a(3) = (  -0.500000   0.500000   0.000000 )  

     reciprocal axes: (cart. coord. in units 2 pi/alat)
               b(1) = ( -1.000000 -1.000000  1.000000 )  
               b(2) = (  1.000000  1.000000  1.000000 )  
               b(3) = ( -1.000000  1.000000 -1.000000 )  


     PseudoPot. # 1 for Sn read from file:
     ./Sn.pw91-n-van.UPF
     MD5 check sum: a38d2a872edd1a4efd76c0a1a38f7031
     Pseudo is Ultrasoft + core correction, Zval = 14.0
     Generated by new atomic code, or converted to UPF format
     Using radial grid of  891 points,  6 beta functions with: 
                l(1) =   0
                l(2) =   0
                l(3) =   1
                l(4) =   1
                l(5) =   2
                l(6) =   2
     Q(r) pseudized with  8 coefficients,  rinner =    1.100   1.100   1.100
                                                       1.100   1.100

     atomic species   valence    mass     pseudopotential
     Sn               14.00   118.70000     Sn( 1.00)

     48 Sym. Ops., with inversion, found (24 have fractional translation)



   Cartesian axes

     site n.     atom                  positions (alat units)
         1        Sn     tau(   1) = (   0.0000000   0.0000000   0.0000000  )
         2        Sn     tau(   2) = (   0.2500000   0.2500000   0.2500000  )

     number of k points=     8
                       cart. coord. in units 2pi/alat
        k(    1) = (   0.0000000   0.0000000   0.0000000), wk =   0.0312500
        k(    2) = (  -0.2500000   0.2500000  -0.2500000), wk =   0.2500000
        k(    3) = (   0.5000000  -0.5000000   0.5000000), wk =   0.1250000
        k(    4) = (   0.0000000   0.5000000   0.0000000), wk =   0.1875000
        k(    5) = (   0.7500000  -0.2500000   0.7500000), wk =   0.7500000
        k(    6) = (   0.5000000   0.0000000   0.5000000), wk =   0.3750000
        k(    7) = (   0.0000000  -1.0000000   0.0000000), wk =   0.0937500
        k(    8) = (  -0.5000000  -1.0000000   0.0000000), wk =   0.1875000

     Dense  grid:    58071 G-vectors     FFT dimensions: (  60,  60,  60)

     Estimated max dynamical RAM per process >       5.76 MB

     Estimated total dynamical RAM >     638.64 MB

     Initial potential from superposition of free atoms

     starting charge      27.9964, renormalised to      28.0000
     Starting wfcs are   18 randomized atomic wfcs

     total cpu time spent up to now is        0.9 secs

     per-process dynamical memory:    12.3 Mb

     Self-consistent Calculation

     iteration #  1     ecut=    96.00 Ry     beta= 0.70
     Davidson diagonalization with overlap
     ethr =  1.00E-02,  avg # of iterations =  1.8

     Threshold (ethr) on eigenvalues was too large:
     Diagonalizing with lowered threshold

     Davidson diagonalization with overlap
     ethr =  8.50E-05,  avg # of iterations =  2.1

     total cpu time spent up to now is        1.0 secs

     total energy              =    -325.61459544 Ry
     estimated scf accuracy    <       0.02872721 Ry

     iteration #  2     ecut=    96.00 Ry     beta= 0.70
     Davidson diagonalization with overlap
     ethr =  1.03E-04,  avg # of iterations =  1.0

     negative rho (up, down):  1.148E-05 0.000E+00

     total cpu time spent up to now is        1.0 secs

     total energy              =    -325.61561438 Ry
     estimated scf accuracy    <       0.00160013 Ry

     iteration #  3     ecut=    96.00 Ry     beta= 0.70
     Davidson diagonalization with overlap
     ethr =  5.71E-06,  avg # of iterations =  2.1

     negative rho (up, down):  1.550E-05 0.000E+00

     total cpu time spent up to now is        1.1 secs

     total energy              =    -325.61574645 Ry
     estimated scf accuracy    <       0.00003742 Ry

     iteration #  4     ecut=    96.00 Ry     beta= 0.70
     Davidson diagonalization with overlap
     ethr =  1.34E-07,  avg # of iterations =  3.4

     negative rho (up, down):  1.790E-05 0.000E+00

     total cpu time spent up to now is        1.1 secs

     total energy              =    -325.61575815 Ry
     estimated scf accuracy    <       0.00000314 Ry

     iteration #  5     ecut=    96.00 Ry     beta= 0.70
     Davidson diagonalization with overlap
     ethr =  1.12E-08,  avg # of iterations =  4.1

     negative rho (up, down):  1.770E-05 0.000E+00

     total cpu time spent up to now is        1.2 secs

     total energy              =    -325.61575881 Ry
     estimated scf accuracy    <       0.00000028 Ry

     iteration #  6     ecut=    96.00 Ry     beta= 0.70
     Davidson diagonalization with overlap
     ethr =  9.86E-10,  avg # of iterations =  2.5

     negative rho (up, down):  1.782E-05 0.000E+00

     total cpu time spent up to now is        1.2 secs

     End of self-consistent calculation

          k = 0.0000 0.0000 0.0000 (  7343 PWs)   bands (ev):

   -13.7065 -13.7065 -13.7065 -13.6470 -13.6470 -13.3298 -13.3298 -13.3298
   -13.3208 -13.3208  -2.7005   7.3360   8.0637   8.0637

          k =-0.2500 0.2500-0.2500 (  7291 PWs)   bands (ev):

   -13.7327 -13.7327 -13.6933 -13.6063 -13.6063 -13.3752 -13.3752 -13.3466
   -13.2838 -13.2838  -2.1084   3.9183   7.3006   7.3006

          k = 0.5000-0.5000 0.5000 (  7270 PWs)   bands (ev):

   -13.7435 -13.7435 -13.6793 -13.5850 -13.5850 -13.3913 -13.3913 -13.3643
   -13.2721 -13.2721  -1.0620   1.6350   6.8434   6.8434

          k = 0.0000 0.5000 0.0000 (  7283 PWs)   bands (ev):

   -13.7347 -13.7347 -13.7105 -13.5983 -13.5487 -13.4623 -13.3676 -13.2994
   -13.2885 -13.2885  -1.8915   3.8043   6.3564   6.3564

          k = 0.7500-0.2500 0.7500 (  7264 PWs)   bands (ev):

   -13.7734 -13.7529 -13.6466 -13.5475 -13.5184 -13.4903 -13.4225 -13.3739
   -13.2601 -13.2389  -0.7141   1.6733   5.0198   6.0392

          k = 0.5000 0.0000 0.5000 (  7279 PWs)   bands (ev):

   -13.7669 -13.7549 -13.6405 -13.5821 -13.5444 -13.4365 -13.4056 -13.3911
   -13.2562 -13.2493  -1.2014   2.3656   4.9303   6.7747

          k = 0.0000-1.0000 0.0000 (  7216 PWs)   bands (ev):

   -13.7588 -13.7588 -13.6222 -13.6222 -13.4820 -13.4820 -13.3967 -13.3967
   -13.2510 -13.2510   0.4180   0.4180   5.4847   5.4847

          k =-0.5000-1.0000 0.0000 (  7256 PWs)   bands (ev):

   -13.7769 -13.7769 -13.5632 -13.5632 -13.4913 -13.4913 -13.4459 -13.4459
   -13.2334 -13.2334   0.4783   0.4783   4.9004   4.9004

     highest occupied level (ev):     8.0637

!    total energy              =    -325.61575886 Ry
     estimated scf accuracy    <       0.00000006 Ry

     The total energy is the sum of the following terms:
     one-electron contribution =    -150.97439192 Ry
     hartree contribution      =      93.25033973 Ry
     xc contribution           =     -95.23227630 Ry
     ewald contribution        =    -172.65943036 Ry

     convergence has been achieved in   6 iterations

     Writing all to output data dir ./alpha-sn-scf/alphatin.save/ :
     XML data file, charge density, pseudopotentials, collected wavefunctions

     init_run     :      0.52s CPU      0.59s WALL (       1 calls)
     electrons    :      0.30s CPU      0.37s WALL (       1 calls)

     Called by init_run:
     wfcinit      :      0.01s CPU      0.02s WALL (       1 calls)
     potinit      :      0.02s CPU      0.03s WALL (       1 calls)
     hinit0       :      0.45s CPU      0.47s WALL (       1 calls)

     Called by electrons:
     c_bands      :      0.14s CPU      0.15s WALL (       7 calls)
     sum_band     :      0.06s CPU      0.07s WALL (       7 calls)
     v_of_rho     :      0.08s CPU      0.08s WALL (       7 calls)
     newd         :      0.02s CPU      0.03s WALL (       7 calls)
     mix_rho      :      0.01s CPU      0.01s WALL (       7 calls)

     Called by c_bands:
     init_us_2    :      0.00s CPU      0.00s WALL (      15 calls)
     cegterg      :      0.13s CPU      0.14s WALL (       7 calls)

     Called by *egterg:
     cdiaghg      :      0.01s CPU      0.01s WALL (      29 calls)
     h_psi        :      0.11s CPU      0.12s WALL (      31 calls)
     s_psi        :      0.00s CPU      0.00s WALL (      31 calls)
     g_psi        :      0.00s CPU      0.00s WALL (      23 calls)

     Called by h_psi:
     h_psi:calbec :      0.00s CPU      0.01s WALL (      31 calls)
     vloc_psi     :      0.10s CPU      0.11s WALL (      31 calls)
     add_vuspsi   :      0.00s CPU      0.00s WALL (      31 calls)

     General routines
     calbec       :      0.01s CPU      0.01s WALL (      38 calls)
     fft          :      0.44s CPU      0.45s WALL (      78 calls)
     ffts         :      0.00s CPU      0.00s WALL (       7 calls)
     fftw         :      0.10s CPU      0.12s WALL (     624 calls)

     Parallel routines

     PWSCF        :      1.03s CPU      1.35s WALL


   This run was terminated on:  15:53:46   5Feb2026            

=------------------------------------------------------------------------------=
   JOB DONE.
=------------------------------------------------------------------------------=
