
     Program PWSCF v.7.3.1 starts on  5Feb2026 at 15:53:53 

     This program is part of the open-source Quantum ESPRESSO suite
     for quantum simulation of materials; please cite
         "P. Giannozzi et al., J. Phys.:Condens. Matter 21 395502 (2009);
         "P. Giannozzi et al., J. Phys.:Condens. Matter 29 465901 (2017);
         "P. Giannozzi et al., J. Chem. Phys. 152 154105 (2020);
          URL http://www.quantum-espresso.org", 
     in publications or presentations arising from this work. More details at
     http://www.quantum-espresso.org/quote

     Parallel version (MPI), running on   128 processors

     MPI processes distributed on     1 nodes
     242398 MiB available memory on the printing compute node when the environment starts

     Waiting for input...
     Reading input from standard input
     Message from routine read_cards :
     DEPRECATED: no units specified in ATOMIC_POSITIONS card
     Message from routine read_cards :
     ATOMIC_POSITIONS: units set to alat

     Current dimensions of program PWSCF are:
     Max number of different atomic species (ntypx) = 10
     Max number of k-points (npk) =  40000
     Max angular momentum in pseudopotentials (lmaxx) =  4

     K-points division:     npool     =       8
     R & G space division:  proc/nbgrp/npool/nimage =      16
     Subspace diagonalization in iterative solution of the eigenvalue problem:
     a serial algorithm will be used


     Parallelization info
     --------------------
     sticks:   dense  smooth     PW     G-vecs:    dense   smooth      PW
     Min         126     126     34                 3751     3751     547
     Max         127     127     35                 3754     3754     551
     Sum        2029    2029    559                60039    60039    8801

     Using Slab Decomposition



     bravais-lattice index     =            2
     lattice parameter (alat)  =      12.2300  a.u.
     unit-cell volume          =     457.3191 (a.u.)^3
     number of atoms/cell      =            2
     number of atomic types    =            1
     number of electrons       =        28.00
     number of Kohn-Sham states=           14
     kinetic-energy cutoff     =      98.0000  Ry
     charge density cutoff     =     392.0000  Ry
     scf convergence threshold =      1.0E-07
     mixing beta               =       0.7000
     number of iterations used =            8  plain     mixing
     Exchange-correlation=  SLA  PW   GGX  GGC
                           (   1   4   2   2   0   0   0)

     celldm(1)=  12.230000  celldm(2)=   0.000000  celldm(3)=   0.000000
     celldm(4)=   0.000000  celldm(5)=   0.000000  celldm(6)=   0.000000

     crystal axes: (cart. coord. in units of alat)
               a(1) = (  -0.500000   0.000000   0.500000 )  
               a(2) = (   0.000000   0.500000   0.500000 )  
               a(3) = (  -0.500000   0.500000   0.000000 )  

     reciprocal axes: (cart. coord. in units 2 pi/alat)
               b(1) = ( -1.000000 -1.000000  1.000000 )  
               b(2) = (  1.000000  1.000000  1.000000 )  
               b(3) = ( -1.000000  1.000000 -1.000000 )  


     PseudoPot. # 1 for Sn read from file:
     ./Sn.pw91-n-van.UPF
     MD5 check sum: a38d2a872edd1a4efd76c0a1a38f7031
     Pseudo is Ultrasoft + core correction, Zval = 14.0
     Generated by new atomic code, or converted to UPF format
     Using radial grid of  891 points,  6 beta functions with: 
                l(1) =   0
                l(2) =   0
                l(3) =   1
                l(4) =   1
                l(5) =   2
                l(6) =   2
     Q(r) pseudized with  8 coefficients,  rinner =    1.100   1.100   1.100
                                                       1.100   1.100

     atomic species   valence    mass     pseudopotential
     Sn               14.00   118.70000     Sn( 1.00)

     48 Sym. Ops., with inversion, found (24 have fractional translation)



   Cartesian axes

     site n.     atom                  positions (alat units)
         1        Sn     tau(   1) = (   0.0000000   0.0000000   0.0000000  )
         2        Sn     tau(   2) = (   0.2500000   0.2500000   0.2500000  )

     number of k points=     8
                       cart. coord. in units 2pi/alat
        k(    1) = (   0.0000000   0.0000000   0.0000000), wk =   0.0312500
        k(    2) = (  -0.2500000   0.2500000  -0.2500000), wk =   0.2500000
        k(    3) = (   0.5000000  -0.5000000   0.5000000), wk =   0.1250000
        k(    4) = (   0.0000000   0.5000000   0.0000000), wk =   0.1875000
        k(    5) = (   0.7500000  -0.2500000   0.7500000), wk =   0.7500000
        k(    6) = (   0.5000000   0.0000000   0.5000000), wk =   0.3750000
        k(    7) = (   0.0000000  -1.0000000   0.0000000), wk =   0.0937500
        k(    8) = (  -0.5000000  -1.0000000   0.0000000), wk =   0.1875000

     Dense  grid:    60039 G-vectors     FFT dimensions: (  60,  60,  60)

     Estimated max dynamical RAM per process >       5.89 MB

     Estimated total dynamical RAM >     651.35 MB

     Initial potential from superposition of free atoms

     starting charge      27.9964, renormalised to      28.0000
     Starting wfcs are   18 randomized atomic wfcs

     total cpu time spent up to now is        0.9 secs

     per-process dynamical memory:    12.3 Mb

     Self-consistent Calculation

     iteration #  1     ecut=    98.00 Ry     beta= 0.70
     Davidson diagonalization with overlap
     ethr =  1.00E-02,  avg # of iterations =  1.6

     Threshold (ethr) on eigenvalues was too large:
     Diagonalizing with lowered threshold

     Davidson diagonalization with overlap
     ethr =  8.29E-05,  avg # of iterations =  2.1

     total cpu time spent up to now is        1.0 secs

     total energy              =    -325.61467975 Ry
     estimated scf accuracy    <       0.02866723 Ry

     iteration #  2     ecut=    98.00 Ry     beta= 0.70
     Davidson diagonalization with overlap
     ethr =  1.02E-04,  avg # of iterations =  1.0

     negative rho (up, down):  1.016E-05 0.000E+00

     total cpu time spent up to now is        1.0 secs

     total energy              =    -325.61568901 Ry
     estimated scf accuracy    <       0.00161704 Ry

     iteration #  3     ecut=    98.00 Ry     beta= 0.70
     Davidson diagonalization with overlap
     ethr =  5.78E-06,  avg # of iterations =  2.1

     negative rho (up, down):  1.416E-05 0.000E+00

     total cpu time spent up to now is        1.1 secs

     total energy              =    -325.61582570 Ry
     estimated scf accuracy    <       0.00003882 Ry

     iteration #  4     ecut=    98.00 Ry     beta= 0.70
     Davidson diagonalization with overlap
     ethr =  1.39E-07,  avg # of iterations =  3.5

     negative rho (up, down):  1.665E-05 0.000E+00

     total cpu time spent up to now is        1.1 secs

     total energy              =    -325.61583778 Ry
     estimated scf accuracy    <       0.00000331 Ry

     iteration #  5     ecut=    98.00 Ry     beta= 0.70
     Davidson diagonalization with overlap
     ethr =  1.18E-08,  avg # of iterations =  3.4

     negative rho (up, down):  1.644E-05 0.000E+00

     total cpu time spent up to now is        1.2 secs

     total energy              =    -325.61583846 Ry
     estimated scf accuracy    <       0.00000032 Ry

     iteration #  6     ecut=    98.00 Ry     beta= 0.70
     Davidson diagonalization with overlap
     ethr =  1.16E-09,  avg # of iterations =  2.4

     negative rho (up, down):  1.654E-05 0.000E+00

     total cpu time spent up to now is        1.2 secs

     End of self-consistent calculation

          k = 0.0000 0.0000 0.0000 (  7583 PWs)   bands (ev):

   -13.7068 -13.7068 -13.7068 -13.6472 -13.6472 -13.3300 -13.3300 -13.3300
   -13.3209 -13.3209  -2.7005   7.3359   8.0636   8.0636

          k =-0.2500 0.2500-0.2500 (  7507 PWs)   bands (ev):

   -13.7330 -13.7330 -13.6936 -13.6065 -13.6065 -13.3754 -13.3754 -13.3469
   -13.2840 -13.2840  -2.1085   3.9183   7.3005   7.3005

          k = 0.5000-0.5000 0.5000 (  7498 PWs)   bands (ev):

   -13.7438 -13.7438 -13.6796 -13.5852 -13.5852 -13.3915 -13.3915 -13.3646
   -13.2723 -13.2723  -1.0621   1.6350   6.8433   6.8433

          k = 0.0000 0.5000 0.0000 (  7523 PWs)   bands (ev):

   -13.7350 -13.7350 -13.7107 -13.5985 -13.5489 -13.4625 -13.3678 -13.2996
   -13.2888 -13.2888  -1.8915   3.8042   6.3563   6.3563

          k = 0.7500-0.2500 0.7500 (  7507 PWs)   bands (ev):

   -13.7737 -13.7532 -13.6468 -13.5477 -13.5187 -13.4905 -13.4227 -13.3742
   -13.2604 -13.2392  -0.7142   1.6732   5.0198   6.0392

          k = 0.5000 0.0000 0.5000 (  7486 PWs)   bands (ev):

   -13.7671 -13.7552 -13.6408 -13.5823 -13.5446 -13.4367 -13.4059 -13.3913
   -13.2565 -13.2496  -1.2015   2.3656   4.9303   6.7746

          k = 0.0000-1.0000 0.0000 (  7488 PWs)   bands (ev):

   -13.7591 -13.7591 -13.6224 -13.6224 -13.4822 -13.4822 -13.3970 -13.3970
   -13.2513 -13.2513   0.4179   0.4179   5.4847   5.4847

          k =-0.5000-1.0000 0.0000 (  7520 PWs)   bands (ev):

   -13.7772 -13.7772 -13.5635 -13.5635 -13.4915 -13.4915 -13.4462 -13.4462
   -13.2337 -13.2337   0.4782   0.4782   4.9004   4.9004

     highest occupied level (ev):     8.0636

!    total energy              =    -325.61583851 Ry
     estimated scf accuracy    <       0.00000004 Ry

     The total energy is the sum of the following terms:
     one-electron contribution =    -150.97489554 Ry
     hartree contribution      =      93.25085422 Ry
     xc contribution           =     -95.23236683 Ry
     ewald contribution        =    -172.65943036 Ry

     convergence has been achieved in   6 iterations

     Writing all to output data dir ./alpha-sn-scf/alphatin.save/ :
     XML data file, charge density, pseudopotentials, collected wavefunctions

     init_run     :      0.53s CPU      0.58s WALL (       1 calls)
     electrons    :      0.32s CPU      0.38s WALL (       1 calls)

     Called by init_run:
     wfcinit      :      0.01s CPU      0.02s WALL (       1 calls)
     potinit      :      0.03s CPU      0.03s WALL (       1 calls)
     hinit0       :      0.46s CPU      0.46s WALL (       1 calls)

     Called by electrons:
     c_bands      :      0.14s CPU      0.15s WALL (       7 calls)
     sum_band     :      0.06s CPU      0.08s WALL (       7 calls)
     v_of_rho     :      0.08s CPU      0.08s WALL (       7 calls)
     newd         :      0.02s CPU      0.03s WALL (       7 calls)
     mix_rho      :      0.01s CPU      0.01s WALL (       7 calls)

     Called by c_bands:
     init_us_2    :      0.00s CPU      0.00s WALL (      15 calls)
     cegterg      :      0.12s CPU      0.13s WALL (       7 calls)

     Called by *egterg:
     cdiaghg      :      0.01s CPU      0.01s WALL (      28 calls)
     h_psi        :      0.11s CPU      0.12s WALL (      30 calls)
     s_psi        :      0.00s CPU      0.00s WALL (      30 calls)
     g_psi        :      0.00s CPU      0.00s WALL (      22 calls)

     Called by h_psi:
     h_psi:calbec :      0.00s CPU      0.01s WALL (      30 calls)
     vloc_psi     :      0.10s CPU      0.11s WALL (      30 calls)
     add_vuspsi   :      0.00s CPU      0.00s WALL (      30 calls)

     General routines
     calbec       :      0.01s CPU      0.01s WALL (      37 calls)
     fft          :      0.44s CPU      0.44s WALL (      78 calls)
     ffts         :      0.00s CPU      0.00s WALL (       7 calls)
     fftw         :      0.11s CPU      0.12s WALL (     618 calls)

     Parallel routines

     PWSCF        :      1.07s CPU      1.35s WALL


   This run was terminated on:  15:53:54   5Feb2026            

=------------------------------------------------------------------------------=
   JOB DONE.
=------------------------------------------------------------------------------=
