
     Program PWSCF v.7.3.1 starts on 25Feb2026 at 23:59:22 

     This program is part of the open-source Quantum ESPRESSO suite
     for quantum simulation of materials; please cite
         "P. Giannozzi et al., J. Phys.:Condens. Matter 21 395502 (2009);
         "P. Giannozzi et al., J. Phys.:Condens. Matter 29 465901 (2017);
         "P. Giannozzi et al., J. Chem. Phys. 152 154105 (2020);
          URL http://www.quantum-espresso.org", 
     in publications or presentations arising from this work. More details at
     http://www.quantum-espresso.org/quote

     Parallel version (MPI), running on   128 processors

     MPI processes distributed on     1 nodes
     233094 MiB available memory on the printing compute node when the environment starts

     Waiting for input...
     Reading input from standard input

     Current dimensions of program PWSCF are:
     Max number of different atomic species (ntypx) = 10
     Max number of k-points (npk) =  40000
     Max angular momentum in pseudopotentials (lmaxx) =  4

     K-points division:     npool     =       4
     R & G space division:  proc/nbgrp/npool/nimage =      32
     Subspace diagonalization in iterative solution of the eigenvalue problem:
     a serial algorithm will be used


     Parallelization info
     --------------------
     sticks:   dense  smooth     PW     G-vecs:    dense   smooth      PW
     Min         256     256     73                11099    11099    1684
     Max         257     257     74                11102    11102    1685
     Sum        8219    8219   2345               355237   355237   53895

     Using Slab Decomposition



     bravais-lattice index     =            7
     lattice parameter (alat)  =      11.0641  a.u.
     unit-cell volume          =     369.4794 (a.u.)^3
     number of atoms/cell      =            2
     number of atomic types    =            1
     number of electrons       =        28.00
     number of Kohn-Sham states=           18
     kinetic-energy cutoff     =     370.0000  Ry
     charge density cutoff     =    1480.0000  Ry
     scf convergence threshold =      1.0E-07
     mixing beta               =       0.7000
     number of iterations used =            8  plain     mixing
     Exchange-correlation=  SLA  PW   GGX  GGC
                           (   1   4   2   2   0   0   0)

     celldm(1)=  11.064080  celldm(2)=   0.000000  celldm(3)=   0.545600
     celldm(4)=   0.000000  celldm(5)=   0.000000  celldm(6)=   0.000000

     crystal axes: (cart. coord. in units of alat)
               a(1) = (   0.500000  -0.500000   0.272800 )  
               a(2) = (   0.500000   0.500000   0.272800 )  
               a(3) = (  -0.500000  -0.500000   0.272800 )  

     reciprocal axes: (cart. coord. in units 2 pi/alat)
               b(1) = (  1.000000 -1.000000  0.000000 )  
               b(2) = (  0.000000  1.000000  1.832845 )  
               b(3) = ( -1.000000  0.000000  1.832845 )  


     PseudoPot. # 1 for Sn read from file:
     ./Sn.pw91-n-van.UPF
     MD5 check sum: a38d2a872edd1a4efd76c0a1a38f7031
     Pseudo is Ultrasoft + core correction, Zval = 14.0
     Generated by new atomic code, or converted to UPF format
     Using radial grid of  891 points,  6 beta functions with: 
                l(1) =   0
                l(2) =   0
                l(3) =   1
                l(4) =   1
                l(5) =   2
                l(6) =   2
     Q(r) pseudized with  8 coefficients,  rinner =    1.100   1.100   1.100
                                                       1.100   1.100

     atomic species   valence    mass     pseudopotential
     Sn               14.00   118.70000     Sn( 1.00)

     16 Sym. Ops., with inversion, found (12 have fractional translation)



   Cartesian axes

     site n.     atom                  positions (alat units)
         1        Sn     tau(   1) = (   0.0000000  -0.2500000   0.0682000  )
         2        Sn     tau(   2) = (   0.0000000   0.2500000  -0.0682000  )

     number of k points=   244  Gaussian smearing, width (Ry)=  0.0400

     Number of k-points >= 100: set verbosity='high' to print them.

     Dense  grid:   355237 G-vectors     FFT dimensions: ( 108, 108, 108)

     Estimated max dynamical RAM per process >      43.37 MB

     Estimated total dynamical RAM >       5.17 GB

     Initial potential from superposition of free atoms

     starting charge      27.9964, renormalised to      28.0000
     Starting wfcs are   18 randomized atomic wfcs

     total cpu time spent up to now is        3.4 secs

     per-process dynamical memory:    44.3 Mb

     Self-consistent Calculation

     iteration #  1     ecut=   370.00 Ry     beta= 0.70
     Davidson diagonalization with overlap
     ethr =  1.00E-02,  avg # of iterations =  4.4

     Threshold (ethr) on eigenvalues was too large:
     Diagonalizing with lowered threshold

     Davidson diagonalization with overlap
     ethr =  1.06E-04,  avg # of iterations =  2.6

     total cpu time spent up to now is       17.7 secs

     total energy              =    -325.49746367 Ry
     estimated scf accuracy    <       0.03089641 Ry

     iteration #  2     ecut=   370.00 Ry     beta= 0.70
     Davidson diagonalization with overlap
     ethr =  1.10E-04,  avg # of iterations =  4.5

     total cpu time spent up to now is       26.8 secs

     total energy              =    -325.61763183 Ry
     estimated scf accuracy    <       0.02452981 Ry

     iteration #  3     ecut=   370.00 Ry     beta= 0.70
     Davidson diagonalization with overlap
     ethr =  8.76E-05,  avg # of iterations =  1.7

     total cpu time spent up to now is       32.6 secs

     total energy              =    -325.64140126 Ry
     estimated scf accuracy    <       0.00548604 Ry

     iteration #  4     ecut=   370.00 Ry     beta= 0.70
     Davidson diagonalization with overlap
     ethr =  1.96E-05,  avg # of iterations =  2.1

     total cpu time spent up to now is       38.8 secs

     total energy              =    -325.65214589 Ry
     estimated scf accuracy    <       0.00111429 Ry

     iteration #  5     ecut=   370.00 Ry     beta= 0.70
     Davidson diagonalization with overlap
     ethr =  3.98E-06,  avg # of iterations =  2.4

     total cpu time spent up to now is       45.5 secs

     total energy              =    -325.65234403 Ry
     estimated scf accuracy    <       0.00001375 Ry

     iteration #  6     ecut=   370.00 Ry     beta= 0.70
     Davidson diagonalization with overlap
     ethr =  4.91E-08,  avg # of iterations =  2.0

     total cpu time spent up to now is       51.4 secs

     total energy              =    -325.65234612 Ry
     estimated scf accuracy    <       0.00000081 Ry

     iteration #  7     ecut=   370.00 Ry     beta= 0.70
     Davidson diagonalization with overlap
     ethr =  2.88E-09,  avg # of iterations =  2.0

     total cpu time spent up to now is       57.6 secs

     End of self-consistent calculation

     Number of k-points >= 100: set verbosity='high' to print the bands.

     the Fermi energy is    10.6169 ev

!    total energy              =    -325.65234622 Ry
     estimated scf accuracy    <       0.00000002 Ry
     smearing contrib. (-TS)   =      -0.01075116 Ry
     internal energy E=F+TS    =    -325.64159506 Ry

     The total energy is F=E-TS. E is the sum of the following terms:
     one-electron contribution =    -108.56525948 Ry
     hartree contribution      =      74.85169636 Ry
     xc contribution           =     -95.19964230 Ry
     ewald contribution        =    -196.72838964 Ry

     convergence has been achieved in   7 iterations

     Writing all to output data dir ./beta-EOS/beta.save/ :
     XML data file, charge density, pseudopotentials, collected wavefunctions

     init_run     :      3.06s CPU      3.16s WALL (       1 calls)
     electrons    :     53.25s CPU     54.26s WALL (       1 calls)

     Called by init_run:
     wfcinit      :      2.13s CPU      2.17s WALL (       1 calls)
     potinit      :      0.06s CPU      0.09s WALL (       1 calls)
     hinit0       :      0.50s CPU      0.51s WALL (       1 calls)

     Called by electrons:
     c_bands      :     44.55s CPU     45.29s WALL (       8 calls)
     sum_band     :      8.13s CPU      8.24s WALL (       8 calls)
     v_of_rho     :      0.38s CPU      0.43s WALL (       8 calls)
     newd         :      0.15s CPU      0.17s WALL (       8 calls)
     mix_rho      :      0.04s CPU      0.04s WALL (       8 calls)

     Called by c_bands:
     init_us_2    :      0.71s CPU      0.73s WALL (    1037 calls)
     cegterg      :     41.73s CPU     42.18s WALL (     488 calls)

     Called by *egterg:
     cdiaghg      :      1.02s CPU      1.03s WALL (    1786 calls)
     h_psi        :     38.85s CPU     39.28s WALL (    1908 calls)
     s_psi        :      0.51s CPU      0.51s WALL (    1908 calls)
     g_psi        :      0.08s CPU      0.08s WALL (    1359 calls)

     Called by h_psi:
     h_psi:calbec :      1.15s CPU      1.16s WALL (    1908 calls)
     vloc_psi     :     36.91s CPU     37.33s WALL (    1908 calls)
     add_vuspsi   :      0.55s CPU      0.56s WALL (    1908 calls)

     General routines
     calbec       :      1.36s CPU      1.38s WALL (    2396 calls)
     fft          :      0.67s CPU      0.71s WALL (      89 calls)
     ffts         :      0.03s CPU      0.03s WALL (       8 calls)
     fftw         :     39.33s CPU     39.76s WALL (   54132 calls)

     Parallel routines

     PWSCF        :     57.46s CPU   1m 3.91s WALL


   This run was terminated on:   0: 0:26  26Feb2026            

=------------------------------------------------------------------------------=
   JOB DONE.
=------------------------------------------------------------------------------=
