
     Program PWSCF v.7.3.1 starts on 25Feb2026 at 20: 9:58 

     This program is part of the open-source Quantum ESPRESSO suite
     for quantum simulation of materials; please cite
         "P. Giannozzi et al., J. Phys.:Condens. Matter 21 395502 (2009);
         "P. Giannozzi et al., J. Phys.:Condens. Matter 29 465901 (2017);
         "P. Giannozzi et al., J. Chem. Phys. 152 154105 (2020);
          URL http://www.quantum-espresso.org", 
     in publications or presentations arising from this work. More details at
     http://www.quantum-espresso.org/quote

     Parallel version (MPI), running on   128 processors

     MPI processes distributed on     1 nodes
     234242 MiB available memory on the printing compute node when the environment starts

     Waiting for input...
     Reading input from standard input

     Current dimensions of program PWSCF are:
     Max number of different atomic species (ntypx) = 10
     Max number of k-points (npk) =  40000
     Max angular momentum in pseudopotentials (lmaxx) =  4

     K-points division:     npool     =       4
     R & G space division:  proc/nbgrp/npool/nimage =      32
     Subspace diagonalization in iterative solution of the eigenvalue problem:
     a serial algorithm will be used


     Parallelization info
     --------------------
     sticks:   dense  smooth     PW     G-vecs:    dense   smooth      PW
     Min         262     262     74                11499    11499    1742
     Max         263     263     75                11501    11501    1745
     Sum        8387    8387   2389               367997   367997   55775

     Using Slab Decomposition



     bravais-lattice index     =            7
     lattice parameter (alat)  =      11.1963  a.u.
     unit-cell volume          =     382.8867 (a.u.)^3
     number of atoms/cell      =            2
     number of atomic types    =            1
     number of electrons       =        28.00
     number of Kohn-Sham states=           14
     kinetic-energy cutoff     =     370.0000  Ry
     charge density cutoff     =    1480.0000  Ry
     scf convergence threshold =      1.0E-07
     mixing beta               =       0.7000
     number of iterations used =            8  plain     mixing
     Exchange-correlation=  SLA  PW   GGX  GGC
                           (   1   4   2   2   0   0   0)

     celldm(1)=  11.196320  celldm(2)=   0.000000  celldm(3)=   0.545600
     celldm(4)=   0.000000  celldm(5)=   0.000000  celldm(6)=   0.000000

     crystal axes: (cart. coord. in units of alat)
               a(1) = (   0.500000  -0.500000   0.272800 )  
               a(2) = (   0.500000   0.500000   0.272800 )  
               a(3) = (  -0.500000  -0.500000   0.272800 )  

     reciprocal axes: (cart. coord. in units 2 pi/alat)
               b(1) = (  1.000000 -1.000000  0.000000 )  
               b(2) = (  0.000000  1.000000  1.832845 )  
               b(3) = ( -1.000000  0.000000  1.832845 )  


     PseudoPot. # 1 for Sn read from file:
     ./Sn.pw91-n-van.UPF
     MD5 check sum: a38d2a872edd1a4efd76c0a1a38f7031
     Pseudo is Ultrasoft + core correction, Zval = 14.0
     Generated by new atomic code, or converted to UPF format
     Using radial grid of  891 points,  6 beta functions with: 
                l(1) =   0
                l(2) =   0
                l(3) =   1
                l(4) =   1
                l(5) =   2
                l(6) =   2
     Q(r) pseudized with  8 coefficients,  rinner =    1.100   1.100   1.100
                                                       1.100   1.100

     atomic species   valence    mass     pseudopotential
     Sn               14.00   118.70000     Sn( 1.00)

     16 Sym. Ops., with inversion, found (12 have fractional translation)



   Cartesian axes

     site n.     atom                  positions (alat units)
         1        Sn     tau(   1) = (   0.0000000  -0.2500000   0.0682000  )
         2        Sn     tau(   2) = (   0.0000000   0.2500000  -0.0682000  )

     number of k points=   244

     Number of k-points >= 100: set verbosity='high' to print them.

     Dense  grid:   367997 G-vectors     FFT dimensions: ( 108, 108, 108)

     Estimated max dynamical RAM per process >      39.29 MB

     Estimated total dynamical RAM >       4.65 GB

     Initial potential from superposition of free atoms

     starting charge      27.9964, renormalised to      28.0000
     Starting wfcs are   18 randomized atomic wfcs

     total cpu time spent up to now is        3.5 secs

     per-process dynamical memory:    39.6 Mb

     Self-consistent Calculation

     iteration #  1     ecut=   370.00 Ry     beta= 0.70
     Davidson diagonalization with overlap
     ethr =  1.00E-02,  avg # of iterations =  3.0

     Threshold (ethr) on eigenvalues was too large:
     Diagonalizing with lowered threshold

     Davidson diagonalization with overlap
     ethr =  8.87E-05,  avg # of iterations =  4.4

     total cpu time spent up to now is       14.8 secs

     total energy              =    -325.44458735 Ry
     estimated scf accuracy    <       0.03048022 Ry

     iteration #  2     ecut=   370.00 Ry     beta= 0.70
     Davidson diagonalization with overlap
     ethr =  1.09E-04,  avg # of iterations =  4.8

     total cpu time spent up to now is       22.2 secs

     total energy              =    -325.56476830 Ry
     estimated scf accuracy    <       0.02529309 Ry

     iteration #  3     ecut=   370.00 Ry     beta= 0.70
     Davidson diagonalization with overlap
     ethr =  9.03E-05,  avg # of iterations =  2.0

     total cpu time spent up to now is       27.1 secs

     total energy              =    -325.58913261 Ry
     estimated scf accuracy    <       0.00573842 Ry

     iteration #  4     ecut=   370.00 Ry     beta= 0.70
     Davidson diagonalization with overlap
     ethr =  2.05E-05,  avg # of iterations =  2.1

     total cpu time spent up to now is       32.1 secs

     total energy              =    -325.60158563 Ry
     estimated scf accuracy    <       0.00125527 Ry

     iteration #  5     ecut=   370.00 Ry     beta= 0.70
     Davidson diagonalization with overlap
     ethr =  4.48E-06,  avg # of iterations =  2.8

     total cpu time spent up to now is       37.4 secs

     total energy              =    -325.60184451 Ry
     estimated scf accuracy    <       0.00000941 Ry

     iteration #  6     ecut=   370.00 Ry     beta= 0.70
     Davidson diagonalization with overlap
     ethr =  3.36E-08,  avg # of iterations =  4.4

     total cpu time spent up to now is       43.4 secs

     total energy              =    -325.60185641 Ry
     estimated scf accuracy    <       0.00000076 Ry

     iteration #  7     ecut=   370.00 Ry     beta= 0.70
     Davidson diagonalization with overlap
     ethr =  2.71E-09,  avg # of iterations =  2.5

     total cpu time spent up to now is       49.7 secs

     End of self-consistent calculation

     Number of k-points >= 100: set verbosity='high' to print the bands.

     highest occupied level (ev):    11.4491

!    total energy              =    -325.60185656 Ry
     estimated scf accuracy    <       0.00000009 Ry

     The total energy is the sum of the following terms:
     one-electron contribution =    -112.25753408 Ry
     hartree contribution      =      76.22877654 Ry
     xc contribution           =     -95.16827304 Ry
     ewald contribution        =    -194.40482598 Ry

     convergence has been achieved in   7 iterations

     Writing all to output data dir ./beta-EOS/beta.save/ :
     XML data file, charge density, pseudopotentials, collected wavefunctions

     init_run     :      3.15s CPU      3.27s WALL (       1 calls)
     electrons    :     45.41s CPU     46.21s WALL (       1 calls)

     Called by init_run:
     wfcinit      :      2.19s CPU      2.23s WALL (       1 calls)
     potinit      :      0.07s CPU      0.09s WALL (       1 calls)
     hinit0       :      0.52s CPU      0.54s WALL (       1 calls)

     Called by electrons:
     c_bands      :     38.32s CPU     38.91s WALL (       8 calls)
     sum_band     :      6.53s CPU      6.61s WALL (       8 calls)
     v_of_rho     :      0.38s CPU      0.42s WALL (       8 calls)
     newd         :      0.16s CPU      0.17s WALL (       8 calls)
     mix_rho      :      0.04s CPU      0.04s WALL (       8 calls)

     Called by c_bands:
     init_us_2    :      0.71s CPU      0.74s WALL (    1037 calls)
     cegterg      :     35.56s CPU     35.91s WALL (     488 calls)

     Called by *egterg:
     cdiaghg      :      0.80s CPU      0.82s WALL (    2143 calls)
     h_psi        :     33.43s CPU     33.75s WALL (    2265 calls)
     s_psi        :      0.51s CPU      0.51s WALL (    2265 calls)
     g_psi        :      0.07s CPU      0.07s WALL (    1716 calls)

     Called by h_psi:
     h_psi:calbec :      1.12s CPU      1.14s WALL (    2265 calls)
     vloc_psi     :     31.57s CPU     31.86s WALL (    2265 calls)
     add_vuspsi   :      0.57s CPU      0.58s WALL (    2265 calls)

     General routines
     calbec       :      1.31s CPU      1.33s WALL (    2753 calls)
     fft          :      0.66s CPU      0.70s WALL (      89 calls)
     ffts         :      0.02s CPU      0.03s WALL (       8 calls)
     fftw         :     33.26s CPU     33.57s WALL (   45042 calls)

     Parallel routines

     PWSCF        :     49.54s CPU     53.98s WALL


   This run was terminated on:  20:10:52  25Feb2026            

=------------------------------------------------------------------------------=
   JOB DONE.
=------------------------------------------------------------------------------=
