
     Program PWSCF v.7.3.1 starts on 26Feb2026 at  0: 8:37 

     This program is part of the open-source Quantum ESPRESSO suite
     for quantum simulation of materials; please cite
         "P. Giannozzi et al., J. Phys.:Condens. Matter 21 395502 (2009);
         "P. Giannozzi et al., J. Phys.:Condens. Matter 29 465901 (2017);
         "P. Giannozzi et al., J. Chem. Phys. 152 154105 (2020);
          URL http://www.quantum-espresso.org", 
     in publications or presentations arising from this work. More details at
     http://www.quantum-espresso.org/quote

     Parallel version (MPI), running on   128 processors

     MPI processes distributed on     1 nodes
     232855 MiB available memory on the printing compute node when the environment starts

     Waiting for input...
     Reading input from standard input

     Current dimensions of program PWSCF are:
     Max number of different atomic species (ntypx) = 10
     Max number of k-points (npk) =  40000
     Max angular momentum in pseudopotentials (lmaxx) =  4

     K-points division:     npool     =       4
     R & G space division:  proc/nbgrp/npool/nimage =      32
     Subspace diagonalization in iterative solution of the eigenvalue problem:
     a serial algorithm will be used


     Parallelization info
     --------------------
     sticks:   dense  smooth     PW     G-vecs:    dense   smooth      PW
     Min         265     265     74                11644    11644    1756
     Max         266     266     75                11645    11645    1760
     Sum        8491    8491   2393               372613   372613   56265

     Using Slab Decomposition



     bravais-lattice index     =            7
     lattice parameter (alat)  =      11.2404  a.u.
     unit-cell volume          =     387.4268 (a.u.)^3
     number of atoms/cell      =            2
     number of atomic types    =            1
     number of electrons       =        28.00
     number of Kohn-Sham states=           18
     kinetic-energy cutoff     =     370.0000  Ry
     charge density cutoff     =    1480.0000  Ry
     scf convergence threshold =      1.0E-07
     mixing beta               =       0.7000
     number of iterations used =            8  plain     mixing
     Exchange-correlation=  SLA  PW   GGX  GGC
                           (   1   4   2   2   0   0   0)

     celldm(1)=  11.240400  celldm(2)=   0.000000  celldm(3)=   0.545600
     celldm(4)=   0.000000  celldm(5)=   0.000000  celldm(6)=   0.000000

     crystal axes: (cart. coord. in units of alat)
               a(1) = (   0.500000  -0.500000   0.272800 )  
               a(2) = (   0.500000   0.500000   0.272800 )  
               a(3) = (  -0.500000  -0.500000   0.272800 )  

     reciprocal axes: (cart. coord. in units 2 pi/alat)
               b(1) = (  1.000000 -1.000000  0.000000 )  
               b(2) = (  0.000000  1.000000  1.832845 )  
               b(3) = ( -1.000000  0.000000  1.832845 )  


     PseudoPot. # 1 for Sn read from file:
     ./Sn.pw91-n-van.UPF
     MD5 check sum: a38d2a872edd1a4efd76c0a1a38f7031
     Pseudo is Ultrasoft + core correction, Zval = 14.0
     Generated by new atomic code, or converted to UPF format
     Using radial grid of  891 points,  6 beta functions with: 
                l(1) =   0
                l(2) =   0
                l(3) =   1
                l(4) =   1
                l(5) =   2
                l(6) =   2
     Q(r) pseudized with  8 coefficients,  rinner =    1.100   1.100   1.100
                                                       1.100   1.100

     atomic species   valence    mass     pseudopotential
     Sn               14.00   118.70000     Sn( 1.00)

     16 Sym. Ops., with inversion, found (12 have fractional translation)



   Cartesian axes

     site n.     atom                  positions (alat units)
         1        Sn     tau(   1) = (   0.0000000  -0.2500000   0.0682000  )
         2        Sn     tau(   2) = (   0.0000000   0.2500000  -0.0682000  )

     number of k points=   244  Gaussian smearing, width (Ry)=  0.0400

     Number of k-points >= 100: set verbosity='high' to print them.

     Dense  grid:   372613 G-vectors     FFT dimensions: ( 108, 108, 108)

     Estimated max dynamical RAM per process >      45.19 MB

     Estimated total dynamical RAM >       5.38 GB

     Initial potential from superposition of free atoms

     starting charge      27.9964, renormalised to      28.0000
     Starting wfcs are   18 randomized atomic wfcs

     total cpu time spent up to now is        3.5 secs

     per-process dynamical memory:    45.5 Mb

     Self-consistent Calculation

     iteration #  1     ecut=   370.00 Ry     beta= 0.70
     Davidson diagonalization with overlap
     ethr =  1.00E-02,  avg # of iterations =  4.4

     Threshold (ethr) on eigenvalues was too large:
     Diagonalizing with lowered threshold

     Davidson diagonalization with overlap
     ethr =  1.16E-04,  avg # of iterations =  2.6

     total cpu time spent up to now is       18.0 secs

     total energy              =    -325.49118192 Ry
     estimated scf accuracy    <       0.03405292 Ry

     iteration #  2     ecut=   370.00 Ry     beta= 0.70
     Davidson diagonalization with overlap
     ethr =  1.22E-04,  avg # of iterations =  4.3

     total cpu time spent up to now is       27.2 secs

     total energy              =    -325.61631800 Ry
     estimated scf accuracy    <       0.02670555 Ry

     iteration #  3     ecut=   370.00 Ry     beta= 0.70
     Davidson diagonalization with overlap
     ethr =  9.54E-05,  avg # of iterations =  1.8

     total cpu time spent up to now is       33.1 secs

     total energy              =    -325.63914630 Ry
     estimated scf accuracy    <       0.00586559 Ry

     iteration #  4     ecut=   370.00 Ry     beta= 0.70
     Davidson diagonalization with overlap
     ethr =  2.09E-05,  avg # of iterations =  2.1

     total cpu time spent up to now is       39.4 secs

     total energy              =    -325.65322517 Ry
     estimated scf accuracy    <       0.00151670 Ry

     iteration #  5     ecut=   370.00 Ry     beta= 0.70
     Davidson diagonalization with overlap
     ethr =  5.42E-06,  avg # of iterations =  2.4

     total cpu time spent up to now is       46.2 secs

     total energy              =    -325.65351766 Ry
     estimated scf accuracy    <       0.00001635 Ry

     iteration #  6     ecut=   370.00 Ry     beta= 0.70
     Davidson diagonalization with overlap
     ethr =  5.84E-08,  avg # of iterations =  2.1

     total cpu time spent up to now is       52.2 secs

     total energy              =    -325.65352291 Ry
     estimated scf accuracy    <       0.00000083 Ry

     iteration #  7     ecut=   370.00 Ry     beta= 0.70
     Davidson diagonalization with overlap
     ethr =  2.95E-09,  avg # of iterations =  2.0

     total cpu time spent up to now is       58.4 secs

     End of self-consistent calculation

     Number of k-points >= 100: set verbosity='high' to print the bands.

     the Fermi energy is     9.9179 ev

!    total energy              =    -325.65352302 Ry
     estimated scf accuracy    <          1.6E-09 Ry
     smearing contrib. (-TS)   =      -0.01145749 Ry
     internal energy E=F+TS    =    -325.64206553 Ry

     The total energy is F=E-TS. E is the sum of the following terms:
     one-electron contribution =    -113.45625801 Ry
     hartree contribution      =      76.60376419 Ry
     xc contribution           =     -95.14711760 Ry
     ewald contribution        =    -193.64245411 Ry

     convergence has been achieved in   7 iterations

     Writing all to output data dir ./beta-EOS/beta.save/ :
     XML data file, charge density, pseudopotentials, collected wavefunctions

     init_run     :      3.15s CPU      3.26s WALL (       1 calls)
     electrons    :     54.12s CPU     55.00s WALL (       1 calls)

     Called by init_run:
     wfcinit      :      2.20s CPU      2.24s WALL (       1 calls)
     potinit      :      0.08s CPU      0.09s WALL (       1 calls)
     hinit0       :      0.49s CPU      0.51s WALL (       1 calls)

     Called by electrons:
     c_bands      :     45.31s CPU     45.97s WALL (       8 calls)
     sum_band     :      8.23s CPU      8.34s WALL (       8 calls)
     v_of_rho     :      0.40s CPU      0.43s WALL (       8 calls)
     newd         :      0.16s CPU      0.17s WALL (       8 calls)
     mix_rho      :      0.04s CPU      0.04s WALL (       8 calls)

     Called by c_bands:
     init_us_2    :      0.75s CPU      0.78s WALL (    1037 calls)
     cegterg      :     42.54s CPU     42.92s WALL (     488 calls)

     Called by *egterg:
     cdiaghg      :      1.03s CPU      1.04s WALL (    1801 calls)
     h_psi        :     39.48s CPU     39.84s WALL (    1923 calls)
     s_psi        :      0.54s CPU      0.54s WALL (    1923 calls)
     g_psi        :      0.08s CPU      0.08s WALL (    1374 calls)

     Called by h_psi:
     h_psi:calbec :      1.19s CPU      1.21s WALL (    1923 calls)
     vloc_psi     :     37.46s CPU     37.80s WALL (    1923 calls)
     add_vuspsi   :      0.58s CPU      0.59s WALL (    1923 calls)

     General routines
     calbec       :      1.42s CPU      1.44s WALL (    2411 calls)
     fft          :      0.68s CPU      0.71s WALL (      89 calls)
     ffts         :      0.02s CPU      0.03s WALL (       8 calls)
     fftw         :     39.86s CPU     40.22s WALL (   54264 calls)

     Parallel routines

     PWSCF        :     58.35s CPU   1m 4.71s WALL


   This run was terminated on:   0: 9:42  26Feb2026            

=------------------------------------------------------------------------------=
   JOB DONE.
=------------------------------------------------------------------------------=
