
     Program PWSCF v.7.3.1 starts on 25Feb2026 at 20:14: 4 

     This program is part of the open-source Quantum ESPRESSO suite
     for quantum simulation of materials; please cite
         "P. Giannozzi et al., J. Phys.:Condens. Matter 21 395502 (2009);
         "P. Giannozzi et al., J. Phys.:Condens. Matter 29 465901 (2017);
         "P. Giannozzi et al., J. Chem. Phys. 152 154105 (2020);
          URL http://www.quantum-espresso.org", 
     in publications or presentations arising from this work. More details at
     http://www.quantum-espresso.org/quote

     Parallel version (MPI), running on   128 processors

     MPI processes distributed on     1 nodes
     234168 MiB available memory on the printing compute node when the environment starts

     Waiting for input...
     Reading input from standard input

     Current dimensions of program PWSCF are:
     Max number of different atomic species (ntypx) = 10
     Max number of k-points (npk) =  40000
     Max angular momentum in pseudopotentials (lmaxx) =  4

     K-points division:     npool     =       4
     R & G space division:  proc/nbgrp/npool/nimage =      32
     Subspace diagonalization in iterative solution of the eigenvalue problem:
     a serial algorithm will be used


     Parallelization info
     --------------------
     sticks:   dense  smooth     PW     G-vecs:    dense   smooth      PW
     Min         266     266     75                11778    11778    1777
     Max         267     267     76                11780    11780    1780
     Sum        8535    8535   2413               376933   376933   56917

     Using Slab Decomposition



     bravais-lattice index     =            7
     lattice parameter (alat)  =      11.2845  a.u.
     unit-cell volume          =     392.0027 (a.u.)^3
     number of atoms/cell      =            2
     number of atomic types    =            1
     number of electrons       =        28.00
     number of Kohn-Sham states=           14
     kinetic-energy cutoff     =     370.0000  Ry
     charge density cutoff     =    1480.0000  Ry
     scf convergence threshold =      1.0E-07
     mixing beta               =       0.7000
     number of iterations used =            8  plain     mixing
     Exchange-correlation=  SLA  PW   GGX  GGC
                           (   1   4   2   2   0   0   0)

     celldm(1)=  11.284480  celldm(2)=   0.000000  celldm(3)=   0.545600
     celldm(4)=   0.000000  celldm(5)=   0.000000  celldm(6)=   0.000000

     crystal axes: (cart. coord. in units of alat)
               a(1) = (   0.500000  -0.500000   0.272800 )  
               a(2) = (   0.500000   0.500000   0.272800 )  
               a(3) = (  -0.500000  -0.500000   0.272800 )  

     reciprocal axes: (cart. coord. in units 2 pi/alat)
               b(1) = (  1.000000 -1.000000  0.000000 )  
               b(2) = (  0.000000  1.000000  1.832845 )  
               b(3) = ( -1.000000  0.000000  1.832845 )  


     PseudoPot. # 1 for Sn read from file:
     ./Sn.pw91-n-van.UPF
     MD5 check sum: a38d2a872edd1a4efd76c0a1a38f7031
     Pseudo is Ultrasoft + core correction, Zval = 14.0
     Generated by new atomic code, or converted to UPF format
     Using radial grid of  891 points,  6 beta functions with: 
                l(1) =   0
                l(2) =   0
                l(3) =   1
                l(4) =   1
                l(5) =   2
                l(6) =   2
     Q(r) pseudized with  8 coefficients,  rinner =    1.100   1.100   1.100
                                                       1.100   1.100

     atomic species   valence    mass     pseudopotential
     Sn               14.00   118.70000     Sn( 1.00)

     16 Sym. Ops., with inversion, found (12 have fractional translation)



   Cartesian axes

     site n.     atom                  positions (alat units)
         1        Sn     tau(   1) = (   0.0000000  -0.2500000   0.0682000  )
         2        Sn     tau(   2) = (   0.0000000   0.2500000  -0.0682000  )

     number of k points=   244

     Number of k-points >= 100: set verbosity='high' to print them.

     Dense  grid:   376933 G-vectors     FFT dimensions: ( 108, 108, 108)

     Estimated max dynamical RAM per process >      40.07 MB

     Estimated total dynamical RAM >       4.74 GB

     Initial potential from superposition of free atoms

     starting charge      27.9964, renormalised to      28.0000
     Starting wfcs are   18 randomized atomic wfcs

     total cpu time spent up to now is        3.6 secs

     per-process dynamical memory:    40.3 Mb

     Self-consistent Calculation

     iteration #  1     ecut=   370.00 Ry     beta= 0.70
     Davidson diagonalization with overlap
     ethr =  1.00E-02,  avg # of iterations =  3.0

     Threshold (ethr) on eigenvalues was too large:
     Diagonalizing with lowered threshold

     Davidson diagonalization with overlap
     ethr =  9.23E-05,  avg # of iterations =  4.4

     total cpu time spent up to now is       15.0 secs

     total energy              =    -325.44368293 Ry
     estimated scf accuracy    <       0.03141532 Ry

     iteration #  2     ecut=   370.00 Ry     beta= 0.70
     Davidson diagonalization with overlap
     ethr =  1.12E-04,  avg # of iterations =  4.8

     total cpu time spent up to now is       22.5 secs

     total energy              =    -325.56459298 Ry
     estimated scf accuracy    <       0.02589481 Ry

     iteration #  3     ecut=   370.00 Ry     beta= 0.70
     Davidson diagonalization with overlap
     ethr =  9.25E-05,  avg # of iterations =  2.0

     total cpu time spent up to now is       27.4 secs

     total energy              =    -325.58876702 Ry
     estimated scf accuracy    <       0.00583798 Ry

     iteration #  4     ecut=   370.00 Ry     beta= 0.70
     Davidson diagonalization with overlap
     ethr =  2.08E-05,  avg # of iterations =  2.1

     total cpu time spent up to now is       32.4 secs

     total energy              =    -325.60270085 Ry
     estimated scf accuracy    <       0.00138443 Ry

     iteration #  5     ecut=   370.00 Ry     beta= 0.70
     Davidson diagonalization with overlap
     ethr =  4.94E-06,  avg # of iterations =  2.8

     total cpu time spent up to now is       37.8 secs

     total energy              =    -325.60309736 Ry
     estimated scf accuracy    <       0.00000691 Ry

     iteration #  6     ecut=   370.00 Ry     beta= 0.70
     Davidson diagonalization with overlap
     ethr =  2.47E-08,  avg # of iterations =  4.6

     total cpu time spent up to now is       44.0 secs

     total energy              =    -325.60310962 Ry
     estimated scf accuracy    <       0.00000098 Ry

     iteration #  7     ecut=   370.00 Ry     beta= 0.70
     Davidson diagonalization with overlap
     ethr =  3.49E-09,  avg # of iterations =  2.4

     total cpu time spent up to now is       50.0 secs

     End of self-consistent calculation

     Number of k-points >= 100: set verbosity='high' to print the bands.

     highest occupied level (ev):    11.0599

!    total energy              =    -325.60310983 Ry
     estimated scf accuracy    <       0.00000010 Ry

     The total energy is the sum of the following terms:
     one-electron contribution =    -114.67227558 Ry
     hartree contribution      =      77.09806991 Ry
     xc contribution           =     -95.14286588 Ry
     ewald contribution        =    -192.88603828 Ry

     convergence has been achieved in   7 iterations

     Writing all to output data dir ./beta-EOS/beta.save/ :
     XML data file, charge density, pseudopotentials, collected wavefunctions

     init_run     :      3.16s CPU      3.30s WALL (       1 calls)
     electrons    :     45.58s CPU     46.43s WALL (       1 calls)

     Called by init_run:
     wfcinit      :      2.22s CPU      2.26s WALL (       1 calls)
     potinit      :      0.05s CPU      0.09s WALL (       1 calls)
     hinit0       :      0.50s CPU      0.52s WALL (       1 calls)

     Called by electrons:
     c_bands      :     38.44s CPU     39.09s WALL (       8 calls)
     sum_band     :      6.56s CPU      6.65s WALL (       8 calls)
     v_of_rho     :      0.38s CPU      0.43s WALL (       8 calls)
     newd         :      0.15s CPU      0.17s WALL (       8 calls)
     mix_rho      :      0.04s CPU      0.05s WALL (       8 calls)

     Called by c_bands:
     init_us_2    :      0.73s CPU      0.75s WALL (    1037 calls)
     cegterg      :     35.73s CPU     36.11s WALL (     488 calls)

     Called by *egterg:
     cdiaghg      :      0.80s CPU      0.81s WALL (    2132 calls)
     h_psi        :     33.50s CPU     33.85s WALL (    2254 calls)
     s_psi        :      0.51s CPU      0.52s WALL (    2254 calls)
     g_psi        :      0.07s CPU      0.07s WALL (    1705 calls)

     Called by h_psi:
     h_psi:calbec :      1.14s CPU      1.15s WALL (    2254 calls)
     vloc_psi     :     31.62s CPU     31.95s WALL (    2254 calls)
     add_vuspsi   :      0.57s CPU      0.58s WALL (    2254 calls)

     General routines
     calbec       :      1.33s CPU      1.34s WALL (    2742 calls)
     fft          :      0.67s CPU      0.72s WALL (      89 calls)
     ffts         :      0.02s CPU      0.03s WALL (       8 calls)
     fftw         :     33.25s CPU     33.58s WALL (   44828 calls)

     Parallel routines

     PWSCF        :     49.83s CPU     55.82s WALL


   This run was terminated on:  20:14:59  25Feb2026            

=------------------------------------------------------------------------------=
   JOB DONE.
=------------------------------------------------------------------------------=
