
     Program PWSCF v.7.3.1 starts on 25Feb2026 at 20:17:59 

     This program is part of the open-source Quantum ESPRESSO suite
     for quantum simulation of materials; please cite
         "P. Giannozzi et al., J. Phys.:Condens. Matter 21 395502 (2009);
         "P. Giannozzi et al., J. Phys.:Condens. Matter 29 465901 (2017);
         "P. Giannozzi et al., J. Chem. Phys. 152 154105 (2020);
          URL http://www.quantum-espresso.org", 
     in publications or presentations arising from this work. More details at
     http://www.quantum-espresso.org/quote

     Parallel version (MPI), running on   128 processors

     MPI processes distributed on     1 nodes
     234020 MiB available memory on the printing compute node when the environment starts

     Waiting for input...
     Reading input from standard input

     Current dimensions of program PWSCF are:
     Max number of different atomic species (ntypx) = 10
     Max number of k-points (npk) =  40000
     Max angular momentum in pseudopotentials (lmaxx) =  4

     K-points division:     npool     =       4
     R & G space division:  proc/nbgrp/npool/nimage =      32
     Subspace diagonalization in iterative solution of the eigenvalue problem:
     a serial algorithm will be used


     Parallelization info
     --------------------
     sticks:   dense  smooth     PW     G-vecs:    dense   smooth      PW
     Min         270     270     76                12050    12050    1816
     Max         271     271     77                12053    12053    1818
     Sum        8671    8671   2459               385681   385681   58133

     Using Slab Decomposition



     bravais-lattice index     =            7
     lattice parameter (alat)  =      11.3726  a.u.
     unit-cell volume          =     401.2622 (a.u.)^3
     number of atoms/cell      =            2
     number of atomic types    =            1
     number of electrons       =        28.00
     number of Kohn-Sham states=           14
     kinetic-energy cutoff     =     370.0000  Ry
     charge density cutoff     =    1480.0000  Ry
     scf convergence threshold =      1.0E-07
     mixing beta               =       0.7000
     number of iterations used =            8  plain     mixing
     Exchange-correlation=  SLA  PW   GGX  GGC
                           (   1   4   2   2   0   0   0)

     celldm(1)=  11.372640  celldm(2)=   0.000000  celldm(3)=   0.545600
     celldm(4)=   0.000000  celldm(5)=   0.000000  celldm(6)=   0.000000

     crystal axes: (cart. coord. in units of alat)
               a(1) = (   0.500000  -0.500000   0.272800 )  
               a(2) = (   0.500000   0.500000   0.272800 )  
               a(3) = (  -0.500000  -0.500000   0.272800 )  

     reciprocal axes: (cart. coord. in units 2 pi/alat)
               b(1) = (  1.000000 -1.000000  0.000000 )  
               b(2) = (  0.000000  1.000000  1.832845 )  
               b(3) = ( -1.000000  0.000000  1.832845 )  


     PseudoPot. # 1 for Sn read from file:
     ./Sn.pw91-n-van.UPF
     MD5 check sum: a38d2a872edd1a4efd76c0a1a38f7031
     Pseudo is Ultrasoft + core correction, Zval = 14.0
     Generated by new atomic code, or converted to UPF format
     Using radial grid of  891 points,  6 beta functions with: 
                l(1) =   0
                l(2) =   0
                l(3) =   1
                l(4) =   1
                l(5) =   2
                l(6) =   2
     Q(r) pseudized with  8 coefficients,  rinner =    1.100   1.100   1.100
                                                       1.100   1.100

     atomic species   valence    mass     pseudopotential
     Sn               14.00   118.70000     Sn( 1.00)

     16 Sym. Ops., with inversion, found (12 have fractional translation)



   Cartesian axes

     site n.     atom                  positions (alat units)
         1        Sn     tau(   1) = (   0.0000000  -0.2500000   0.0682000  )
         2        Sn     tau(   2) = (   0.0000000   0.2500000  -0.0682000  )

     number of k points=   244

     Number of k-points >= 100: set verbosity='high' to print them.

     Dense  grid:   385681 G-vectors     FFT dimensions: ( 108, 108, 108)

     Estimated max dynamical RAM per process >      40.87 MB

     Estimated total dynamical RAM >       4.83 GB

     Initial potential from superposition of free atoms

     starting charge      27.9964, renormalised to      28.0000
     Starting wfcs are   18 randomized atomic wfcs

     total cpu time spent up to now is        3.6 secs

     per-process dynamical memory:    40.6 Mb

     Self-consistent Calculation

     iteration #  1     ecut=   370.00 Ry     beta= 0.70
     Davidson diagonalization with overlap
     ethr =  1.00E-02,  avg # of iterations =  3.0

     Threshold (ethr) on eigenvalues was too large:
     Diagonalizing with lowered threshold

     Davidson diagonalization with overlap
     ethr =  9.28E-05,  avg # of iterations =  4.4

     total cpu time spent up to now is       15.1 secs

     total energy              =    -325.44710827 Ry
     estimated scf accuracy    <       0.03139265 Ry

     iteration #  2     ecut=   370.00 Ry     beta= 0.70
     Davidson diagonalization with overlap
     ethr =  1.12E-04,  avg # of iterations =  4.7

     total cpu time spent up to now is       22.6 secs

     total energy              =    -325.56439546 Ry
     estimated scf accuracy    <       0.02531223 Ry

     iteration #  3     ecut=   370.00 Ry     beta= 0.70
     Davidson diagonalization with overlap
     ethr =  9.04E-05,  avg # of iterations =  2.0

     total cpu time spent up to now is       27.6 secs

     total energy              =    -325.58852652 Ry
     estimated scf accuracy    <       0.00562598 Ry

     iteration #  4     ecut=   370.00 Ry     beta= 0.70
     Davidson diagonalization with overlap
     ethr =  2.01E-05,  avg # of iterations =  2.1

     total cpu time spent up to now is       32.7 secs

     total energy              =    -325.60334591 Ry
     estimated scf accuracy    <       0.00135724 Ry

     iteration #  5     ecut=   370.00 Ry     beta= 0.70
     Davidson diagonalization with overlap
     ethr =  4.85E-06,  avg # of iterations =  3.0

     total cpu time spent up to now is       38.2 secs

     total energy              =    -325.60366059 Ry
     estimated scf accuracy    <       0.00001612 Ry

     iteration #  6     ecut=   370.00 Ry     beta= 0.70
     Davidson diagonalization with overlap
     ethr =  5.76E-08,  avg # of iterations =  4.2

     total cpu time spent up to now is       44.2 secs

     total energy              =    -325.60368743 Ry
     estimated scf accuracy    <       0.00000040 Ry

     iteration #  7     ecut=   370.00 Ry     beta= 0.70
     Davidson diagonalization with overlap
     ethr =  1.42E-09,  avg # of iterations =  3.5

     total cpu time spent up to now is       51.2 secs

     End of self-consistent calculation

     Number of k-points >= 100: set verbosity='high' to print the bands.

     highest occupied level (ev):    10.7075

!    total energy              =    -325.60368830 Ry
     estimated scf accuracy    <       0.00000004 Ry

     The total energy is the sum of the following terms:
     one-electron contribution =    -117.05436130 Ry
     hartree contribution      =      77.95980325 Ry
     xc contribution           =     -95.11833258 Ry
     ewald contribution        =    -191.39079767 Ry

     convergence has been achieved in   7 iterations

     Writing all to output data dir ./beta-EOS/beta.save/ :
     XML data file, charge density, pseudopotentials, collected wavefunctions

     init_run     :      3.14s CPU      3.27s WALL (       1 calls)
     electrons    :     46.86s CPU     47.71s WALL (       1 calls)

     Called by init_run:
     wfcinit      :      2.18s CPU      2.24s WALL (       1 calls)
     potinit      :      0.06s CPU      0.08s WALL (       1 calls)
     hinit0       :      0.49s CPU      0.51s WALL (       1 calls)

     Called by electrons:
     c_bands      :     39.62s CPU     40.26s WALL (       8 calls)
     sum_band     :      6.65s CPU      6.73s WALL (       8 calls)
     v_of_rho     :      0.40s CPU      0.43s WALL (       8 calls)
     newd         :      0.16s CPU      0.18s WALL (       8 calls)
     mix_rho      :      0.05s CPU      0.05s WALL (       8 calls)

     Called by c_bands:
     init_us_2    :      0.78s CPU      0.79s WALL (    1037 calls)
     cegterg      :     36.47s CPU     36.85s WALL (     488 calls)

     Called by *egterg:
     cdiaghg      :      0.82s CPU      0.83s WALL (    2191 calls)
     h_psi        :     34.01s CPU     34.39s WALL (    2313 calls)
     s_psi        :      0.54s CPU      0.55s WALL (    2313 calls)
     g_psi        :      0.07s CPU      0.08s WALL (    1764 calls)

     Called by h_psi:
     h_psi:calbec :      1.22s CPU      1.23s WALL (    2313 calls)
     vloc_psi     :     32.00s CPU     32.36s WALL (    2313 calls)
     add_vuspsi   :      0.60s CPU      0.61s WALL (    2313 calls)

     General routines
     calbec       :      1.42s CPU      1.44s WALL (    2801 calls)
     fft          :      0.69s CPU      0.71s WALL (      89 calls)
     ffts         :      0.02s CPU      0.03s WALL (       8 calls)
     fftw         :     33.62s CPU     33.96s WALL (   45244 calls)

     Parallel routines

     PWSCF        :     51.03s CPU     55.66s WALL


   This run was terminated on:  20:18:55  25Feb2026            

=------------------------------------------------------------------------------=
   JOB DONE.
=------------------------------------------------------------------------------=
