
     Program PWSCF v.7.3.1 starts on 26Feb2026 at  0:23:57 

     This program is part of the open-source Quantum ESPRESSO suite
     for quantum simulation of materials; please cite
         "P. Giannozzi et al., J. Phys.:Condens. Matter 21 395502 (2009);
         "P. Giannozzi et al., J. Phys.:Condens. Matter 29 465901 (2017);
         "P. Giannozzi et al., J. Chem. Phys. 152 154105 (2020);
          URL http://www.quantum-espresso.org", 
     in publications or presentations arising from this work. More details at
     http://www.quantum-espresso.org/quote

     Parallel version (MPI), running on   128 processors

     MPI processes distributed on     1 nodes
     233612 MiB available memory on the printing compute node when the environment starts

     Waiting for input...
     Reading input from standard input

     Current dimensions of program PWSCF are:
     Max number of different atomic species (ntypx) = 10
     Max number of k-points (npk) =  40000
     Max angular momentum in pseudopotentials (lmaxx) =  4

     K-points division:     npool     =       4
     R & G space division:  proc/nbgrp/npool/nimage =      32
     Subspace diagonalization in iterative solution of the eigenvalue problem:
     a serial algorithm will be used


     Parallelization info
     --------------------
     sticks:   dense  smooth     PW     G-vecs:    dense   smooth      PW
     Min         278     278     79                12559    12559    1893
     Max         279     279     80                12562    12562    1895
     Sum        8927    8927   2531               401935   401935   60589

     Using Slab Decomposition



     bravais-lattice index     =            7
     lattice parameter (alat)  =      11.5269  a.u.
     unit-cell volume          =     417.8152 (a.u.)^3
     number of atoms/cell      =            2
     number of atomic types    =            1
     number of electrons       =        28.00
     number of Kohn-Sham states=           18
     kinetic-energy cutoff     =     370.0000  Ry
     charge density cutoff     =    1480.0000  Ry
     scf convergence threshold =      1.0E-07
     mixing beta               =       0.7000
     number of iterations used =            8  plain     mixing
     Exchange-correlation=  SLA  PW   GGX  GGC
                           (   1   4   2   2   0   0   0)

     celldm(1)=  11.526920  celldm(2)=   0.000000  celldm(3)=   0.545600
     celldm(4)=   0.000000  celldm(5)=   0.000000  celldm(6)=   0.000000

     crystal axes: (cart. coord. in units of alat)
               a(1) = (   0.500000  -0.500000   0.272800 )  
               a(2) = (   0.500000   0.500000   0.272800 )  
               a(3) = (  -0.500000  -0.500000   0.272800 )  

     reciprocal axes: (cart. coord. in units 2 pi/alat)
               b(1) = (  1.000000 -1.000000  0.000000 )  
               b(2) = (  0.000000  1.000000  1.832845 )  
               b(3) = ( -1.000000  0.000000  1.832845 )  


     PseudoPot. # 1 for Sn read from file:
     ./Sn.pw91-n-van.UPF
     MD5 check sum: a38d2a872edd1a4efd76c0a1a38f7031
     Pseudo is Ultrasoft + core correction, Zval = 14.0
     Generated by new atomic code, or converted to UPF format
     Using radial grid of  891 points,  6 beta functions with: 
                l(1) =   0
                l(2) =   0
                l(3) =   1
                l(4) =   1
                l(5) =   2
                l(6) =   2
     Q(r) pseudized with  8 coefficients,  rinner =    1.100   1.100   1.100
                                                       1.100   1.100

     atomic species   valence    mass     pseudopotential
     Sn               14.00   118.70000     Sn( 1.00)

     16 Sym. Ops., with inversion, found (12 have fractional translation)



   Cartesian axes

     site n.     atom                  positions (alat units)
         1        Sn     tau(   1) = (   0.0000000  -0.2500000   0.0682000  )
         2        Sn     tau(   2) = (   0.0000000   0.2500000  -0.0682000  )

     number of k points=   244  Gaussian smearing, width (Ry)=  0.0400

     Number of k-points >= 100: set verbosity='high' to print them.

     Dense  grid:   401935 G-vectors     FFT dimensions: ( 108, 108, 108)

     Estimated max dynamical RAM per process >      48.24 MB

     Estimated total dynamical RAM >       5.74 GB

     Initial potential from superposition of free atoms

     starting charge      27.9964, renormalised to      28.0000
     Starting wfcs are   18 randomized atomic wfcs

     total cpu time spent up to now is        3.7 secs

     per-process dynamical memory:    47.7 Mb

     Self-consistent Calculation

     iteration #  1     ecut=   370.00 Ry     beta= 0.70
     Davidson diagonalization with overlap
     ethr =  1.00E-02,  avg # of iterations =  4.3

     Threshold (ethr) on eigenvalues was too large:
     Diagonalizing with lowered threshold

     Davidson diagonalization with overlap
     ethr =  1.24E-04,  avg # of iterations =  2.6

     total cpu time spent up to now is       18.6 secs

     total energy              =    -325.48831251 Ry
     estimated scf accuracy    <       0.03637068 Ry

     iteration #  2     ecut=   370.00 Ry     beta= 0.70
     Davidson diagonalization with overlap
     ethr =  1.30E-04,  avg # of iterations =  4.2

     total cpu time spent up to now is       28.2 secs

     total energy              =    -325.60913340 Ry
     estimated scf accuracy    <       0.02716042 Ry

     iteration #  3     ecut=   370.00 Ry     beta= 0.70
     Davidson diagonalization with overlap
     ethr =  9.70E-05,  avg # of iterations =  1.9

     total cpu time spent up to now is       34.4 secs

     total energy              =    -325.63185759 Ry
     estimated scf accuracy    <       0.00576115 Ry

     iteration #  4     ecut=   370.00 Ry     beta= 0.70
     Davidson diagonalization with overlap
     ethr =  2.06E-05,  avg # of iterations =  2.3

     total cpu time spent up to now is       41.0 secs

     total energy              =    -325.64956579 Ry
     estimated scf accuracy    <       0.00164177 Ry

     iteration #  5     ecut=   370.00 Ry     beta= 0.70
     Davidson diagonalization with overlap
     ethr =  5.86E-06,  avg # of iterations =  2.6

     total cpu time spent up to now is       48.2 secs

     total energy              =    -325.64995527 Ry
     estimated scf accuracy    <       0.00002416 Ry

     iteration #  6     ecut=   370.00 Ry     beta= 0.70
     Davidson diagonalization with overlap
     ethr =  8.63E-08,  avg # of iterations =  2.1

     total cpu time spent up to now is       54.5 secs

     total energy              =    -325.64996825 Ry
     estimated scf accuracy    <       0.00000155 Ry

     iteration #  7     ecut=   370.00 Ry     beta= 0.70
     Davidson diagonalization with overlap
     ethr =  5.53E-09,  avg # of iterations =  2.0

     total cpu time spent up to now is       61.1 secs

     End of self-consistent calculation

     Number of k-points >= 100: set verbosity='high' to print the bands.

     the Fermi energy is     8.8751 ev

!    total energy              =    -325.64996870 Ry
     estimated scf accuracy    <       0.00000006 Ry
     smearing contrib. (-TS)   =      -0.01269180 Ry
     internal energy E=F+TS    =    -325.63727690 Ry

     The total energy is F=E-TS. E is the sum of the following terms:
     one-electron contribution =    -121.13203426 Ry
     hartree contribution      =      79.39365239 Ry
     xc contribution           =     -95.06973327 Ry
     ewald contribution        =    -188.82916176 Ry

     convergence has been achieved in   7 iterations

     Writing all to output data dir ./beta-EOS/beta.save/ :
     XML data file, charge density, pseudopotentials, collected wavefunctions

     init_run     :      3.23s CPU      3.36s WALL (       1 calls)
     electrons    :     56.73s CPU     57.51s WALL (       1 calls)

     Called by init_run:
     wfcinit      :      2.24s CPU      2.28s WALL (       1 calls)
     potinit      :      0.06s CPU      0.09s WALL (       1 calls)
     hinit0       :      0.49s CPU      0.51s WALL (       1 calls)

     Called by electrons:
     c_bands      :     47.49s CPU     48.10s WALL (       8 calls)
     sum_band     :      8.62s CPU      8.68s WALL (       8 calls)
     v_of_rho     :      0.39s CPU      0.44s WALL (       8 calls)
     newd         :      0.17s CPU      0.19s WALL (       8 calls)
     mix_rho      :      0.05s CPU      0.05s WALL (       8 calls)

     Called by c_bands:
     init_us_2    :      0.84s CPU      0.86s WALL (    1037 calls)
     cegterg      :     44.41s CPU     44.78s WALL (     488 calls)

     Called by *egterg:
     cdiaghg      :      1.04s CPU      1.05s WALL (    1819 calls)
     h_psi        :     40.97s CPU     41.33s WALL (    1941 calls)
     s_psi        :      0.59s CPU      0.60s WALL (    1941 calls)
     g_psi        :      0.09s CPU      0.09s WALL (    1392 calls)

     Called by h_psi:
     h_psi:calbec :      1.34s CPU      1.35s WALL (    1941 calls)
     vloc_psi     :     38.72s CPU     39.07s WALL (    1941 calls)
     add_vuspsi   :      0.63s CPU      0.64s WALL (    1941 calls)

     General routines
     calbec       :      1.59s CPU      1.60s WALL (    2429 calls)
     fft          :      0.68s CPU      0.73s WALL (      89 calls)
     ffts         :      0.02s CPU      0.03s WALL (       8 calls)
     fftw         :     41.16s CPU     41.48s WALL (   54590 calls)

     Parallel routines

     PWSCF        :   1m 1.24s CPU   1m 7.15s WALL


   This run was terminated on:   0:25: 4  26Feb2026            

=------------------------------------------------------------------------------=
   JOB DONE.
=------------------------------------------------------------------------------=
