
     Program PWSCF v.7.3.1 starts on 26Feb2026 at  0:26:21 

     This program is part of the open-source Quantum ESPRESSO suite
     for quantum simulation of materials; please cite
         "P. Giannozzi et al., J. Phys.:Condens. Matter 21 395502 (2009);
         "P. Giannozzi et al., J. Phys.:Condens. Matter 29 465901 (2017);
         "P. Giannozzi et al., J. Chem. Phys. 152 154105 (2020);
          URL http://www.quantum-espresso.org", 
     in publications or presentations arising from this work. More details at
     http://www.quantum-espresso.org/quote

     Parallel version (MPI), running on   128 processors

     MPI processes distributed on     1 nodes
     233941 MiB available memory on the printing compute node when the environment starts

     Waiting for input...
     Reading input from standard input

     Current dimensions of program PWSCF are:
     Max number of different atomic species (ntypx) = 10
     Max number of k-points (npk) =  40000
     Max angular momentum in pseudopotentials (lmaxx) =  4

     K-points division:     npool     =       4
     R & G space division:  proc/nbgrp/npool/nimage =      32
     Subspace diagonalization in iterative solution of the eigenvalue problem:
     a serial algorithm will be used


     Parallelization info
     --------------------
     sticks:   dense  smooth     PW     G-vecs:    dense   smooth      PW
     Min         280     280     79                12698    12698    1911
     Max         281     281     80                12700    12700    1913
     Sum        8975    8975   2539               406363   406363   61181

     Using Slab Decomposition



     bravais-lattice index     =            7
     lattice parameter (alat)  =      11.5710  a.u.
     unit-cell volume          =     422.6268 (a.u.)^3
     number of atoms/cell      =            2
     number of atomic types    =            1
     number of electrons       =        28.00
     number of Kohn-Sham states=           18
     kinetic-energy cutoff     =     370.0000  Ry
     charge density cutoff     =    1480.0000  Ry
     scf convergence threshold =      1.0E-07
     mixing beta               =       0.7000
     number of iterations used =            8  plain     mixing
     Exchange-correlation=  SLA  PW   GGX  GGC
                           (   1   4   2   2   0   0   0)

     celldm(1)=  11.571000  celldm(2)=   0.000000  celldm(3)=   0.545600
     celldm(4)=   0.000000  celldm(5)=   0.000000  celldm(6)=   0.000000

     crystal axes: (cart. coord. in units of alat)
               a(1) = (   0.500000  -0.500000   0.272800 )  
               a(2) = (   0.500000   0.500000   0.272800 )  
               a(3) = (  -0.500000  -0.500000   0.272800 )  

     reciprocal axes: (cart. coord. in units 2 pi/alat)
               b(1) = (  1.000000 -1.000000  0.000000 )  
               b(2) = (  0.000000  1.000000  1.832845 )  
               b(3) = ( -1.000000  0.000000  1.832845 )  


     PseudoPot. # 1 for Sn read from file:
     ./Sn.pw91-n-van.UPF
     MD5 check sum: a38d2a872edd1a4efd76c0a1a38f7031
     Pseudo is Ultrasoft + core correction, Zval = 14.0
     Generated by new atomic code, or converted to UPF format
     Using radial grid of  891 points,  6 beta functions with: 
                l(1) =   0
                l(2) =   0
                l(3) =   1
                l(4) =   1
                l(5) =   2
                l(6) =   2
     Q(r) pseudized with  8 coefficients,  rinner =    1.100   1.100   1.100
                                                       1.100   1.100

     atomic species   valence    mass     pseudopotential
     Sn               14.00   118.70000     Sn( 1.00)

     16 Sym. Ops., with inversion, found (12 have fractional translation)



   Cartesian axes

     site n.     atom                  positions (alat units)
         1        Sn     tau(   1) = (   0.0000000  -0.2500000   0.0682000  )
         2        Sn     tau(   2) = (   0.0000000   0.2500000  -0.0682000  )

     number of k points=   244  Gaussian smearing, width (Ry)=  0.0400

     Number of k-points >= 100: set verbosity='high' to print them.

     Dense  grid:   406363 G-vectors     FFT dimensions: ( 108, 108, 108)

     Estimated max dynamical RAM per process >      48.72 MB

     Estimated total dynamical RAM >       5.80 GB

     Initial potential from superposition of free atoms

     starting charge      27.9964, renormalised to      28.0000
     Starting wfcs are   18 randomized atomic wfcs

     total cpu time spent up to now is        3.7 secs

     per-process dynamical memory:    47.9 Mb

     Self-consistent Calculation

     iteration #  1     ecut=   370.00 Ry     beta= 0.70
     Davidson diagonalization with overlap
     ethr =  1.00E-02,  avg # of iterations =  4.2

     Threshold (ethr) on eigenvalues was too large:
     Diagonalizing with lowered threshold

     Davidson diagonalization with overlap
     ethr =  1.24E-04,  avg # of iterations =  2.6

     total cpu time spent up to now is       18.7 secs

     total energy              =    -325.48753402 Ry
     estimated scf accuracy    <       0.03655112 Ry

     iteration #  2     ecut=   370.00 Ry     beta= 0.70
     Davidson diagonalization with overlap
     ethr =  1.31E-04,  avg # of iterations =  4.2

     total cpu time spent up to now is       28.3 secs

     total energy              =    -325.60772863 Ry
     estimated scf accuracy    <       0.02711431 Ry

     iteration #  3     ecut=   370.00 Ry     beta= 0.70
     Davidson diagonalization with overlap
     ethr =  9.68E-05,  avg # of iterations =  2.0

     total cpu time spent up to now is       34.4 secs

     total energy              =    -325.63044222 Ry
     estimated scf accuracy    <       0.00572247 Ry

     iteration #  4     ecut=   370.00 Ry     beta= 0.70
     Davidson diagonalization with overlap
     ethr =  2.04E-05,  avg # of iterations =  2.2

     total cpu time spent up to now is       41.1 secs

     total energy              =    -325.64850053 Ry
     estimated scf accuracy    <       0.00165012 Ry

     iteration #  5     ecut=   370.00 Ry     beta= 0.70
     Davidson diagonalization with overlap
     ethr =  5.89E-06,  avg # of iterations =  2.7

     total cpu time spent up to now is       48.3 secs

     total energy              =    -325.64890542 Ry
     estimated scf accuracy    <       0.00002620 Ry

     iteration #  6     ecut=   370.00 Ry     beta= 0.70
     Davidson diagonalization with overlap
     ethr =  9.36E-08,  avg # of iterations =  2.1

     total cpu time spent up to now is       54.6 secs

     total energy              =    -325.64891840 Ry
     estimated scf accuracy    <       0.00000187 Ry

     iteration #  7     ecut=   370.00 Ry     beta= 0.70
     Davidson diagonalization with overlap
     ethr =  6.69E-09,  avg # of iterations =  2.0

     total cpu time spent up to now is       61.1 secs

     End of self-consistent calculation

     Number of k-points >= 100: set verbosity='high' to print the bands.

     the Fermi energy is     8.7241 ev

!    total energy              =    -325.64891895 Ry
     estimated scf accuracy    <       0.00000006 Ry
     smearing contrib. (-TS)   =      -0.01289112 Ry
     internal energy E=F+TS    =    -325.63602783 Ry

     The total energy is F=E-TS. E is the sum of the following terms:
     one-electron contribution =    -122.28411936 Ry
     hartree contribution      =      79.81652149 Ry
     xc contribution           =     -95.05861739 Ry
     ewald contribution        =    -188.10981257 Ry

     convergence has been achieved in   7 iterations

     Writing all to output data dir ./beta-EOS/beta.save/ :
     XML data file, charge density, pseudopotentials, collected wavefunctions

     init_run     :      3.26s CPU      3.38s WALL (       1 calls)
     electrons    :     56.68s CPU     57.62s WALL (       1 calls)

     Called by init_run:
     wfcinit      :      2.24s CPU      2.29s WALL (       1 calls)
     potinit      :      0.07s CPU      0.09s WALL (       1 calls)
     hinit0       :      0.50s CPU      0.51s WALL (       1 calls)

     Called by electrons:
     c_bands      :     47.52s CPU     48.19s WALL (       8 calls)
     sum_band     :      8.57s CPU      8.67s WALL (       8 calls)
     v_of_rho     :      0.41s CPU      0.43s WALL (       8 calls)
     newd         :      0.18s CPU      0.19s WALL (       8 calls)
     mix_rho      :      0.05s CPU      0.05s WALL (       8 calls)

     Called by c_bands:
     init_us_2    :      0.83s CPU      0.86s WALL (    1037 calls)
     cegterg      :     44.57s CPU     44.96s WALL (     488 calls)

     Called by *egterg:
     cdiaghg      :      1.05s CPU      1.06s WALL (    1827 calls)
     h_psi        :     41.05s CPU     41.44s WALL (    1949 calls)
     s_psi        :      0.59s CPU      0.60s WALL (    1949 calls)
     g_psi        :      0.09s CPU      0.09s WALL (    1400 calls)

     Called by h_psi:
     h_psi:calbec :      1.35s CPU      1.36s WALL (    1949 calls)
     vloc_psi     :     38.80s CPU     39.17s WALL (    1949 calls)
     add_vuspsi   :      0.64s CPU      0.64s WALL (    1949 calls)

     General routines
     calbec       :      1.60s CPU      1.62s WALL (    2437 calls)
     fft          :      0.69s CPU      0.73s WALL (      89 calls)
     ffts         :      0.02s CPU      0.03s WALL (       8 calls)
     fftw         :     41.23s CPU     41.59s WALL (   54582 calls)

     Parallel routines

     PWSCF        :   1m 1.53s CPU   1m 8.77s WALL


   This run was terminated on:   0:27:30  26Feb2026            

=------------------------------------------------------------------------------=
   JOB DONE.
=------------------------------------------------------------------------------=
