
     Program PWSCF v.7.3.1 starts on 26Feb2026 at  0:30: 1 

     This program is part of the open-source Quantum ESPRESSO suite
     for quantum simulation of materials; please cite
         "P. Giannozzi et al., J. Phys.:Condens. Matter 21 395502 (2009);
         "P. Giannozzi et al., J. Phys.:Condens. Matter 29 465901 (2017);
         "P. Giannozzi et al., J. Chem. Phys. 152 154105 (2020);
          URL http://www.quantum-espresso.org", 
     in publications or presentations arising from this work. More details at
     http://www.quantum-espresso.org/quote

     Parallel version (MPI), running on   128 processors

     MPI processes distributed on     1 nodes
     237898 MiB available memory on the printing compute node when the environment starts

     Waiting for input...
     Reading input from standard input

     Current dimensions of program PWSCF are:
     Max number of different atomic species (ntypx) = 10
     Max number of k-points (npk) =  40000
     Max angular momentum in pseudopotentials (lmaxx) =  4

     K-points division:     npool     =       4
     R & G space division:  proc/nbgrp/npool/nimage =      32
     Subspace diagonalization in iterative solution of the eigenvalue problem:
     a serial algorithm will be used


     Parallelization info
     --------------------
     sticks:   dense  smooth     PW     G-vecs:    dense   smooth      PW
     Min         283     283     80                12912    12912    1940
     Max         284     284     81                12914    12914    1942
     Sum        9075    9075   2567               413211   413211   62109

     Using Slab Decomposition



     bravais-lattice index     =            7
     lattice parameter (alat)  =      11.6371  a.u.
     unit-cell volume          =     429.9133 (a.u.)^3
     number of atoms/cell      =            2
     number of atomic types    =            1
     number of electrons       =        28.00
     number of Kohn-Sham states=           18
     kinetic-energy cutoff     =     370.0000  Ry
     charge density cutoff     =    1480.0000  Ry
     scf convergence threshold =      1.0E-07
     mixing beta               =       0.7000
     number of iterations used =            8  plain     mixing
     Exchange-correlation=  SLA  PW   GGX  GGC
                           (   1   4   2   2   0   0   0)

     celldm(1)=  11.637120  celldm(2)=   0.000000  celldm(3)=   0.545600
     celldm(4)=   0.000000  celldm(5)=   0.000000  celldm(6)=   0.000000

     crystal axes: (cart. coord. in units of alat)
               a(1) = (   0.500000  -0.500000   0.272800 )  
               a(2) = (   0.500000   0.500000   0.272800 )  
               a(3) = (  -0.500000  -0.500000   0.272800 )  

     reciprocal axes: (cart. coord. in units 2 pi/alat)
               b(1) = (  1.000000 -1.000000  0.000000 )  
               b(2) = (  0.000000  1.000000  1.832845 )  
               b(3) = ( -1.000000  0.000000  1.832845 )  


     PseudoPot. # 1 for Sn read from file:
     ./Sn.pw91-n-van.UPF
     MD5 check sum: a38d2a872edd1a4efd76c0a1a38f7031
     Pseudo is Ultrasoft + core correction, Zval = 14.0
     Generated by new atomic code, or converted to UPF format
     Using radial grid of  891 points,  6 beta functions with: 
                l(1) =   0
                l(2) =   0
                l(3) =   1
                l(4) =   1
                l(5) =   2
                l(6) =   2
     Q(r) pseudized with  8 coefficients,  rinner =    1.100   1.100   1.100
                                                       1.100   1.100

     atomic species   valence    mass     pseudopotential
     Sn               14.00   118.70000     Sn( 1.00)

     16 Sym. Ops., with inversion, found (12 have fractional translation)



   Cartesian axes

     site n.     atom                  positions (alat units)
         1        Sn     tau(   1) = (   0.0000000  -0.2500000   0.0682000  )
         2        Sn     tau(   2) = (   0.0000000   0.2500000  -0.0682000  )

     number of k points=   244  Gaussian smearing, width (Ry)=  0.0400

     Number of k-points >= 100: set verbosity='high' to print them.

     Dense  grid:   413211 G-vectors     FFT dimensions: ( 120, 120, 120)

     Estimated max dynamical RAM per process >      50.19 MB

     Estimated total dynamical RAM >       5.98 GB

     Initial potential from superposition of free atoms

     starting charge      27.9964, renormalised to      28.0000
     Starting wfcs are   18 randomized atomic wfcs

     total cpu time spent up to now is        4.3 secs

     per-process dynamical memory:    49.6 Mb

     Self-consistent Calculation

     iteration #  1     ecut=   370.00 Ry     beta= 0.70
     Davidson diagonalization with overlap
     ethr =  1.00E-02,  avg # of iterations =  4.2

     Threshold (ethr) on eigenvalues was too large:
     Diagonalizing with lowered threshold

     Davidson diagonalization with overlap
     ethr =  1.25E-04,  avg # of iterations =  2.6

     negative rho (up, down):  6.604E-07 0.000E+00

     total cpu time spent up to now is       19.9 secs

     total energy              =    -325.48711164 Ry
     estimated scf accuracy    <       0.03677644 Ry

     iteration #  2     ecut=   370.00 Ry     beta= 0.70
     Davidson diagonalization with overlap
     ethr =  1.31E-04,  avg # of iterations =  4.2

     total cpu time spent up to now is       30.1 secs

     total energy              =    -325.60524594 Ry
     estimated scf accuracy    <       0.02683432 Ry

     iteration #  3     ecut=   370.00 Ry     beta= 0.70
     Davidson diagonalization with overlap
     ethr =  9.58E-05,  avg # of iterations =  2.0

     total cpu time spent up to now is       36.5 secs

     total energy              =    -325.62814450 Ry
     estimated scf accuracy    <       0.00559130 Ry

     iteration #  4     ecut=   370.00 Ry     beta= 0.70
     Davidson diagonalization with overlap
     ethr =  2.00E-05,  avg # of iterations =  2.2

     total cpu time spent up to now is       43.4 secs

     total energy              =    -325.64670261 Ry
     estimated scf accuracy    <       0.00160348 Ry

     iteration #  5     ecut=   370.00 Ry     beta= 0.70
     Davidson diagonalization with overlap
     ethr =  5.73E-06,  avg # of iterations =  2.7

     total cpu time spent up to now is       51.0 secs

     total energy              =    -325.64711122 Ry
     estimated scf accuracy    <       0.00002704 Ry

     iteration #  6     ecut=   370.00 Ry     beta= 0.70
     Davidson diagonalization with overlap
     ethr =  9.66E-08,  avg # of iterations =  2.0

     total cpu time spent up to now is       57.6 secs

     total energy              =    -325.64712615 Ry
     estimated scf accuracy    <       0.00000224 Ry

     iteration #  7     ecut=   370.00 Ry     beta= 0.70
     Davidson diagonalization with overlap
     ethr =  8.00E-09,  avg # of iterations =  2.0

     total cpu time spent up to now is       64.3 secs

     End of self-consistent calculation

     Number of k-points >= 100: set verbosity='high' to print the bands.

     the Fermi energy is     8.5022 ev

!    total energy              =    -325.64712659 Ry
     estimated scf accuracy    <       0.00000009 Ry
     smearing contrib. (-TS)   =      -0.01319479 Ry
     internal energy E=F+TS    =    -325.63393180 Ry

     The total energy is F=E-TS. E is the sum of the following terms:
     one-electron contribution =    -123.99831617 Ry
     hartree contribution      =      80.44771010 Ry
     xc contribution           =     -95.04231891 Ry
     ewald contribution        =    -187.04100682 Ry

     convergence has been achieved in   7 iterations

     Writing all to output data dir ./beta-EOS/beta.save/ :
     XML data file, charge density, pseudopotentials, collected wavefunctions

     init_run     :      3.76s CPU      3.90s WALL (       1 calls)
     electrons    :     59.16s CPU     60.13s WALL (       1 calls)

     Called by init_run:
     wfcinit      :      2.34s CPU      2.37s WALL (       1 calls)
     potinit      :      0.07s CPU      0.10s WALL (       1 calls)
     hinit0       :      0.91s CPU      0.93s WALL (       1 calls)

     Called by electrons:
     c_bands      :     49.43s CPU     50.14s WALL (       8 calls)
     sum_band     :      9.07s CPU      9.18s WALL (       8 calls)
     v_of_rho     :      0.47s CPU      0.53s WALL (       8 calls)
     newd         :      0.18s CPU      0.19s WALL (       8 calls)
     mix_rho      :      0.04s CPU      0.05s WALL (       8 calls)

     Called by c_bands:
     init_us_2    :      0.92s CPU      0.95s WALL (    1037 calls)
     cegterg      :     46.32s CPU     46.75s WALL (     488 calls)

     Called by *egterg:
     cdiaghg      :      1.06s CPU      1.07s WALL (    1829 calls)
     h_psi        :     42.76s CPU     43.15s WALL (    1951 calls)
     s_psi        :      0.61s CPU      0.61s WALL (    1951 calls)
     g_psi        :      0.09s CPU      0.09s WALL (    1402 calls)

     Called by h_psi:
     h_psi:calbec :      1.47s CPU      1.48s WALL (    1951 calls)
     vloc_psi     :     40.33s CPU     40.70s WALL (    1951 calls)
     add_vuspsi   :      0.67s CPU      0.67s WALL (    1951 calls)

     General routines
     calbec       :      1.77s CPU      1.79s WALL (    2439 calls)
     fft          :      1.10s CPU      1.15s WALL (      89 calls)
     ffts         :      0.03s CPU      0.03s WALL (       8 calls)
     fftw         :     42.21s CPU     42.60s WALL (   54588 calls)

     Parallel routines

     PWSCF        :   1m 4.37s CPU   1m11.29s WALL


   This run was terminated on:   0:31:12  26Feb2026            

=------------------------------------------------------------------------------=
   JOB DONE.
=------------------------------------------------------------------------------=
