
     Program PWSCF v.7.3.1 starts on 26Feb2026 at  0:38: 4 

     This program is part of the open-source Quantum ESPRESSO suite
     for quantum simulation of materials; please cite
         "P. Giannozzi et al., J. Phys.:Condens. Matter 21 395502 (2009);
         "P. Giannozzi et al., J. Phys.:Condens. Matter 29 465901 (2017);
         "P. Giannozzi et al., J. Chem. Phys. 152 154105 (2020);
          URL http://www.quantum-espresso.org", 
     in publications or presentations arising from this work. More details at
     http://www.quantum-espresso.org/quote

     Parallel version (MPI), running on   128 processors

     MPI processes distributed on     1 nodes
     237703 MiB available memory on the printing compute node when the environment starts

     Waiting for input...
     Reading input from standard input

     Current dimensions of program PWSCF are:
     Max number of different atomic species (ntypx) = 10
     Max number of k-points (npk) =  40000
     Max angular momentum in pseudopotentials (lmaxx) =  4

     K-points division:     npool     =       4
     R & G space division:  proc/nbgrp/npool/nimage =      32
     Subspace diagonalization in iterative solution of the eigenvalue problem:
     a serial algorithm will be used


     Parallelization info
     --------------------
     sticks:   dense  smooth     PW     G-vecs:    dense   smooth      PW
     Min         290     290     82                13365    13365    2001
     Max         291     291     83                13367    13367    2004
     Sum        9295    9295   2625               427719   427719   64069

     Using Slab Decomposition



     bravais-lattice index     =            7
     lattice parameter (alat)  =      11.7694  a.u.
     unit-cell volume          =     444.7366 (a.u.)^3
     number of atoms/cell      =            2
     number of atomic types    =            1
     number of electrons       =        28.00
     number of Kohn-Sham states=           18
     kinetic-energy cutoff     =     370.0000  Ry
     charge density cutoff     =    1480.0000  Ry
     scf convergence threshold =      1.0E-07
     mixing beta               =       0.7000
     number of iterations used =            8  plain     mixing
     Exchange-correlation=  SLA  PW   GGX  GGC
                           (   1   4   2   2   0   0   0)

     celldm(1)=  11.769360  celldm(2)=   0.000000  celldm(3)=   0.545600
     celldm(4)=   0.000000  celldm(5)=   0.000000  celldm(6)=   0.000000

     crystal axes: (cart. coord. in units of alat)
               a(1) = (   0.500000  -0.500000   0.272800 )  
               a(2) = (   0.500000   0.500000   0.272800 )  
               a(3) = (  -0.500000  -0.500000   0.272800 )  

     reciprocal axes: (cart. coord. in units 2 pi/alat)
               b(1) = (  1.000000 -1.000000  0.000000 )  
               b(2) = (  0.000000  1.000000  1.832845 )  
               b(3) = ( -1.000000  0.000000  1.832845 )  


     PseudoPot. # 1 for Sn read from file:
     ./Sn.pw91-n-van.UPF
     MD5 check sum: a38d2a872edd1a4efd76c0a1a38f7031
     Pseudo is Ultrasoft + core correction, Zval = 14.0
     Generated by new atomic code, or converted to UPF format
     Using radial grid of  891 points,  6 beta functions with: 
                l(1) =   0
                l(2) =   0
                l(3) =   1
                l(4) =   1
                l(5) =   2
                l(6) =   2
     Q(r) pseudized with  8 coefficients,  rinner =    1.100   1.100   1.100
                                                       1.100   1.100

     atomic species   valence    mass     pseudopotential
     Sn               14.00   118.70000     Sn( 1.00)

     16 Sym. Ops., with inversion, found (12 have fractional translation)



   Cartesian axes

     site n.     atom                  positions (alat units)
         1        Sn     tau(   1) = (   0.0000000  -0.2500000   0.0682000  )
         2        Sn     tau(   2) = (   0.0000000   0.2500000  -0.0682000  )

     number of k points=   244  Gaussian smearing, width (Ry)=  0.0400

     Number of k-points >= 100: set verbosity='high' to print them.

     Dense  grid:   427719 G-vectors     FFT dimensions: ( 120, 120, 120)

     Estimated max dynamical RAM per process >      51.69 MB

     Estimated total dynamical RAM >       6.16 GB

     Initial potential from superposition of free atoms

     starting charge      27.9964, renormalised to      28.0000
     Starting wfcs are   18 randomized atomic wfcs

     total cpu time spent up to now is        4.2 secs

     per-process dynamical memory:    50.9 Mb

     Self-consistent Calculation

     iteration #  1     ecut=   370.00 Ry     beta= 0.70
     Davidson diagonalization with overlap
     ethr =  1.00E-02,  avg # of iterations =  4.1

     Threshold (ethr) on eigenvalues was too large:
     Diagonalizing with lowered threshold

     Davidson diagonalization with overlap
     ethr =  1.26E-04,  avg # of iterations =  2.7

     negative rho (up, down):  9.241E-07 0.000E+00

     total cpu time spent up to now is       20.2 secs

     total energy              =    -325.48788474 Ry
     estimated scf accuracy    <       0.03708565 Ry

     iteration #  2     ecut=   370.00 Ry     beta= 0.70
     Davidson diagonalization with overlap
     ethr =  1.32E-04,  avg # of iterations =  4.1

     total cpu time spent up to now is       30.5 secs

     total energy              =    -325.59962063 Ry
     estimated scf accuracy    <       0.02599481 Ry

     iteration #  3     ecut=   370.00 Ry     beta= 0.70
     Davidson diagonalization with overlap
     ethr =  9.28E-05,  avg # of iterations =  2.0

     total cpu time spent up to now is       37.0 secs

     total energy              =    -325.62238663 Ry
     estimated scf accuracy    <       0.00536432 Ry

     iteration #  4     ecut=   370.00 Ry     beta= 0.70
     Davidson diagonalization with overlap
     ethr =  1.92E-05,  avg # of iterations =  2.1

     total cpu time spent up to now is       44.0 secs

     total energy              =    -325.64236762 Ry
     estimated scf accuracy    <       0.00155009 Ry

     iteration #  5     ecut=   370.00 Ry     beta= 0.70
     Davidson diagonalization with overlap
     ethr =  5.54E-06,  avg # of iterations =  2.7

     total cpu time spent up to now is       51.7 secs

     total energy              =    -325.64280037 Ry
     estimated scf accuracy    <       0.00003309 Ry

     iteration #  6     ecut=   370.00 Ry     beta= 0.70
     Davidson diagonalization with overlap
     ethr =  1.18E-07,  avg # of iterations =  2.1

     total cpu time spent up to now is       58.3 secs

     total energy              =    -325.64282289 Ry
     estimated scf accuracy    <       0.00000334 Ry

     iteration #  7     ecut=   370.00 Ry     beta= 0.70
     Davidson diagonalization with overlap
     ethr =  1.19E-08,  avg # of iterations =  2.0

     total cpu time spent up to now is       65.2 secs

     total energy              =    -325.64282342 Ry
     estimated scf accuracy    <       0.00000019 Ry

     iteration #  8     ecut=   370.00 Ry     beta= 0.70
     Davidson diagonalization with overlap
     ethr =  6.95E-10,  avg # of iterations =  2.0

     total cpu time spent up to now is       72.9 secs

     End of self-consistent calculation

     Number of k-points >= 100: set verbosity='high' to print the bands.

     the Fermi energy is     8.0746 ev

!    total energy              =    -325.64282344 Ry
     estimated scf accuracy    <       0.00000006 Ry
     smearing contrib. (-TS)   =      -0.01381811 Ry
     internal energy E=F+TS    =    -325.62900534 Ry

     The total energy is F=E-TS. E is the sum of the following terms:
     one-electron contribution =    -127.37537747 Ry
     hartree contribution      =      81.69627989 Ry
     xc contribution           =     -95.01048529 Ry
     ewald contribution        =    -184.93942247 Ry

     convergence has been achieved in   8 iterations

     Writing all to output data dir ./beta-EOS/beta.save/ :
     XML data file, charge density, pseudopotentials, collected wavefunctions

     init_run     :      3.83s CPU      3.94s WALL (       1 calls)
     electrons    :     67.65s CPU     68.71s WALL (       1 calls)

     Called by init_run:
     wfcinit      :      2.37s CPU      2.40s WALL (       1 calls)
     potinit      :      0.07s CPU      0.10s WALL (       1 calls)
     hinit0       :      0.90s CPU      0.92s WALL (       1 calls)

     Called by electrons:
     c_bands      :     56.51s CPU     57.32s WALL (       9 calls)
     sum_band     :     10.35s CPU     10.46s WALL (       9 calls)
     v_of_rho     :      0.55s CPU      0.60s WALL (       9 calls)
     newd         :      0.20s CPU      0.22s WALL (       9 calls)
     mix_rho      :      0.07s CPU      0.07s WALL (       9 calls)

     Called by c_bands:
     init_us_2    :      1.07s CPU      1.11s WALL (    1159 calls)
     cegterg      :     53.18s CPU     53.63s WALL (     549 calls)

     Called by *egterg:
     cdiaghg      :      1.16s CPU      1.17s WALL (    2016 calls)
     h_psi        :     48.79s CPU     49.23s WALL (    2138 calls)
     s_psi        :      0.70s CPU      0.71s WALL (    2138 calls)
     g_psi        :      0.11s CPU      0.11s WALL (    1528 calls)

     Called by h_psi:
     h_psi:calbec :      1.71s CPU      1.72s WALL (    2138 calls)
     vloc_psi     :     45.99s CPU     46.40s WALL (    2138 calls)
     add_vuspsi   :      0.78s CPU      0.78s WALL (    2138 calls)

     General routines
     calbec       :      2.06s CPU      2.08s WALL (    2687 calls)
     fft          :      1.13s CPU      1.19s WALL (     100 calls)
     ffts         :      0.03s CPU      0.03s WALL (       9 calls)
     fftw         :     47.93s CPU     48.35s WALL (   61600 calls)

     Parallel routines

     PWSCF        :   1m12.97s CPU   1m20.71s WALL


   This run was terminated on:   0:39:25  26Feb2026            

=------------------------------------------------------------------------------=
   JOB DONE.
=------------------------------------------------------------------------------=
