
     Program PWSCF v.7.3.1 starts on 26Feb2026 at  0:42:18 

     This program is part of the open-source Quantum ESPRESSO suite
     for quantum simulation of materials; please cite
         "P. Giannozzi et al., J. Phys.:Condens. Matter 21 395502 (2009);
         "P. Giannozzi et al., J. Phys.:Condens. Matter 29 465901 (2017);
         "P. Giannozzi et al., J. Chem. Phys. 152 154105 (2020);
          URL http://www.quantum-espresso.org", 
     in publications or presentations arising from this work. More details at
     http://www.quantum-espresso.org/quote

     Parallel version (MPI), running on   128 processors

     MPI processes distributed on     1 nodes
     237642 MiB available memory on the printing compute node when the environment starts

     Waiting for input...
     Reading input from standard input

     Current dimensions of program PWSCF are:
     Max number of different atomic species (ntypx) = 10
     Max number of k-points (npk) =  40000
     Max angular momentum in pseudopotentials (lmaxx) =  4

     K-points division:     npool     =       4
     R & G space division:  proc/nbgrp/npool/nimage =      32
     Subspace diagonalization in iterative solution of the eigenvalue problem:
     a serial algorithm will be used


     Parallelization info
     --------------------
     sticks:   dense  smooth     PW     G-vecs:    dense   smooth      PW
     Min         293     293     82                13588    13588    2036
     Max         294     294     83                13590    13590    2039
     Sum        9387    9387   2653               434851   434851   65221

     Using Slab Decomposition



     bravais-lattice index     =            7
     lattice parameter (alat)  =      11.8355  a.u.
     unit-cell volume          =     452.2744 (a.u.)^3
     number of atoms/cell      =            2
     number of atomic types    =            1
     number of electrons       =        28.00
     number of Kohn-Sham states=           18
     kinetic-energy cutoff     =     370.0000  Ry
     charge density cutoff     =    1480.0000  Ry
     scf convergence threshold =      1.0E-07
     mixing beta               =       0.7000
     number of iterations used =            8  plain     mixing
     Exchange-correlation=  SLA  PW   GGX  GGC
                           (   1   4   2   2   0   0   0)

     celldm(1)=  11.835480  celldm(2)=   0.000000  celldm(3)=   0.545600
     celldm(4)=   0.000000  celldm(5)=   0.000000  celldm(6)=   0.000000

     crystal axes: (cart. coord. in units of alat)
               a(1) = (   0.500000  -0.500000   0.272800 )  
               a(2) = (   0.500000   0.500000   0.272800 )  
               a(3) = (  -0.500000  -0.500000   0.272800 )  

     reciprocal axes: (cart. coord. in units 2 pi/alat)
               b(1) = (  1.000000 -1.000000  0.000000 )  
               b(2) = (  0.000000  1.000000  1.832845 )  
               b(3) = ( -1.000000  0.000000  1.832845 )  


     PseudoPot. # 1 for Sn read from file:
     ./Sn.pw91-n-van.UPF
     MD5 check sum: a38d2a872edd1a4efd76c0a1a38f7031
     Pseudo is Ultrasoft + core correction, Zval = 14.0
     Generated by new atomic code, or converted to UPF format
     Using radial grid of  891 points,  6 beta functions with: 
                l(1) =   0
                l(2) =   0
                l(3) =   1
                l(4) =   1
                l(5) =   2
                l(6) =   2
     Q(r) pseudized with  8 coefficients,  rinner =    1.100   1.100   1.100
                                                       1.100   1.100

     atomic species   valence    mass     pseudopotential
     Sn               14.00   118.70000     Sn( 1.00)

     16 Sym. Ops., with inversion, found (12 have fractional translation)



   Cartesian axes

     site n.     atom                  positions (alat units)
         1        Sn     tau(   1) = (   0.0000000  -0.2500000   0.0682000  )
         2        Sn     tau(   2) = (   0.0000000   0.2500000  -0.0682000  )

     number of k points=   244  Gaussian smearing, width (Ry)=  0.0400

     Number of k-points >= 100: set verbosity='high' to print them.

     Dense  grid:   434851 G-vectors     FFT dimensions: ( 120, 120, 120)

     Estimated max dynamical RAM per process >      52.44 MB

     Estimated total dynamical RAM >       6.24 GB

     Initial potential from superposition of free atoms

     starting charge      27.9964, renormalised to      28.0000
     Starting wfcs are   18 randomized atomic wfcs

     total cpu time spent up to now is        4.3 secs

     per-process dynamical memory:    51.3 Mb

     Self-consistent Calculation

     iteration #  1     ecut=   370.00 Ry     beta= 0.70
     Davidson diagonalization with overlap
     ethr =  1.00E-02,  avg # of iterations =  4.2

     Threshold (ethr) on eigenvalues was too large:
     Diagonalizing with lowered threshold

     Davidson diagonalization with overlap
     ethr =  1.28E-04,  avg # of iterations =  2.6

     negative rho (up, down):  8.527E-07 0.000E+00

     total cpu time spent up to now is       20.3 secs

     total energy              =    -325.48584575 Ry
     estimated scf accuracy    <       0.03764371 Ry

     iteration #  2     ecut=   370.00 Ry     beta= 0.70
     Davidson diagonalization with overlap
     ethr =  1.34E-04,  avg # of iterations =  4.1

     total cpu time spent up to now is       30.5 secs

     total energy              =    -325.59660090 Ry
     estimated scf accuracy    <       0.02614162 Ry

     iteration #  3     ecut=   370.00 Ry     beta= 0.70
     Davidson diagonalization with overlap
     ethr =  9.34E-05,  avg # of iterations =  2.0

     total cpu time spent up to now is       37.0 secs

     total energy              =    -325.61952522 Ry
     estimated scf accuracy    <       0.00535112 Ry

     iteration #  4     ecut=   370.00 Ry     beta= 0.70
     Davidson diagonalization with overlap
     ethr =  1.91E-05,  avg # of iterations =  2.1

     total cpu time spent up to now is       44.1 secs

     total energy              =    -325.63987848 Ry
     estimated scf accuracy    <       0.00154448 Ry

     iteration #  5     ecut=   370.00 Ry     beta= 0.70
     Davidson diagonalization with overlap
     ethr =  5.52E-06,  avg # of iterations =  2.7

     total cpu time spent up to now is       51.8 secs

     total energy              =    -325.64032215 Ry
     estimated scf accuracy    <       0.00003467 Ry

     iteration #  6     ecut=   370.00 Ry     beta= 0.70
     Davidson diagonalization with overlap
     ethr =  1.24E-07,  avg # of iterations =  2.1

     total cpu time spent up to now is       58.5 secs

     total energy              =    -325.64034516 Ry
     estimated scf accuracy    <       0.00000395 Ry

     iteration #  7     ecut=   370.00 Ry     beta= 0.70
     Davidson diagonalization with overlap
     ethr =  1.41E-08,  avg # of iterations =  2.0

     total cpu time spent up to now is       65.4 secs

     total energy              =    -325.64034584 Ry
     estimated scf accuracy    <       0.00000019 Ry

     iteration #  8     ecut=   370.00 Ry     beta= 0.70
     Davidson diagonalization with overlap
     ethr =  6.81E-10,  avg # of iterations =  2.0

     total cpu time spent up to now is       73.3 secs

     End of self-consistent calculation

     Number of k-points >= 100: set verbosity='high' to print the bands.

     the Fermi energy is     7.8680 ev

!    total energy              =    -325.64034588 Ry
     estimated scf accuracy    <       0.00000008 Ry
     smearing contrib. (-TS)   =      -0.01413830 Ry
     internal energy E=F+TS    =    -325.62620758 Ry

     The total energy is F=E-TS. E is the sum of the following terms:
     one-electron contribution =    -129.04056248 Ry
     hartree contribution      =      82.31600442 Ry
     xc contribution           =     -94.99540818 Ry
     ewald contribution        =    -183.90624134 Ry

     convergence has been achieved in   8 iterations

     Writing all to output data dir ./beta-EOS/beta.save/ :
     XML data file, charge density, pseudopotentials, collected wavefunctions

     init_run     :      3.92s CPU      4.02s WALL (       1 calls)
     electrons    :     68.02s CPU     69.08s WALL (       1 calls)

     Called by init_run:
     wfcinit      :      2.42s CPU      2.47s WALL (       1 calls)
     potinit      :      0.07s CPU      0.10s WALL (       1 calls)
     hinit0       :      0.91s CPU      0.92s WALL (       1 calls)

     Called by electrons:
     c_bands      :     56.81s CPU     57.60s WALL (       9 calls)
     sum_band     :     10.41s CPU     10.51s WALL (       9 calls)
     v_of_rho     :      0.55s CPU      0.60s WALL (       9 calls)
     newd         :      0.21s CPU      0.22s WALL (       9 calls)
     mix_rho      :      0.06s CPU      0.07s WALL (       9 calls)

     Called by c_bands:
     init_us_2    :      1.09s CPU      1.13s WALL (    1159 calls)
     cegterg      :     53.75s CPU     54.22s WALL (     549 calls)

     Called by *egterg:
     cdiaghg      :      1.16s CPU      1.17s WALL (    2020 calls)
     h_psi        :     49.34s CPU     49.78s WALL (    2142 calls)
     s_psi        :      0.72s CPU      0.73s WALL (    2142 calls)
     g_psi        :      0.11s CPU      0.11s WALL (    1532 calls)

     Called by h_psi:
     h_psi:calbec :      1.74s CPU      1.75s WALL (    2142 calls)
     vloc_psi     :     46.48s CPU     46.88s WALL (    2142 calls)
     add_vuspsi   :      0.80s CPU      0.81s WALL (    2142 calls)

     General routines
     calbec       :      2.09s CPU      2.11s WALL (    2691 calls)
     fft          :      1.15s CPU      1.19s WALL (     100 calls)
     ffts         :      0.03s CPU      0.03s WALL (       9 calls)
     fftw         :     48.56s CPU     48.96s WALL (   61750 calls)

     Parallel routines

     PWSCF        :   1m13.22s CPU   1m20.34s WALL


   This run was terminated on:   0:43:38  26Feb2026            

=------------------------------------------------------------------------------=
   JOB DONE.
=------------------------------------------------------------------------------=
