
     Program PWSCF v.7.3.1 starts on 26Feb2026 at  0:45:10 

     This program is part of the open-source Quantum ESPRESSO suite
     for quantum simulation of materials; please cite
         "P. Giannozzi et al., J. Phys.:Condens. Matter 21 395502 (2009);
         "P. Giannozzi et al., J. Phys.:Condens. Matter 29 465901 (2017);
         "P. Giannozzi et al., J. Chem. Phys. 152 154105 (2020);
          URL http://www.quantum-espresso.org", 
     in publications or presentations arising from this work. More details at
     http://www.quantum-espresso.org/quote

     Parallel version (MPI), running on   128 processors

     MPI processes distributed on     1 nodes
     237598 MiB available memory on the printing compute node when the environment starts

     Waiting for input...
     Reading input from standard input

     Current dimensions of program PWSCF are:
     Max number of different atomic species (ntypx) = 10
     Max number of k-points (npk) =  40000
     Max angular momentum in pseudopotentials (lmaxx) =  4

     K-points division:     npool     =       4
     R & G space division:  proc/nbgrp/npool/nimage =      32
     Subspace diagonalization in iterative solution of the eigenvalue problem:
     a serial algorithm will be used


     Parallelization info
     --------------------
     sticks:   dense  smooth     PW     G-vecs:    dense   smooth      PW
     Min         295     295     83                13746    13746    2054
     Max         296     296     84                13750    13750    2056
     Sum        9463    9463   2665               439939   439939   65749

     Using Slab Decomposition



     bravais-lattice index     =            7
     lattice parameter (alat)  =      11.8796  a.u.
     unit-cell volume          =     457.3466 (a.u.)^3
     number of atoms/cell      =            2
     number of atomic types    =            1
     number of electrons       =        28.00
     number of Kohn-Sham states=           18
     kinetic-energy cutoff     =     370.0000  Ry
     charge density cutoff     =    1480.0000  Ry
     scf convergence threshold =      1.0E-07
     mixing beta               =       0.7000
     number of iterations used =            8  plain     mixing
     Exchange-correlation=  SLA  PW   GGX  GGC
                           (   1   4   2   2   0   0   0)

     celldm(1)=  11.879560  celldm(2)=   0.000000  celldm(3)=   0.545600
     celldm(4)=   0.000000  celldm(5)=   0.000000  celldm(6)=   0.000000

     crystal axes: (cart. coord. in units of alat)
               a(1) = (   0.500000  -0.500000   0.272800 )  
               a(2) = (   0.500000   0.500000   0.272800 )  
               a(3) = (  -0.500000  -0.500000   0.272800 )  

     reciprocal axes: (cart. coord. in units 2 pi/alat)
               b(1) = (  1.000000 -1.000000  0.000000 )  
               b(2) = (  0.000000  1.000000  1.832845 )  
               b(3) = ( -1.000000  0.000000  1.832845 )  


     PseudoPot. # 1 for Sn read from file:
     ./Sn.pw91-n-van.UPF
     MD5 check sum: a38d2a872edd1a4efd76c0a1a38f7031
     Pseudo is Ultrasoft + core correction, Zval = 14.0
     Generated by new atomic code, or converted to UPF format
     Using radial grid of  891 points,  6 beta functions with: 
                l(1) =   0
                l(2) =   0
                l(3) =   1
                l(4) =   1
                l(5) =   2
                l(6) =   2
     Q(r) pseudized with  8 coefficients,  rinner =    1.100   1.100   1.100
                                                       1.100   1.100

     atomic species   valence    mass     pseudopotential
     Sn               14.00   118.70000     Sn( 1.00)

     16 Sym. Ops., with inversion, found (12 have fractional translation)



   Cartesian axes

     site n.     atom                  positions (alat units)
         1        Sn     tau(   1) = (   0.0000000  -0.2500000   0.0682000  )
         2        Sn     tau(   2) = (   0.0000000   0.2500000  -0.0682000  )

     number of k points=   244  Gaussian smearing, width (Ry)=  0.0400

     Number of k-points >= 100: set verbosity='high' to print them.

     Dense  grid:   439939 G-vectors     FFT dimensions: ( 120, 120, 120)

     Estimated max dynamical RAM per process >      52.96 MB

     Estimated total dynamical RAM >       6.30 GB

     Initial potential from superposition of free atoms

     starting charge      27.9964, renormalised to      28.0000
     Starting wfcs are   18 randomized atomic wfcs

     total cpu time spent up to now is        4.3 secs

     per-process dynamical memory:    51.6 Mb

     Self-consistent Calculation

     iteration #  1     ecut=   370.00 Ry     beta= 0.70
     Davidson diagonalization with overlap
     ethr =  1.00E-02,  avg # of iterations =  4.1

     Threshold (ethr) on eigenvalues was too large:
     Diagonalizing with lowered threshold

     Davidson diagonalization with overlap
     ethr =  1.29E-04,  avg # of iterations =  2.6

     negative rho (up, down):  1.110E-06 0.000E+00

     total cpu time spent up to now is       20.3 secs

     total energy              =    -325.48407910 Ry
     estimated scf accuracy    <       0.03802545 Ry

     iteration #  2     ecut=   370.00 Ry     beta= 0.70
     Davidson diagonalization with overlap
     ethr =  1.36E-04,  avg # of iterations =  4.1

     total cpu time spent up to now is       30.7 secs

     total energy              =    -325.59413330 Ry
     estimated scf accuracy    <       0.02620857 Ry

     iteration #  3     ecut=   370.00 Ry     beta= 0.70
     Davidson diagonalization with overlap
     ethr =  9.36E-05,  avg # of iterations =  2.0

     total cpu time spent up to now is       37.3 secs

     total energy              =    -325.61722493 Ry
     estimated scf accuracy    <       0.00534296 Ry

     iteration #  4     ecut=   370.00 Ry     beta= 0.70
     Davidson diagonalization with overlap
     ethr =  1.91E-05,  avg # of iterations =  2.1

     total cpu time spent up to now is       44.4 secs

     total energy              =    -325.63810082 Ry
     estimated scf accuracy    <       0.00155121 Ry

     iteration #  5     ecut=   370.00 Ry     beta= 0.70
     Davidson diagonalization with overlap
     ethr =  5.54E-06,  avg # of iterations =  2.7

     total cpu time spent up to now is       52.2 secs

     total energy              =    -325.63856007 Ry
     estimated scf accuracy    <       0.00003677 Ry

     iteration #  6     ecut=   370.00 Ry     beta= 0.70
     Davidson diagonalization with overlap
     ethr =  1.31E-07,  avg # of iterations =  2.0

     total cpu time spent up to now is       58.9 secs

     total energy              =    -325.63858274 Ry
     estimated scf accuracy    <       0.00000477 Ry

     iteration #  7     ecut=   370.00 Ry     beta= 0.70
     Davidson diagonalization with overlap
     ethr =  1.71E-08,  avg # of iterations =  2.0

     total cpu time spent up to now is       65.8 secs

     total energy              =    -325.63858391 Ry
     estimated scf accuracy    <       0.00000017 Ry

     iteration #  8     ecut=   370.00 Ry     beta= 0.70
     Davidson diagonalization with overlap
     ethr =  6.17E-10,  avg # of iterations =  2.0

     total cpu time spent up to now is       73.8 secs

     End of self-consistent calculation

     Number of k-points >= 100: set verbosity='high' to print the bands.

     the Fermi energy is     7.7329 ev

!    total energy              =    -325.63858393 Ry
     estimated scf accuracy    <       0.00000009 Ry
     smearing contrib. (-TS)   =      -0.01435480 Ry
     internal energy E=F+TS    =    -325.62422912 Ry

     The total energy is F=E-TS. E is the sum of the following terms:
     one-electron contribution =    -130.14198097 Ry
     hartree contribution      =      82.72719613 Ry
     xc contribution           =     -94.98560087 Ry
     ewald contribution        =    -183.22384341 Ry

     convergence has been achieved in   8 iterations

     Writing all to output data dir ./beta-EOS/beta.save/ :
     XML data file, charge density, pseudopotentials, collected wavefunctions

     init_run     :      3.85s CPU      4.00s WALL (       1 calls)
     electrons    :     68.43s CPU     69.65s WALL (       1 calls)

     Called by init_run:
     wfcinit      :      2.39s CPU      2.44s WALL (       1 calls)
     potinit      :      0.07s CPU      0.10s WALL (       1 calls)
     hinit0       :      0.90s CPU      0.92s WALL (       1 calls)

     Called by electrons:
     c_bands      :     57.18s CPU     58.06s WALL (       9 calls)
     sum_band     :     10.45s CPU     10.56s WALL (       9 calls)
     v_of_rho     :      0.54s CPU      0.61s WALL (       9 calls)
     newd         :      0.21s CPU      0.22s WALL (       9 calls)
     mix_rho      :      0.06s CPU      0.07s WALL (       9 calls)

     Called by c_bands:
     init_us_2    :      1.08s CPU      1.13s WALL (    1159 calls)
     cegterg      :     53.96s CPU     54.46s WALL (     549 calls)

     Called by *egterg:
     cdiaghg      :      1.16s CPU      1.17s WALL (    2009 calls)
     h_psi        :     49.46s CPU     49.94s WALL (    2131 calls)
     s_psi        :      0.73s CPU      0.74s WALL (    2131 calls)
     g_psi        :      0.11s CPU      0.11s WALL (    1521 calls)

     Called by h_psi:
     h_psi:calbec :      1.76s CPU      1.78s WALL (    2131 calls)
     vloc_psi     :     46.56s CPU     47.01s WALL (    2131 calls)
     add_vuspsi   :      0.80s CPU      0.81s WALL (    2131 calls)

     General routines
     calbec       :      2.11s CPU      2.13s WALL (    2680 calls)
     fft          :      1.12s CPU      1.19s WALL (     100 calls)
     ffts         :      0.03s CPU      0.03s WALL (       9 calls)
     fftw         :     48.44s CPU     48.89s WALL (   61778 calls)

     Parallel routines

     PWSCF        :   1m13.91s CPU   1m21.02s WALL


   This run was terminated on:   0:46:31  26Feb2026            

=------------------------------------------------------------------------------=
   JOB DONE.
=------------------------------------------------------------------------------=
