
     Program PWSCF v.7.3.1 starts on 26Feb2026 at  0:46:34 

     This program is part of the open-source Quantum ESPRESSO suite
     for quantum simulation of materials; please cite
         "P. Giannozzi et al., J. Phys.:Condens. Matter 21 395502 (2009);
         "P. Giannozzi et al., J. Phys.:Condens. Matter 29 465901 (2017);
         "P. Giannozzi et al., J. Chem. Phys. 152 154105 (2020);
          URL http://www.quantum-espresso.org", 
     in publications or presentations arising from this work. More details at
     http://www.quantum-espresso.org/quote

     Parallel version (MPI), running on   128 processors

     MPI processes distributed on     1 nodes
     237531 MiB available memory on the printing compute node when the environment starts

     Waiting for input...
     Reading input from standard input

     Current dimensions of program PWSCF are:
     Max number of different atomic species (ntypx) = 10
     Max number of k-points (npk) =  40000
     Max angular momentum in pseudopotentials (lmaxx) =  4

     K-points division:     npool     =       4
     R & G space division:  proc/nbgrp/npool/nimage =      32
     Subspace diagonalization in iterative solution of the eigenvalue problem:
     a serial algorithm will be used


     Parallelization info
     --------------------
     sticks:   dense  smooth     PW     G-vecs:    dense   smooth      PW
     Min         296     296     83                13812    13812    2066
     Max         297     297     84                13816    13816    2069
     Sum        9499    9499   2679               442059   442059   66141

     Using Slab Decomposition



     bravais-lattice index     =            7
     lattice parameter (alat)  =      11.9016  a.u.
     unit-cell volume          =     459.8968 (a.u.)^3
     number of atoms/cell      =            2
     number of atomic types    =            1
     number of electrons       =        28.00
     number of Kohn-Sham states=           18
     kinetic-energy cutoff     =     370.0000  Ry
     charge density cutoff     =    1480.0000  Ry
     scf convergence threshold =      1.0E-07
     mixing beta               =       0.7000
     number of iterations used =            8  plain     mixing
     Exchange-correlation=  SLA  PW   GGX  GGC
                           (   1   4   2   2   0   0   0)

     celldm(1)=  11.901600  celldm(2)=   0.000000  celldm(3)=   0.545600
     celldm(4)=   0.000000  celldm(5)=   0.000000  celldm(6)=   0.000000

     crystal axes: (cart. coord. in units of alat)
               a(1) = (   0.500000  -0.500000   0.272800 )  
               a(2) = (   0.500000   0.500000   0.272800 )  
               a(3) = (  -0.500000  -0.500000   0.272800 )  

     reciprocal axes: (cart. coord. in units 2 pi/alat)
               b(1) = (  1.000000 -1.000000  0.000000 )  
               b(2) = (  0.000000  1.000000  1.832845 )  
               b(3) = ( -1.000000  0.000000  1.832845 )  


     PseudoPot. # 1 for Sn read from file:
     ./Sn.pw91-n-van.UPF
     MD5 check sum: a38d2a872edd1a4efd76c0a1a38f7031
     Pseudo is Ultrasoft + core correction, Zval = 14.0
     Generated by new atomic code, or converted to UPF format
     Using radial grid of  891 points,  6 beta functions with: 
                l(1) =   0
                l(2) =   0
                l(3) =   1
                l(4) =   1
                l(5) =   2
                l(6) =   2
     Q(r) pseudized with  8 coefficients,  rinner =    1.100   1.100   1.100
                                                       1.100   1.100

     atomic species   valence    mass     pseudopotential
     Sn               14.00   118.70000     Sn( 1.00)

     16 Sym. Ops., with inversion, found (12 have fractional translation)



   Cartesian axes

     site n.     atom                  positions (alat units)
         1        Sn     tau(   1) = (   0.0000000  -0.2500000   0.0682000  )
         2        Sn     tau(   2) = (   0.0000000   0.2500000  -0.0682000  )

     number of k points=   244  Gaussian smearing, width (Ry)=  0.0400

     Number of k-points >= 100: set verbosity='high' to print them.

     Dense  grid:   442059 G-vectors     FFT dimensions: ( 120, 120, 120)

     Estimated max dynamical RAM per process >      53.21 MB

     Estimated total dynamical RAM >       6.33 GB

     Initial potential from superposition of free atoms

     starting charge      27.9964, renormalised to      28.0000
     Starting wfcs are   18 randomized atomic wfcs

     total cpu time spent up to now is        4.3 secs

     per-process dynamical memory:    52.2 Mb

     Self-consistent Calculation

     iteration #  1     ecut=   370.00 Ry     beta= 0.70
     Davidson diagonalization with overlap
     ethr =  1.00E-02,  avg # of iterations =  4.1

     Threshold (ethr) on eigenvalues was too large:
     Diagonalizing with lowered threshold

     Davidson diagonalization with overlap
     ethr =  1.29E-04,  avg # of iterations =  2.7

     negative rho (up, down):  9.238E-07 0.000E+00

     total cpu time spent up to now is       20.4 secs

     total energy              =    -325.48449417 Ry
     estimated scf accuracy    <       0.03797643 Ry

     iteration #  2     ecut=   370.00 Ry     beta= 0.70
     Davidson diagonalization with overlap
     ethr =  1.36E-04,  avg # of iterations =  4.1

     total cpu time spent up to now is       30.8 secs

     total energy              =    -325.59327231 Ry
     estimated scf accuracy    <       0.02598101 Ry

     iteration #  3     ecut=   370.00 Ry     beta= 0.70
     Davidson diagonalization with overlap
     ethr =  9.28E-05,  avg # of iterations =  2.0

     total cpu time spent up to now is       37.4 secs

     total energy              =    -325.61630556 Ry
     estimated scf accuracy    <       0.00527576 Ry

     iteration #  4     ecut=   370.00 Ry     beta= 0.70
     Davidson diagonalization with overlap
     ethr =  1.88E-05,  avg # of iterations =  2.1

     total cpu time spent up to now is       44.4 secs

     total energy              =    -325.63718935 Ry
     estimated scf accuracy    <       0.00152441 Ry

     iteration #  5     ecut=   370.00 Ry     beta= 0.70
     Davidson diagonalization with overlap
     ethr =  5.44E-06,  avg # of iterations =  2.7

     total cpu time spent up to now is       52.2 secs

     total energy              =    -325.63764678 Ry
     estimated scf accuracy    <       0.00003786 Ry

     iteration #  6     ecut=   370.00 Ry     beta= 0.70
     Davidson diagonalization with overlap
     ethr =  1.35E-07,  avg # of iterations =  2.0

     total cpu time spent up to now is       58.9 secs

     total energy              =    -325.63767031 Ry
     estimated scf accuracy    <       0.00000513 Ry

     iteration #  7     ecut=   370.00 Ry     beta= 0.70
     Davidson diagonalization with overlap
     ethr =  1.83E-08,  avg # of iterations =  2.0

     total cpu time spent up to now is       65.9 secs

     total energy              =    -325.63767152 Ry
     estimated scf accuracy    <       0.00000021 Ry

     iteration #  8     ecut=   370.00 Ry     beta= 0.70
     Davidson diagonalization with overlap
     ethr =  7.42E-10,  avg # of iterations =  2.0

     total cpu time spent up to now is       73.9 secs

     total energy              =    -325.63767155 Ry
     estimated scf accuracy    <       0.00000010 Ry

     iteration #  9     ecut=   370.00 Ry     beta= 0.70
     Davidson diagonalization with overlap
     ethr =  3.62E-10,  avg # of iterations =  2.0

     total cpu time spent up to now is       80.7 secs

     End of self-consistent calculation

     Number of k-points >= 100: set verbosity='high' to print the bands.

     the Fermi energy is     7.6658 ev

!    total energy              =    -325.63767156 Ry
     estimated scf accuracy    <          1.2E-09 Ry
     smearing contrib. (-TS)   =      -0.01446430 Ry
     internal energy E=F+TS    =    -325.62320726 Ry

     The total energy is F=E-TS. E is the sum of the following terms:
     one-electron contribution =    -130.69095154 Ry
     hartree contribution      =      82.93327309 Ry
     xc contribution           =     -94.98098881 Ry
     ewald contribution        =    -182.88454000 Ry

     convergence has been achieved in   9 iterations

     Writing all to output data dir ./beta-EOS/beta.save/ :
     XML data file, charge density, pseudopotentials, collected wavefunctions

     init_run     :      3.90s CPU      4.02s WALL (       1 calls)
     electrons    :     75.25s CPU     76.45s WALL (       1 calls)

     Called by init_run:
     wfcinit      :      2.38s CPU      2.43s WALL (       1 calls)
     potinit      :      0.08s CPU      0.11s WALL (       1 calls)
     hinit0       :      0.91s CPU      0.92s WALL (       1 calls)

     Called by electrons:
     c_bands      :     62.72s CPU     63.65s WALL (      10 calls)
     sum_band     :     11.63s CPU     11.76s WALL (      10 calls)
     v_of_rho     :      0.62s CPU      0.67s WALL (      10 calls)
     newd         :      0.23s CPU      0.25s WALL (      10 calls)
     mix_rho      :      0.08s CPU      0.08s WALL (      10 calls)

     Called by c_bands:
     init_us_2    :      1.23s CPU      1.27s WALL (    1281 calls)
     cegterg      :     59.17s CPU     59.72s WALL (     610 calls)

     Called by *egterg:
     cdiaghg      :      1.26s CPU      1.28s WALL (    2199 calls)
     h_psi        :     54.04s CPU     54.57s WALL (    2321 calls)
     s_psi        :      0.81s CPU      0.81s WALL (    2321 calls)
     g_psi        :      0.12s CPU      0.12s WALL (    1650 calls)

     Called by h_psi:
     h_psi:calbec :      1.94s CPU      1.96s WALL (    2321 calls)
     vloc_psi     :     50.86s CPU     51.36s WALL (    2321 calls)
     add_vuspsi   :      0.87s CPU      0.88s WALL (    2321 calls)

     General routines
     calbec       :      2.35s CPU      2.37s WALL (    2931 calls)
     fft          :      1.18s CPU      1.22s WALL (     111 calls)
     ffts         :      0.03s CPU      0.04s WALL (      10 calls)
     fftw         :     53.19s CPU     53.68s WALL (   67820 calls)

     Parallel routines

     PWSCF        :   1m20.81s CPU   1m27.44s WALL


   This run was terminated on:   0:48: 1  26Feb2026            

=------------------------------------------------------------------------------=
   JOB DONE.
=------------------------------------------------------------------------------=
