
     Program PWSCF v.7.3.1 starts on 26Feb2026 at  0:48: 6 

     This program is part of the open-source Quantum ESPRESSO suite
     for quantum simulation of materials; please cite
         "P. Giannozzi et al., J. Phys.:Condens. Matter 21 395502 (2009);
         "P. Giannozzi et al., J. Phys.:Condens. Matter 29 465901 (2017);
         "P. Giannozzi et al., J. Chem. Phys. 152 154105 (2020);
          URL http://www.quantum-espresso.org", 
     in publications or presentations arising from this work. More details at
     http://www.quantum-espresso.org/quote

     Parallel version (MPI), running on   128 processors

     MPI processes distributed on     1 nodes
     237574 MiB available memory on the printing compute node when the environment starts

     Waiting for input...
     Reading input from standard input

     Current dimensions of program PWSCF are:
     Max number of different atomic species (ntypx) = 10
     Max number of k-points (npk) =  40000
     Max angular momentum in pseudopotentials (lmaxx) =  4

     K-points division:     npool     =       4
     R & G space division:  proc/nbgrp/npool/nimage =      32
     Subspace diagonalization in iterative solution of the eigenvalue problem:
     a serial algorithm will be used


     Parallelization info
     --------------------
     sticks:   dense  smooth     PW     G-vecs:    dense   smooth      PW
     Min         297     297     84                13887    13887    2078
     Max         298     298     85                13890    13890    2079
     Sum        9535    9535   2691               444443   444443   66509

     Using Slab Decomposition



     bravais-lattice index     =            7
     lattice parameter (alat)  =      11.9236  a.u.
     unit-cell volume          =     462.4565 (a.u.)^3
     number of atoms/cell      =            2
     number of atomic types    =            1
     number of electrons       =        28.00
     number of Kohn-Sham states=           18
     kinetic-energy cutoff     =     370.0000  Ry
     charge density cutoff     =    1480.0000  Ry
     scf convergence threshold =      1.0E-07
     mixing beta               =       0.7000
     number of iterations used =            8  plain     mixing
     Exchange-correlation=  SLA  PW   GGX  GGC
                           (   1   4   2   2   0   0   0)

     celldm(1)=  11.923640  celldm(2)=   0.000000  celldm(3)=   0.545600
     celldm(4)=   0.000000  celldm(5)=   0.000000  celldm(6)=   0.000000

     crystal axes: (cart. coord. in units of alat)
               a(1) = (   0.500000  -0.500000   0.272800 )  
               a(2) = (   0.500000   0.500000   0.272800 )  
               a(3) = (  -0.500000  -0.500000   0.272800 )  

     reciprocal axes: (cart. coord. in units 2 pi/alat)
               b(1) = (  1.000000 -1.000000  0.000000 )  
               b(2) = (  0.000000  1.000000  1.832845 )  
               b(3) = ( -1.000000  0.000000  1.832845 )  


     PseudoPot. # 1 for Sn read from file:
     ./Sn.pw91-n-van.UPF
     MD5 check sum: a38d2a872edd1a4efd76c0a1a38f7031
     Pseudo is Ultrasoft + core correction, Zval = 14.0
     Generated by new atomic code, or converted to UPF format
     Using radial grid of  891 points,  6 beta functions with: 
                l(1) =   0
                l(2) =   0
                l(3) =   1
                l(4) =   1
                l(5) =   2
                l(6) =   2
     Q(r) pseudized with  8 coefficients,  rinner =    1.100   1.100   1.100
                                                       1.100   1.100

     atomic species   valence    mass     pseudopotential
     Sn               14.00   118.70000     Sn( 1.00)

     16 Sym. Ops., with inversion, found (12 have fractional translation)



   Cartesian axes

     site n.     atom                  positions (alat units)
         1        Sn     tau(   1) = (   0.0000000  -0.2500000   0.0682000  )
         2        Sn     tau(   2) = (   0.0000000   0.2500000  -0.0682000  )

     number of k points=   244  Gaussian smearing, width (Ry)=  0.0400

     Number of k-points >= 100: set verbosity='high' to print them.

     Dense  grid:   444443 G-vectors     FFT dimensions: ( 120, 120, 120)

     Estimated max dynamical RAM per process >      53.45 MB

     Estimated total dynamical RAM >       6.36 GB

     Initial potential from superposition of free atoms

     starting charge      27.9964, renormalised to      28.0000
     Starting wfcs are   18 randomized atomic wfcs

     total cpu time spent up to now is        4.3 secs

     per-process dynamical memory:    51.8 Mb

     Self-consistent Calculation

     iteration #  1     ecut=   370.00 Ry     beta= 0.70
     Davidson diagonalization with overlap
     ethr =  1.00E-02,  avg # of iterations =  4.1

     Threshold (ethr) on eigenvalues was too large:
     Diagonalizing with lowered threshold

     Davidson diagonalization with overlap
     ethr =  1.28E-04,  avg # of iterations =  2.6

     negative rho (up, down):  8.625E-07 0.000E+00

     total cpu time spent up to now is       20.4 secs

     total energy              =    -325.48557880 Ry
     estimated scf accuracy    <       0.03776135 Ry

     iteration #  2     ecut=   370.00 Ry     beta= 0.70
     Davidson diagonalization with overlap
     ethr =  1.35E-04,  avg # of iterations =  4.1

     total cpu time spent up to now is       30.9 secs

     total energy              =    -325.59225943 Ry
     estimated scf accuracy    <       0.02551685 Ry

     iteration #  3     ecut=   370.00 Ry     beta= 0.70
     Davidson diagonalization with overlap
     ethr =  9.11E-05,  avg # of iterations =  2.0

     total cpu time spent up to now is       37.5 secs

     total energy              =    -325.61525021 Ry
     estimated scf accuracy    <       0.00516336 Ry

     iteration #  4     ecut=   370.00 Ry     beta= 0.70
     Davidson diagonalization with overlap
     ethr =  1.84E-05,  avg # of iterations =  2.1

     total cpu time spent up to now is       44.7 secs

     total energy              =    -325.63625808 Ry
     estimated scf accuracy    <       0.00148378 Ry

     iteration #  5     ecut=   370.00 Ry     beta= 0.70
     Davidson diagonalization with overlap
     ethr =  5.30E-06,  avg # of iterations =  2.7

     total cpu time spent up to now is       52.5 secs

     total energy              =    -325.63671062 Ry
     estimated scf accuracy    <       0.00003913 Ry

     iteration #  6     ecut=   370.00 Ry     beta= 0.70
     Davidson diagonalization with overlap
     ethr =  1.40E-07,  avg # of iterations =  2.0

     total cpu time spent up to now is       59.3 secs

     total energy              =    -325.63673738 Ry
     estimated scf accuracy    <       0.00000533 Ry

     iteration #  7     ecut=   370.00 Ry     beta= 0.70
     Davidson diagonalization with overlap
     ethr =  1.91E-08,  avg # of iterations =  2.0

     total cpu time spent up to now is       66.2 secs

     total energy              =    -325.63673881 Ry
     estimated scf accuracy    <       0.00000025 Ry

     iteration #  8     ecut=   370.00 Ry     beta= 0.70
     Davidson diagonalization with overlap
     ethr =  8.98E-10,  avg # of iterations =  2.0

     total cpu time spent up to now is       74.1 secs

     total energy              =    -325.63673885 Ry
     estimated scf accuracy    <       0.00000011 Ry

     iteration #  9     ecut=   370.00 Ry     beta= 0.70
     Davidson diagonalization with overlap
     ethr =  3.83E-10,  avg # of iterations =  2.0

     total cpu time spent up to now is       81.0 secs

     End of self-consistent calculation

     Number of k-points >= 100: set verbosity='high' to print the bands.

     the Fermi energy is     7.5995 ev

!    total energy              =    -325.63673886 Ry
     estimated scf accuracy    <          1.1E-09 Ry
     smearing contrib. (-TS)   =      -0.01457405 Ry
     internal energy E=F+TS    =    -325.62216481 Ry

     The total energy is F=E-TS. E is the sum of the following terms:
     one-electron contribution =    -131.23734789 Ry
     hartree contribution      =      83.13787339 Ry
     xc contribution           =     -94.97619937 Ry
     ewald contribution        =    -182.54649094 Ry

     convergence has been achieved in   9 iterations

     Writing all to output data dir ./beta-EOS/beta.save/ :
     XML data file, charge density, pseudopotentials, collected wavefunctions

     init_run     :      3.87s CPU      4.03s WALL (       1 calls)
     electrons    :     75.66s CPU     76.78s WALL (       1 calls)

     Called by init_run:
     wfcinit      :      2.38s CPU      2.45s WALL (       1 calls)
     potinit      :      0.08s CPU      0.10s WALL (       1 calls)
     hinit0       :      0.90s CPU      0.92s WALL (       1 calls)

     Called by electrons:
     c_bands      :     63.02s CPU     63.86s WALL (      10 calls)
     sum_band     :     11.72s CPU     11.86s WALL (      10 calls)
     v_of_rho     :      0.62s CPU      0.67s WALL (      10 calls)
     newd         :      0.21s CPU      0.25s WALL (      10 calls)
     mix_rho      :      0.09s CPU      0.09s WALL (      10 calls)

     Called by c_bands:
     init_us_2    :      1.21s CPU      1.26s WALL (    1281 calls)
     cegterg      :     59.47s CPU     59.91s WALL (     610 calls)

     Called by *egterg:
     cdiaghg      :      1.26s CPU      1.27s WALL (    2187 calls)
     h_psi        :     54.35s CPU     54.80s WALL (    2309 calls)
     s_psi        :      0.80s CPU      0.80s WALL (    2309 calls)
     g_psi        :      0.12s CPU      0.12s WALL (    1638 calls)

     Called by h_psi:
     h_psi:calbec :      1.94s CPU      1.96s WALL (    2309 calls)
     vloc_psi     :     51.14s CPU     51.56s WALL (    2309 calls)
     add_vuspsi   :      0.88s CPU      0.89s WALL (    2309 calls)

     General routines
     calbec       :      2.35s CPU      2.37s WALL (    2919 calls)
     fft          :      1.19s CPU      1.24s WALL (     111 calls)
     ffts         :      0.03s CPU      0.03s WALL (      10 calls)
     fftw         :     53.40s CPU     53.85s WALL (   67706 calls)

     Parallel routines

     PWSCF        :   1m21.03s CPU   1m27.49s WALL


   This run was terminated on:   0:49:33  26Feb2026            

=------------------------------------------------------------------------------=
   JOB DONE.
=------------------------------------------------------------------------------=
