
     Program PWSCF v.7.3.1 starts on 26Feb2026 at  0:51:10 

     This program is part of the open-source Quantum ESPRESSO suite
     for quantum simulation of materials; please cite
         "P. Giannozzi et al., J. Phys.:Condens. Matter 21 395502 (2009);
         "P. Giannozzi et al., J. Phys.:Condens. Matter 29 465901 (2017);
         "P. Giannozzi et al., J. Chem. Phys. 152 154105 (2020);
          URL http://www.quantum-espresso.org", 
     in publications or presentations arising from this work. More details at
     http://www.quantum-espresso.org/quote

     Parallel version (MPI), running on   128 processors

     MPI processes distributed on     1 nodes
     237540 MiB available memory on the printing compute node when the environment starts

     Waiting for input...
     Reading input from standard input

     Current dimensions of program PWSCF are:
     Max number of different atomic species (ntypx) = 10
     Max number of k-points (npk) =  40000
     Max angular momentum in pseudopotentials (lmaxx) =  4

     K-points division:     npool     =       4
     R & G space division:  proc/nbgrp/npool/nimage =      32
     Subspace diagonalization in iterative solution of the eigenvalue problem:
     a serial algorithm will be used


     Parallelization info
     --------------------
     sticks:   dense  smooth     PW     G-vecs:    dense   smooth      PW
     Min         300     300     84                14051    14051    2100
     Max         301     301     85                14054    14054    2103
     Sum        9615    9615   2711               449667   449667   67261

     Using Slab Decomposition



     bravais-lattice index     =            7
     lattice parameter (alat)  =      11.9677  a.u.
     unit-cell volume          =     467.6044 (a.u.)^3
     number of atoms/cell      =            2
     number of atomic types    =            1
     number of electrons       =        28.00
     number of Kohn-Sham states=           18
     kinetic-energy cutoff     =     370.0000  Ry
     charge density cutoff     =    1480.0000  Ry
     scf convergence threshold =      1.0E-07
     mixing beta               =       0.7000
     number of iterations used =            8  plain     mixing
     Exchange-correlation=  SLA  PW   GGX  GGC
                           (   1   4   2   2   0   0   0)

     celldm(1)=  11.967720  celldm(2)=   0.000000  celldm(3)=   0.545600
     celldm(4)=   0.000000  celldm(5)=   0.000000  celldm(6)=   0.000000

     crystal axes: (cart. coord. in units of alat)
               a(1) = (   0.500000  -0.500000   0.272800 )  
               a(2) = (   0.500000   0.500000   0.272800 )  
               a(3) = (  -0.500000  -0.500000   0.272800 )  

     reciprocal axes: (cart. coord. in units 2 pi/alat)
               b(1) = (  1.000000 -1.000000  0.000000 )  
               b(2) = (  0.000000  1.000000  1.832845 )  
               b(3) = ( -1.000000  0.000000  1.832845 )  


     PseudoPot. # 1 for Sn read from file:
     ./Sn.pw91-n-van.UPF
     MD5 check sum: a38d2a872edd1a4efd76c0a1a38f7031
     Pseudo is Ultrasoft + core correction, Zval = 14.0
     Generated by new atomic code, or converted to UPF format
     Using radial grid of  891 points,  6 beta functions with: 
                l(1) =   0
                l(2) =   0
                l(3) =   1
                l(4) =   1
                l(5) =   2
                l(6) =   2
     Q(r) pseudized with  8 coefficients,  rinner =    1.100   1.100   1.100
                                                       1.100   1.100

     atomic species   valence    mass     pseudopotential
     Sn               14.00   118.70000     Sn( 1.00)

     16 Sym. Ops., with inversion, found (12 have fractional translation)



   Cartesian axes

     site n.     atom                  positions (alat units)
         1        Sn     tau(   1) = (   0.0000000  -0.2500000   0.0682000  )
         2        Sn     tau(   2) = (   0.0000000   0.2500000  -0.0682000  )

     number of k points=   244  Gaussian smearing, width (Ry)=  0.0400

     Number of k-points >= 100: set verbosity='high' to print them.

     Dense  grid:   449667 G-vectors     FFT dimensions: ( 120, 120, 120)

     Estimated max dynamical RAM per process >      53.99 MB

     Estimated total dynamical RAM >       6.43 GB

     Initial potential from superposition of free atoms

     starting charge      27.9964, renormalised to      28.0000
     Starting wfcs are   18 randomized atomic wfcs

     total cpu time spent up to now is        4.3 secs

     per-process dynamical memory:    52.3 Mb

     Self-consistent Calculation

     iteration #  1     ecut=   370.00 Ry     beta= 0.70
     Davidson diagonalization with overlap
     ethr =  1.00E-02,  avg # of iterations =  4.1

     Threshold (ethr) on eigenvalues was too large:
     Diagonalizing with lowered threshold

     Davidson diagonalization with overlap
     ethr =  1.27E-04,  avg # of iterations =  2.6

     negative rho (up, down):  1.142E-06 0.000E+00

     total cpu time spent up to now is       20.5 secs

     total energy              =    -325.48798379 Ry
     estimated scf accuracy    <       0.03730726 Ry

     iteration #  2     ecut=   370.00 Ry     beta= 0.70
     Davidson diagonalization with overlap
     ethr =  1.33E-04,  avg # of iterations =  4.1

     total cpu time spent up to now is       30.8 secs

     total energy              =    -325.58974555 Ry
     estimated scf accuracy    <       0.02461845 Ry

     iteration #  3     ecut=   370.00 Ry     beta= 0.70
     Davidson diagonalization with overlap
     ethr =  8.79E-05,  avg # of iterations =  2.0

     total cpu time spent up to now is       37.5 secs

     total energy              =    -325.61282522 Ry
     estimated scf accuracy    <       0.00497083 Ry

     iteration #  4     ecut=   370.00 Ry     beta= 0.70
     Davidson diagonalization with overlap
     ethr =  1.78E-05,  avg # of iterations =  2.1

     total cpu time spent up to now is       44.6 secs

     total energy              =    -325.63432911 Ry
     estimated scf accuracy    <       0.00141631 Ry

     iteration #  5     ecut=   370.00 Ry     beta= 0.70
     Davidson diagonalization with overlap
     ethr =  5.06E-06,  avg # of iterations =  2.7

     total cpu time spent up to now is       52.5 secs

     total energy              =    -325.63478280 Ry
     estimated scf accuracy    <       0.00004371 Ry

     iteration #  6     ecut=   370.00 Ry     beta= 0.70
     Davidson diagonalization with overlap
     ethr =  1.56E-07,  avg # of iterations =  2.0

     total cpu time spent up to now is       59.2 secs

     total energy              =    -325.63481185 Ry
     estimated scf accuracy    <       0.00000677 Ry

     iteration #  7     ecut=   370.00 Ry     beta= 0.70
     Davidson diagonalization with overlap
     ethr =  2.42E-08,  avg # of iterations =  2.0

     total cpu time spent up to now is       66.1 secs

     total energy              =    -325.63481464 Ry
     estimated scf accuracy    <       0.00000027 Ry

     iteration #  8     ecut=   370.00 Ry     beta= 0.70
     Davidson diagonalization with overlap
     ethr =  9.47E-10,  avg # of iterations =  2.0

     total cpu time spent up to now is       74.2 secs

     total energy              =    -325.63481468 Ry
     estimated scf accuracy    <       0.00000013 Ry

     iteration #  9     ecut=   370.00 Ry     beta= 0.70
     Davidson diagonalization with overlap
     ethr =  4.55E-10,  avg # of iterations =  2.0

     total cpu time spent up to now is       81.1 secs

     End of self-consistent calculation

     Number of k-points >= 100: set verbosity='high' to print the bands.

     the Fermi energy is     7.4686 ev

!    total energy              =    -325.63481469 Ry
     estimated scf accuracy    <          8.8E-10 Ry
     smearing contrib. (-TS)   =      -0.01479532 Ry
     internal energy E=F+TS    =    -325.62001938 Ry

     The total energy is F=E-TS. E is the sum of the following terms:
     one-electron contribution =    -132.32498767 Ry
     hartree contribution      =      83.54584422 Ry
     xc contribution           =     -94.96674775 Ry
     ewald contribution        =    -181.87412817 Ry

     convergence has been achieved in   9 iterations

     Writing all to output data dir ./beta-EOS/beta.save/ :
     XML data file, charge density, pseudopotentials, collected wavefunctions

     init_run     :      3.95s CPU      4.07s WALL (       1 calls)
     electrons    :     75.70s CPU     76.85s WALL (       1 calls)

     Called by init_run:
     wfcinit      :      2.43s CPU      2.48s WALL (       1 calls)
     potinit      :      0.07s CPU      0.10s WALL (       1 calls)
     hinit0       :      0.90s CPU      0.92s WALL (       1 calls)

     Called by electrons:
     c_bands      :     63.09s CPU     63.94s WALL (      10 calls)
     sum_band     :     11.67s CPU     11.82s WALL (      10 calls)
     v_of_rho     :      0.61s CPU      0.67s WALL (      10 calls)
     newd         :      0.23s CPU      0.25s WALL (      10 calls)
     mix_rho      :      0.08s CPU      0.09s WALL (      10 calls)

     Called by c_bands:
     init_us_2    :      1.23s CPU      1.28s WALL (    1281 calls)
     cegterg      :     59.44s CPU     59.93s WALL (     610 calls)

     Called by *egterg:
     cdiaghg      :      1.26s CPU      1.27s WALL (    2185 calls)
     h_psi        :     54.28s CPU     54.75s WALL (    2307 calls)
     s_psi        :      0.81s CPU      0.81s WALL (    2307 calls)
     g_psi        :      0.12s CPU      0.12s WALL (    1636 calls)

     Called by h_psi:
     h_psi:calbec :      1.98s CPU      1.99s WALL (    2307 calls)
     vloc_psi     :     51.02s CPU     51.46s WALL (    2307 calls)
     add_vuspsi   :      0.90s CPU      0.91s WALL (    2307 calls)

     General routines
     calbec       :      2.39s CPU      2.41s WALL (    2917 calls)
     fft          :      1.17s CPU      1.23s WALL (     111 calls)
     ffts         :      0.03s CPU      0.04s WALL (      10 calls)
     fftw         :     53.24s CPU     53.70s WALL (   67800 calls)

     Parallel routines

     PWSCF        :   1m20.83s CPU   1m28.40s WALL


   This run was terminated on:   0:52:38  26Feb2026            

=------------------------------------------------------------------------------=
   JOB DONE.
=------------------------------------------------------------------------------=
