
     Program PWSCF v.7.3.1 starts on 26Feb2026 at  0:54:13 

     This program is part of the open-source Quantum ESPRESSO suite
     for quantum simulation of materials; please cite
         "P. Giannozzi et al., J. Phys.:Condens. Matter 21 395502 (2009);
         "P. Giannozzi et al., J. Phys.:Condens. Matter 29 465901 (2017);
         "P. Giannozzi et al., J. Chem. Phys. 152 154105 (2020);
          URL http://www.quantum-espresso.org", 
     in publications or presentations arising from this work. More details at
     http://www.quantum-espresso.org/quote

     Parallel version (MPI), running on   128 processors

     MPI processes distributed on     1 nodes
     237520 MiB available memory on the printing compute node when the environment starts

     Waiting for input...
     Reading input from standard input

     Current dimensions of program PWSCF are:
     Max number of different atomic species (ntypx) = 10
     Max number of k-points (npk) =  40000
     Max angular momentum in pseudopotentials (lmaxx) =  4

     K-points division:     npool     =       4
     R & G space division:  proc/nbgrp/npool/nimage =      32
     Subspace diagonalization in iterative solution of the eigenvalue problem:
     a serial algorithm will be used


     Parallelization info
     --------------------
     sticks:   dense  smooth     PW     G-vecs:    dense   smooth      PW
     Min         301     301     85                14201    14201    2124
     Max         302     302     87                14205    14205    2125
     Sum        9663    9663   2731               454529   454529   67981

     Using Slab Decomposition



     bravais-lattice index     =            7
     lattice parameter (alat)  =      12.0118  a.u.
     unit-cell volume          =     472.7904 (a.u.)^3
     number of atoms/cell      =            2
     number of atomic types    =            1
     number of electrons       =        28.00
     number of Kohn-Sham states=           18
     kinetic-energy cutoff     =     370.0000  Ry
     charge density cutoff     =    1480.0000  Ry
     scf convergence threshold =      1.0E-07
     mixing beta               =       0.7000
     number of iterations used =            8  plain     mixing
     Exchange-correlation=  SLA  PW   GGX  GGC
                           (   1   4   2   2   0   0   0)

     celldm(1)=  12.011800  celldm(2)=   0.000000  celldm(3)=   0.545600
     celldm(4)=   0.000000  celldm(5)=   0.000000  celldm(6)=   0.000000

     crystal axes: (cart. coord. in units of alat)
               a(1) = (   0.500000  -0.500000   0.272800 )  
               a(2) = (   0.500000   0.500000   0.272800 )  
               a(3) = (  -0.500000  -0.500000   0.272800 )  

     reciprocal axes: (cart. coord. in units 2 pi/alat)
               b(1) = (  1.000000 -1.000000  0.000000 )  
               b(2) = (  0.000000  1.000000  1.832845 )  
               b(3) = ( -1.000000  0.000000  1.832845 )  


     PseudoPot. # 1 for Sn read from file:
     ./Sn.pw91-n-van.UPF
     MD5 check sum: a38d2a872edd1a4efd76c0a1a38f7031
     Pseudo is Ultrasoft + core correction, Zval = 14.0
     Generated by new atomic code, or converted to UPF format
     Using radial grid of  891 points,  6 beta functions with: 
                l(1) =   0
                l(2) =   0
                l(3) =   1
                l(4) =   1
                l(5) =   2
                l(6) =   2
     Q(r) pseudized with  8 coefficients,  rinner =    1.100   1.100   1.100
                                                       1.100   1.100

     atomic species   valence    mass     pseudopotential
     Sn               14.00   118.70000     Sn( 1.00)

     16 Sym. Ops., with inversion, found (12 have fractional translation)



   Cartesian axes

     site n.     atom                  positions (alat units)
         1        Sn     tau(   1) = (   0.0000000  -0.2500000   0.0682000  )
         2        Sn     tau(   2) = (   0.0000000   0.2500000  -0.0682000  )

     number of k points=   244  Gaussian smearing, width (Ry)=  0.0400

     Number of k-points >= 100: set verbosity='high' to print them.

     Dense  grid:   454529 G-vectors     FFT dimensions: ( 120, 120, 120)

     Estimated max dynamical RAM per process >      54.50 MB

     Estimated total dynamical RAM >       6.49 GB

     Initial potential from superposition of free atoms

     starting charge      27.9964, renormalised to      28.0000
     Starting wfcs are   18 randomized atomic wfcs

     total cpu time spent up to now is        4.4 secs

     per-process dynamical memory:    52.7 Mb

     Self-consistent Calculation

     iteration #  1     ecut=   370.00 Ry     beta= 0.70
     Davidson diagonalization with overlap
     ethr =  1.00E-02,  avg # of iterations =  4.0

     Threshold (ethr) on eigenvalues was too large:
     Diagonalizing with lowered threshold

     Davidson diagonalization with overlap
     ethr =  1.27E-04,  avg # of iterations =  2.6

     negative rho (up, down):  1.082E-06 0.000E+00

     total cpu time spent up to now is       20.6 secs

     total energy              =    -325.48770803 Ry
     estimated scf accuracy    <       0.03748647 Ry

     iteration #  2     ecut=   370.00 Ry     beta= 0.70
     Davidson diagonalization with overlap
     ethr =  1.34E-04,  avg # of iterations =  4.1

     total cpu time spent up to now is       31.1 secs

     total energy              =    -325.58754486 Ry
     estimated scf accuracy    <       0.02444392 Ry

     iteration #  3     ecut=   370.00 Ry     beta= 0.70
     Davidson diagonalization with overlap
     ethr =  8.73E-05,  avg # of iterations =  2.0

     total cpu time spent up to now is       37.8 secs

     total energy              =    -325.61048883 Ry
     estimated scf accuracy    <       0.00493585 Ry

     iteration #  4     ecut=   370.00 Ry     beta= 0.70
     Davidson diagonalization with overlap
     ethr =  1.76E-05,  avg # of iterations =  2.1

     total cpu time spent up to now is       45.1 secs

     total energy              =    -325.63232086 Ry
     estimated scf accuracy    <       0.00141683 Ry

     iteration #  5     ecut=   370.00 Ry     beta= 0.70
     Davidson diagonalization with overlap
     ethr =  5.06E-06,  avg # of iterations =  2.7

     total cpu time spent up to now is       53.0 secs

     total energy              =    -325.63277819 Ry
     estimated scf accuracy    <       0.00004620 Ry

     iteration #  6     ecut=   370.00 Ry     beta= 0.70
     Davidson diagonalization with overlap
     ethr =  1.65E-07,  avg # of iterations =  2.0

     total cpu time spent up to now is       59.7 secs

     total energy              =    -325.63281232 Ry
     estimated scf accuracy    <       0.00000704 Ry

     iteration #  7     ecut=   370.00 Ry     beta= 0.70
     Davidson diagonalization with overlap
     ethr =  2.52E-08,  avg # of iterations =  2.0

     total cpu time spent up to now is       66.7 secs

     total energy              =    -325.63281544 Ry
     estimated scf accuracy    <       0.00000036 Ry

     iteration #  8     ecut=   370.00 Ry     beta= 0.70
     Davidson diagonalization with overlap
     ethr =  1.30E-09,  avg # of iterations =  2.0

     total cpu time spent up to now is       74.6 secs

     total energy              =    -325.63281549 Ry
     estimated scf accuracy    <       0.00000014 Ry

     iteration #  9     ecut=   370.00 Ry     beta= 0.70
     Davidson diagonalization with overlap
     ethr =  4.91E-10,  avg # of iterations =  2.0

     total cpu time spent up to now is       81.6 secs

     End of self-consistent calculation

     Number of k-points >= 100: set verbosity='high' to print the bands.

     the Fermi energy is     7.3396 ev

!    total energy              =    -325.63281551 Ry
     estimated scf accuracy    <          8.5E-10 Ry
     smearing contrib. (-TS)   =      -0.01501891 Ry
     internal energy E=F+TS    =    -325.61779659 Ry

     The total energy is F=E-TS. E is the sum of the following terms:
     one-electron contribution =    -133.40580837 Ry
     hartree contribution      =      83.95217353 Ry
     xc contribution           =     -94.95746157 Ry
     ewald contribution        =    -181.20670018 Ry

     convergence has been achieved in   9 iterations

     Writing all to output data dir ./beta-EOS/beta.save/ :
     XML data file, charge density, pseudopotentials, collected wavefunctions

     init_run     :      3.95s CPU      4.09s WALL (       1 calls)
     electrons    :     76.08s CPU     77.34s WALL (       1 calls)

     Called by init_run:
     wfcinit      :      2.43s CPU      2.47s WALL (       1 calls)
     potinit      :      0.08s CPU      0.10s WALL (       1 calls)
     hinit0       :      0.90s CPU      0.92s WALL (       1 calls)

     Called by electrons:
     c_bands      :     63.44s CPU     64.40s WALL (      10 calls)
     sum_band     :     11.72s CPU     11.89s WALL (      10 calls)
     v_of_rho     :      0.60s CPU      0.67s WALL (      10 calls)
     newd         :      0.24s CPU      0.26s WALL (      10 calls)
     mix_rho      :      0.08s CPU      0.08s WALL (      10 calls)

     Called by c_bands:
     init_us_2    :      1.23s CPU      1.29s WALL (    1281 calls)
     cegterg      :     59.86s CPU     60.44s WALL (     610 calls)

     Called by *egterg:
     cdiaghg      :      1.25s CPU      1.26s WALL (    2180 calls)
     h_psi        :     54.65s CPU     55.20s WALL (    2302 calls)
     s_psi        :      0.82s CPU      0.83s WALL (    2302 calls)
     g_psi        :      0.12s CPU      0.13s WALL (    1631 calls)

     Called by h_psi:
     h_psi:calbec :      2.00s CPU      2.02s WALL (    2302 calls)
     vloc_psi     :     51.34s CPU     51.84s WALL (    2302 calls)
     add_vuspsi   :      0.91s CPU      0.93s WALL (    2302 calls)

     General routines
     calbec       :      2.41s CPU      2.44s WALL (    2912 calls)
     fft          :      1.15s CPU      1.23s WALL (     111 calls)
     ffts         :      0.03s CPU      0.03s WALL (      10 calls)
     fftw         :     53.79s CPU     54.32s WALL (   67706 calls)

     Parallel routines

     PWSCF        :   1m21.93s CPU   1m29.23s WALL


   This run was terminated on:   0:55:42  26Feb2026            

=------------------------------------------------------------------------------=
   JOB DONE.
=------------------------------------------------------------------------------=
