
     Program PWSCF v.7.3.1 starts on 25Feb2026 at 20:52:15 

     This program is part of the open-source Quantum ESPRESSO suite
     for quantum simulation of materials; please cite
         "P. Giannozzi et al., J. Phys.:Condens. Matter 21 395502 (2009);
         "P. Giannozzi et al., J. Phys.:Condens. Matter 29 465901 (2017);
         "P. Giannozzi et al., J. Chem. Phys. 152 154105 (2020);
          URL http://www.quantum-espresso.org", 
     in publications or presentations arising from this work. More details at
     http://www.quantum-espresso.org/quote

     Parallel version (MPI), running on   128 processors

     MPI processes distributed on     1 nodes
     234604 MiB available memory on the printing compute node when the environment starts

     Waiting for input...
     Reading input from standard input

     Current dimensions of program PWSCF are:
     Max number of different atomic species (ntypx) = 10
     Max number of k-points (npk) =  40000
     Max angular momentum in pseudopotentials (lmaxx) =  4

     K-points division:     npool     =       4
     R & G space division:  proc/nbgrp/npool/nimage =      32
     Subspace diagonalization in iterative solution of the eigenvalue problem:
     a serial algorithm will be used


     Parallelization info
     --------------------
     sticks:   dense  smooth     PW     G-vecs:    dense   smooth      PW
     Min         304     304     85                14360    14360    2145
     Max         305     305     86                14363    14363    2147
     Sum        9737    9737   2747               459553   459553   68669

     Using Slab Decomposition



     bravais-lattice index     =            7
     lattice parameter (alat)  =      12.0559  a.u.
     unit-cell volume          =     478.0145 (a.u.)^3
     number of atoms/cell      =            2
     number of atomic types    =            1
     number of electrons       =        28.00
     number of Kohn-Sham states=           14
     kinetic-energy cutoff     =     370.0000  Ry
     charge density cutoff     =    1480.0000  Ry
     scf convergence threshold =      1.0E-07
     mixing beta               =       0.7000
     number of iterations used =            8  plain     mixing
     Exchange-correlation=  SLA  PW   GGX  GGC
                           (   1   4   2   2   0   0   0)

     celldm(1)=  12.055880  celldm(2)=   0.000000  celldm(3)=   0.545600
     celldm(4)=   0.000000  celldm(5)=   0.000000  celldm(6)=   0.000000

     crystal axes: (cart. coord. in units of alat)
               a(1) = (   0.500000  -0.500000   0.272800 )  
               a(2) = (   0.500000   0.500000   0.272800 )  
               a(3) = (  -0.500000  -0.500000   0.272800 )  

     reciprocal axes: (cart. coord. in units 2 pi/alat)
               b(1) = (  1.000000 -1.000000  0.000000 )  
               b(2) = (  0.000000  1.000000  1.832845 )  
               b(3) = ( -1.000000  0.000000  1.832845 )  


     PseudoPot. # 1 for Sn read from file:
     ./Sn.pw91-n-van.UPF
     MD5 check sum: a38d2a872edd1a4efd76c0a1a38f7031
     Pseudo is Ultrasoft + core correction, Zval = 14.0
     Generated by new atomic code, or converted to UPF format
     Using radial grid of  891 points,  6 beta functions with: 
                l(1) =   0
                l(2) =   0
                l(3) =   1
                l(4) =   1
                l(5) =   2
                l(6) =   2
     Q(r) pseudized with  8 coefficients,  rinner =    1.100   1.100   1.100
                                                       1.100   1.100

     atomic species   valence    mass     pseudopotential
     Sn               14.00   118.70000     Sn( 1.00)

     16 Sym. Ops., with inversion, found (12 have fractional translation)



   Cartesian axes

     site n.     atom                  positions (alat units)
         1        Sn     tau(   1) = (   0.0000000  -0.2500000   0.0682000  )
         2        Sn     tau(   2) = (   0.0000000   0.2500000  -0.0682000  )

     number of k points=   244

     Number of k-points >= 100: set verbosity='high' to print them.

     Dense  grid:   459553 G-vectors     FFT dimensions: ( 120, 120, 120)

     Estimated max dynamical RAM per process >      48.23 MB

     Estimated total dynamical RAM >       5.70 GB

     Initial potential from superposition of free atoms

     starting charge      27.9964, renormalised to      28.0000
     Starting wfcs are   18 randomized atomic wfcs

     total cpu time spent up to now is        4.4 secs

     per-process dynamical memory:    47.2 Mb

     Self-consistent Calculation

     iteration #  1     ecut=   370.00 Ry     beta= 0.70
     Davidson diagonalization with overlap
     ethr =  1.00E-02,  avg # of iterations =  2.7

     Threshold (ethr) on eigenvalues was too large:
     Diagonalizing with lowered threshold

     Davidson diagonalization with overlap
     ethr =  1.05E-04,  avg # of iterations =  4.6

     negative rho (up, down):  5.637E-07 0.000E+00

     total cpu time spent up to now is       17.3 secs

     total energy              =    -325.45046734 Ry
     estimated scf accuracy    <       0.03485362 Ry

     iteration #  2     ecut=   370.00 Ry     beta= 0.70
     Davidson diagonalization with overlap
     ethr =  1.24E-04,  avg # of iterations =  4.3

     total cpu time spent up to now is       25.6 secs

     total energy              =    -325.54445426 Ry
     estimated scf accuracy    <       0.02310782 Ry

     iteration #  3     ecut=   370.00 Ry     beta= 0.70
     Davidson diagonalization with overlap
     ethr =  8.25E-05,  avg # of iterations =  2.0

     total cpu time spent up to now is       31.3 secs

     total energy              =    -325.56839839 Ry
     estimated scf accuracy    <       0.00475110 Ry

     iteration #  4     ecut=   370.00 Ry     beta= 0.70
     Davidson diagonalization with overlap
     ethr =  1.70E-05,  avg # of iterations =  2.1

     total cpu time spent up to now is       37.0 secs

     total energy              =    -325.58982581 Ry
     estimated scf accuracy    <       0.00129702 Ry

     iteration #  5     ecut=   370.00 Ry     beta= 0.70
     Davidson diagonalization with overlap
     ethr =  4.63E-06,  avg # of iterations =  3.2

     total cpu time spent up to now is       43.5 secs

     total energy              =    -325.59025107 Ry
     estimated scf accuracy    <       0.00002878 Ry

     iteration #  6     ecut=   370.00 Ry     beta= 0.70
     Davidson diagonalization with overlap
     ethr =  1.03E-07,  avg # of iterations =  3.4

     total cpu time spent up to now is       50.0 secs

     total energy              =    -325.59041544 Ry
     estimated scf accuracy    <       0.00000082 Ry

     iteration #  7     ecut=   370.00 Ry     beta= 0.70
     Davidson diagonalization with overlap
     ethr =  2.94E-09,  avg # of iterations =  4.2

     total cpu time spent up to now is       58.2 secs

     total energy              =    -325.59041875 Ry
     estimated scf accuracy    <       0.00000039 Ry

     iteration #  8     ecut=   370.00 Ry     beta= 0.70
     Davidson diagonalization with overlap
     ethr =  1.40E-09,  avg # of iterations =  2.3

     total cpu time spent up to now is       64.3 secs

     End of self-consistent calculation

     Number of k-points >= 100: set verbosity='high' to print the bands.

     highest occupied level (ev):     8.2448

!    total energy              =    -325.59041905 Ry
     estimated scf accuracy    <       0.00000005 Ry

     The total energy is the sum of the following terms:
     one-electron contribution =    -134.49990252 Ry
     hartree contribution      =      84.40873592 Ry
     xc contribution           =     -94.95509962 Ry
     ewald contribution        =    -180.54415283 Ry

     convergence has been achieved in   8 iterations

     Writing all to output data dir ./beta-EOS/beta.save/ :
     XML data file, charge density, pseudopotentials, collected wavefunctions

     init_run     :      3.99s CPU      4.08s WALL (       1 calls)
     electrons    :     59.15s CPU     60.06s WALL (       1 calls)

     Called by init_run:
     wfcinit      :      2.43s CPU      2.47s WALL (       1 calls)
     potinit      :      0.08s CPU      0.10s WALL (       1 calls)
     hinit0       :      0.91s CPU      0.92s WALL (       1 calls)

     Called by electrons:
     c_bands      :     49.84s CPU     50.54s WALL (       9 calls)
     sum_band     :      8.50s CPU      8.57s WALL (       9 calls)
     v_of_rho     :      0.56s CPU      0.60s WALL (       9 calls)
     newd         :      0.22s CPU      0.23s WALL (       9 calls)
     mix_rho      :      0.07s CPU      0.07s WALL (       9 calls)

     Called by c_bands:
     init_us_2    :      1.09s CPU      1.12s WALL (    1159 calls)
     cegterg      :     45.45s CPU     45.85s WALL (     549 calls)

     Called by *egterg:
     cdiaghg      :      0.89s CPU      0.90s WALL (    2354 calls)
     h_psi        :     41.83s CPU     42.21s WALL (    2476 calls)
     s_psi        :      0.71s CPU      0.72s WALL (    2476 calls)
     g_psi        :      0.10s CPU      0.10s WALL (    1866 calls)

     Called by h_psi:
     h_psi:calbec :      1.88s CPU      1.89s WALL (    2476 calls)
     vloc_psi     :     38.85s CPU     39.21s WALL (    2476 calls)
     add_vuspsi   :      0.84s CPU      0.84s WALL (    2476 calls)

     General routines
     calbec       :      2.21s CPU      2.23s WALL (    3025 calls)
     fft          :      1.15s CPU      1.19s WALL (     100 calls)
     ffts         :      0.03s CPU      0.03s WALL (       9 calls)
     fftw         :     39.95s CPU     40.30s WALL (   50234 calls)

     Parallel routines

     PWSCF        :   1m 4.73s CPU   1m10.35s WALL


   This run was terminated on:  20:53:25  25Feb2026            

=------------------------------------------------------------------------------=
   JOB DONE.
=------------------------------------------------------------------------------=
