
     Program PWSCF v.7.3.1 starts on 25Feb2026 at 20:53:28 

     This program is part of the open-source Quantum ESPRESSO suite
     for quantum simulation of materials; please cite
         "P. Giannozzi et al., J. Phys.:Condens. Matter 21 395502 (2009);
         "P. Giannozzi et al., J. Phys.:Condens. Matter 29 465901 (2017);
         "P. Giannozzi et al., J. Chem. Phys. 152 154105 (2020);
          URL http://www.quantum-espresso.org", 
     in publications or presentations arising from this work. More details at
     http://www.quantum-espresso.org/quote

     Parallel version (MPI), running on   128 processors

     MPI processes distributed on     1 nodes
     238340 MiB available memory on the printing compute node when the environment starts

     Waiting for input...
     Reading input from standard input

     Current dimensions of program PWSCF are:
     Max number of different atomic species (ntypx) = 10
     Max number of k-points (npk) =  40000
     Max angular momentum in pseudopotentials (lmaxx) =  4

     K-points division:     npool     =       4
     R & G space division:  proc/nbgrp/npool/nimage =      32
     Subspace diagonalization in iterative solution of the eigenvalue problem:
     a serial algorithm will be used


     Parallelization info
     --------------------
     sticks:   dense  smooth     PW     G-vecs:    dense   smooth      PW
     Min         305     305     85                14436    14436    2154
     Max         306     306     86                14438    14438    2157
     Sum        9773    9773   2747               461977   461977   68997

     Using Slab Decomposition



     bravais-lattice index     =            7
     lattice parameter (alat)  =      12.0779  a.u.
     unit-cell volume          =     480.6410 (a.u.)^3
     number of atoms/cell      =            2
     number of atomic types    =            1
     number of electrons       =        28.00
     number of Kohn-Sham states=           14
     kinetic-energy cutoff     =     370.0000  Ry
     charge density cutoff     =    1480.0000  Ry
     scf convergence threshold =      1.0E-07
     mixing beta               =       0.7000
     number of iterations used =            8  plain     mixing
     Exchange-correlation=  SLA  PW   GGX  GGC
                           (   1   4   2   2   0   0   0)

     celldm(1)=  12.077920  celldm(2)=   0.000000  celldm(3)=   0.545600
     celldm(4)=   0.000000  celldm(5)=   0.000000  celldm(6)=   0.000000

     crystal axes: (cart. coord. in units of alat)
               a(1) = (   0.500000  -0.500000   0.272800 )  
               a(2) = (   0.500000   0.500000   0.272800 )  
               a(3) = (  -0.500000  -0.500000   0.272800 )  

     reciprocal axes: (cart. coord. in units 2 pi/alat)
               b(1) = (  1.000000 -1.000000  0.000000 )  
               b(2) = (  0.000000  1.000000  1.832845 )  
               b(3) = ( -1.000000  0.000000  1.832845 )  


     PseudoPot. # 1 for Sn read from file:
     ./Sn.pw91-n-van.UPF
     MD5 check sum: a38d2a872edd1a4efd76c0a1a38f7031
     Pseudo is Ultrasoft + core correction, Zval = 14.0
     Generated by new atomic code, or converted to UPF format
     Using radial grid of  891 points,  6 beta functions with: 
                l(1) =   0
                l(2) =   0
                l(3) =   1
                l(4) =   1
                l(5) =   2
                l(6) =   2
     Q(r) pseudized with  8 coefficients,  rinner =    1.100   1.100   1.100
                                                       1.100   1.100

     atomic species   valence    mass     pseudopotential
     Sn               14.00   118.70000     Sn( 1.00)

     16 Sym. Ops., with inversion, found (12 have fractional translation)



   Cartesian axes

     site n.     atom                  positions (alat units)
         1        Sn     tau(   1) = (   0.0000000  -0.2500000   0.0682000  )
         2        Sn     tau(   2) = (   0.0000000   0.2500000  -0.0682000  )

     number of k points=   244

     Number of k-points >= 100: set verbosity='high' to print them.

     Dense  grid:   461977 G-vectors     FFT dimensions: ( 120, 120, 120)

     Estimated max dynamical RAM per process >      48.46 MB

     Estimated total dynamical RAM >       5.73 GB

     Initial potential from superposition of free atoms

     starting charge      27.9964, renormalised to      28.0000
     Starting wfcs are   18 randomized atomic wfcs

     total cpu time spent up to now is        4.4 secs

     per-process dynamical memory:    46.3 Mb

     Self-consistent Calculation

     iteration #  1     ecut=   370.00 Ry     beta= 0.70
     Davidson diagonalization with overlap
     ethr =  1.00E-02,  avg # of iterations =  2.7

     Threshold (ethr) on eigenvalues was too large:
     Diagonalizing with lowered threshold

     Davidson diagonalization with overlap
     ethr =  1.04E-04,  avg # of iterations =  4.6

     negative rho (up, down):  4.522E-07 0.000E+00

     total cpu time spent up to now is       17.4 secs

     total energy              =    -325.45112912 Ry
     estimated scf accuracy    <       0.03474367 Ry

     iteration #  2     ecut=   370.00 Ry     beta= 0.70
     Davidson diagonalization with overlap
     ethr =  1.24E-04,  avg # of iterations =  4.3

     total cpu time spent up to now is       25.7 secs

     total energy              =    -325.54368301 Ry
     estimated scf accuracy    <       0.02275152 Ry

     iteration #  3     ecut=   370.00 Ry     beta= 0.70
     Davidson diagonalization with overlap
     ethr =  8.13E-05,  avg # of iterations =  2.0

     total cpu time spent up to now is       31.3 secs

     total energy              =    -325.56764590 Ry
     estimated scf accuracy    <       0.00465166 Ry

     iteration #  4     ecut=   370.00 Ry     beta= 0.70
     Davidson diagonalization with overlap
     ethr =  1.66E-05,  avg # of iterations =  2.1

     total cpu time spent up to now is       37.0 secs

     total energy              =    -325.58900017 Ry
     estimated scf accuracy    <       0.00126408 Ry

     iteration #  5     ecut=   370.00 Ry     beta= 0.70
     Davidson diagonalization with overlap
     ethr =  4.51E-06,  avg # of iterations =  3.3

     total cpu time spent up to now is       43.5 secs

     total energy              =    -325.58940006 Ry
     estimated scf accuracy    <       0.00003095 Ry

     iteration #  6     ecut=   370.00 Ry     beta= 0.70
     Davidson diagonalization with overlap
     ethr =  1.11E-07,  avg # of iterations =  3.3

     total cpu time spent up to now is       50.0 secs

     total energy              =    -325.58953994 Ry
     estimated scf accuracy    <       0.00000044 Ry

     iteration #  7     ecut=   370.00 Ry     beta= 0.70
     Davidson diagonalization with overlap
     ethr =  1.57E-09,  avg # of iterations =  4.9

     total cpu time spent up to now is       58.6 secs

     total energy              =    -325.58954149 Ry
     estimated scf accuracy    <       0.00000058 Ry

     iteration #  8     ecut=   370.00 Ry     beta= 0.70
     Davidson diagonalization with overlap
     ethr =  1.57E-09,  avg # of iterations =  2.0

     total cpu time spent up to now is       64.2 secs

     End of self-consistent calculation

     Number of k-points >= 100: set verbosity='high' to print the bands.

     highest occupied level (ev):     8.2482

!    total energy              =    -325.58954187 Ry
     estimated scf accuracy    <       0.00000001 Ry

     The total energy is the sum of the following terms:
     one-electron contribution =    -135.03523433 Ry
     hartree contribution      =      84.61113397 Ry
     xc contribution           =     -94.95074881 Ry
     ewald contribution        =    -180.21469270 Ry

     convergence has been achieved in   8 iterations

     Writing all to output data dir ./beta-EOS/beta.save/ :
     XML data file, charge density, pseudopotentials, collected wavefunctions

     init_run     :      4.02s CPU      4.13s WALL (       1 calls)
     electrons    :     58.96s CPU     61.97s WALL (       1 calls)

     Called by init_run:
     wfcinit      :      2.47s CPU      2.51s WALL (       1 calls)
     potinit      :      0.09s CPU      0.10s WALL (       1 calls)
     hinit0       :      0.89s CPU      0.92s WALL (       1 calls)

     Called by electrons:
     c_bands      :     49.67s CPU     50.41s WALL (       9 calls)
     sum_band     :      8.47s CPU      8.55s WALL (       9 calls)
     v_of_rho     :      0.56s CPU      0.59s WALL (       9 calls)
     newd         :      0.21s CPU      0.23s WALL (       9 calls)
     mix_rho      :      0.07s CPU      0.07s WALL (       9 calls)

     Called by c_bands:
     init_us_2    :      1.07s CPU      1.11s WALL (    1159 calls)
     cegterg      :     45.57s CPU     46.00s WALL (     549 calls)

     Called by *egterg:
     cdiaghg      :      0.91s CPU      0.92s WALL (    2376 calls)
     h_psi        :     41.93s CPU     42.33s WALL (    2498 calls)
     s_psi        :      0.71s CPU      0.72s WALL (    2498 calls)
     g_psi        :      0.10s CPU      0.10s WALL (    1888 calls)

     Called by h_psi:
     h_psi:calbec :      1.90s CPU      1.92s WALL (    2498 calls)
     vloc_psi     :     38.93s CPU     39.29s WALL (    2498 calls)
     add_vuspsi   :      0.85s CPU      0.86s WALL (    2498 calls)

     General routines
     calbec       :      2.23s CPU      2.26s WALL (    3047 calls)
     fft          :      1.13s CPU      1.18s WALL (     100 calls)
     ffts         :      0.04s CPU      0.04s WALL (       9 calls)
     fftw         :     40.03s CPU     40.37s WALL (   50292 calls)

     Parallel routines

     PWSCF        :   1m 6.63s CPU   1m46.90s WALL


   This run was terminated on:  20:55:15  25Feb2026            

=------------------------------------------------------------------------------=
   JOB DONE.
=------------------------------------------------------------------------------=
