
     Program PWSCF v.7.3.1 starts on 26Feb2026 at  1: 0:17 

     This program is part of the open-source Quantum ESPRESSO suite
     for quantum simulation of materials; please cite
         "P. Giannozzi et al., J. Phys.:Condens. Matter 21 395502 (2009);
         "P. Giannozzi et al., J. Phys.:Condens. Matter 29 465901 (2017);
         "P. Giannozzi et al., J. Chem. Phys. 152 154105 (2020);
          URL http://www.quantum-espresso.org", 
     in publications or presentations arising from this work. More details at
     http://www.quantum-espresso.org/quote

     Parallel version (MPI), running on   128 processors

     MPI processes distributed on     1 nodes
     237352 MiB available memory on the printing compute node when the environment starts

     Waiting for input...
     Reading input from standard input

     Current dimensions of program PWSCF are:
     Max number of different atomic species (ntypx) = 10
     Max number of k-points (npk) =  40000
     Max angular momentum in pseudopotentials (lmaxx) =  4

     K-points division:     npool     =       4
     R & G space division:  proc/nbgrp/npool/nimage =      32
     Subspace diagonalization in iterative solution of the eigenvalue problem:
     a serial algorithm will be used


     Parallelization info
     --------------------
     sticks:   dense  smooth     PW     G-vecs:    dense   smooth      PW
     Min         307     307     86                14520    14520    2167
     Max         308     308     87                14522    14522    2169
     Sum        9827    9827   2755               464669   464669   69373

     Using Slab Decomposition



     bravais-lattice index     =            7
     lattice parameter (alat)  =      12.1000  a.u.
     unit-cell volume          =     483.2770 (a.u.)^3
     number of atoms/cell      =            2
     number of atomic types    =            1
     number of electrons       =        28.00
     number of Kohn-Sham states=           18
     kinetic-energy cutoff     =     370.0000  Ry
     charge density cutoff     =    1480.0000  Ry
     scf convergence threshold =      1.0E-07
     mixing beta               =       0.7000
     number of iterations used =            8  plain     mixing
     Exchange-correlation=  SLA  PW   GGX  GGC
                           (   1   4   2   2   0   0   0)

     celldm(1)=  12.099960  celldm(2)=   0.000000  celldm(3)=   0.545600
     celldm(4)=   0.000000  celldm(5)=   0.000000  celldm(6)=   0.000000

     crystal axes: (cart. coord. in units of alat)
               a(1) = (   0.500000  -0.500000   0.272800 )  
               a(2) = (   0.500000   0.500000   0.272800 )  
               a(3) = (  -0.500000  -0.500000   0.272800 )  

     reciprocal axes: (cart. coord. in units 2 pi/alat)
               b(1) = (  1.000000 -1.000000  0.000000 )  
               b(2) = (  0.000000  1.000000  1.832845 )  
               b(3) = ( -1.000000  0.000000  1.832845 )  


     PseudoPot. # 1 for Sn read from file:
     ./Sn.pw91-n-van.UPF
     MD5 check sum: a38d2a872edd1a4efd76c0a1a38f7031
     Pseudo is Ultrasoft + core correction, Zval = 14.0
     Generated by new atomic code, or converted to UPF format
     Using radial grid of  891 points,  6 beta functions with: 
                l(1) =   0
                l(2) =   0
                l(3) =   1
                l(4) =   1
                l(5) =   2
                l(6) =   2
     Q(r) pseudized with  8 coefficients,  rinner =    1.100   1.100   1.100
                                                       1.100   1.100

     atomic species   valence    mass     pseudopotential
     Sn               14.00   118.70000     Sn( 1.00)

     16 Sym. Ops., with inversion, found (12 have fractional translation)



   Cartesian axes

     site n.     atom                  positions (alat units)
         1        Sn     tau(   1) = (   0.0000000  -0.2500000   0.0682000  )
         2        Sn     tau(   2) = (   0.0000000   0.2500000  -0.0682000  )

     number of k points=   244  Gaussian smearing, width (Ry)=  0.0400

     Number of k-points >= 100: set verbosity='high' to print them.

     Dense  grid:   464669 G-vectors     FFT dimensions: ( 120, 120, 120)

     Estimated max dynamical RAM per process >      55.56 MB

     Estimated total dynamical RAM >       6.61 GB

     Initial potential from superposition of free atoms

     starting charge      27.9964, renormalised to      28.0000
     Starting wfcs are   18 randomized atomic wfcs

     total cpu time spent up to now is        4.4 secs

     per-process dynamical memory:    53.4 Mb

     Self-consistent Calculation

     iteration #  1     ecut=   370.00 Ry     beta= 0.70
     Davidson diagonalization with overlap
     ethr =  1.00E-02,  avg # of iterations =  4.0

     Threshold (ethr) on eigenvalues was too large:
     Diagonalizing with lowered threshold

     Davidson diagonalization with overlap
     ethr =  1.26E-04,  avg # of iterations =  2.7

     negative rho (up, down):  1.042E-06 0.000E+00

     total cpu time spent up to now is       20.7 secs

     total energy              =    -325.48916059 Ry
     estimated scf accuracy    <       0.03701774 Ry

     iteration #  2     ecut=   370.00 Ry     beta= 0.70
     Davidson diagonalization with overlap
     ethr =  1.32E-04,  avg # of iterations =  4.0

     total cpu time spent up to now is       31.2 secs

     total energy              =    -325.58310832 Ry
     estimated scf accuracy    <       0.02322249 Ry

     iteration #  3     ecut=   370.00 Ry     beta= 0.70
     Davidson diagonalization with overlap
     ethr =  8.29E-05,  avg # of iterations =  2.0

     total cpu time spent up to now is       38.0 secs

     total energy              =    -325.60594088 Ry
     estimated scf accuracy    <       0.00464832 Ry

     iteration #  4     ecut=   370.00 Ry     beta= 0.70
     Davidson diagonalization with overlap
     ethr =  1.66E-05,  avg # of iterations =  2.1

     total cpu time spent up to now is       45.2 secs

     total energy              =    -325.62811638 Ry
     estimated scf accuracy    <       0.00133566 Ry

     iteration #  5     ecut=   370.00 Ry     beta= 0.70
     Davidson diagonalization with overlap
     ethr =  4.77E-06,  avg # of iterations =  2.7

     total cpu time spent up to now is       53.2 secs

     total energy              =    -325.62855783 Ry
     estimated scf accuracy    <       0.00004886 Ry

     iteration #  6     ecut=   370.00 Ry     beta= 0.70
     Davidson diagonalization with overlap
     ethr =  1.74E-07,  avg # of iterations =  2.0

     total cpu time spent up to now is       59.9 secs

     total energy              =    -325.62860045 Ry
     estimated scf accuracy    <       0.00000725 Ry

     iteration #  7     ecut=   370.00 Ry     beta= 0.70
     Davidson diagonalization with overlap
     ethr =  2.59E-08,  avg # of iterations =  2.0

     total cpu time spent up to now is       67.2 secs

     total energy              =    -325.62860670 Ry
     estimated scf accuracy    <       0.00000036 Ry

     iteration #  8     ecut=   370.00 Ry     beta= 0.70
     Davidson diagonalization with overlap
     ethr =  1.28E-09,  avg # of iterations =  2.0

     total cpu time spent up to now is       74.8 secs

     End of self-consistent calculation

     Number of k-points >= 100: set verbosity='high' to print the bands.

     the Fermi energy is     7.0880 ev

!    total energy              =    -325.62860675 Ry
     estimated scf accuracy    <       0.00000009 Ry
     smearing contrib. (-TS)   =      -0.01547257 Ry
     internal energy E=F+TS    =    -325.61313419 Ry

     The total energy is F=E-TS. E is the sum of the following terms:
     one-electron contribution =    -135.54644374 Ry
     hartree contribution      =      84.75890727 Ry
     xc contribution           =     -94.93916493 Ry
     ewald contribution        =    -179.88643278 Ry

     convergence has been achieved in   8 iterations

     Writing all to output data dir ./beta-EOS/beta.save/ :
     XML data file, charge density, pseudopotentials, collected wavefunctions

     init_run     :      3.97s CPU      4.11s WALL (       1 calls)
     electrons    :     69.46s CPU     70.54s WALL (       1 calls)

     Called by init_run:
     wfcinit      :      2.42s CPU      2.48s WALL (       1 calls)
     potinit      :      0.08s CPU      0.10s WALL (       1 calls)
     hinit0       :      0.91s CPU      0.92s WALL (       1 calls)

     Called by electrons:
     c_bands      :     57.98s CPU     58.78s WALL (       9 calls)
     sum_band     :     10.66s CPU     10.80s WALL (       9 calls)
     v_of_rho     :      0.54s CPU      0.60s WALL (       9 calls)
     newd         :      0.22s CPU      0.24s WALL (       9 calls)
     mix_rho      :      0.07s CPU      0.07s WALL (       9 calls)

     Called by c_bands:
     init_us_2    :      1.16s CPU      1.19s WALL (    1159 calls)
     cegterg      :     54.41s CPU     54.88s WALL (     549 calls)

     Called by *egterg:
     cdiaghg      :      1.15s CPU      1.16s WALL (    1996 calls)
     h_psi        :     49.71s CPU     50.18s WALL (    2118 calls)
     s_psi        :      0.76s CPU      0.76s WALL (    2118 calls)
     g_psi        :      0.11s CPU      0.12s WALL (    1508 calls)

     Called by h_psi:
     h_psi:calbec :      1.87s CPU      1.88s WALL (    2118 calls)
     vloc_psi     :     46.65s CPU     47.09s WALL (    2118 calls)
     add_vuspsi   :      0.85s CPU      0.85s WALL (    2118 calls)

     General routines
     calbec       :      2.25s CPU      2.27s WALL (    2667 calls)
     fft          :      1.13s CPU      1.19s WALL (     100 calls)
     ffts         :      0.02s CPU      0.03s WALL (       9 calls)
     fftw         :     48.68s CPU     49.13s WALL (   61266 calls)

     Parallel routines

     PWSCF        :   1m14.68s CPU   1m22.72s WALL


   This run was terminated on:   1: 1:40  26Feb2026            

=------------------------------------------------------------------------------=
   JOB DONE.
=------------------------------------------------------------------------------=
