
     Program PWSCF v.7.3.1 starts on 25Feb2026 at 20:55:20 

     This program is part of the open-source Quantum ESPRESSO suite
     for quantum simulation of materials; please cite
         "P. Giannozzi et al., J. Phys.:Condens. Matter 21 395502 (2009);
         "P. Giannozzi et al., J. Phys.:Condens. Matter 29 465901 (2017);
         "P. Giannozzi et al., J. Chem. Phys. 152 154105 (2020);
          URL http://www.quantum-espresso.org", 
     in publications or presentations arising from this work. More details at
     http://www.quantum-espresso.org/quote

     Parallel version (MPI), running on   128 processors

     MPI processes distributed on     1 nodes
     238387 MiB available memory on the printing compute node when the environment starts

     Waiting for input...
     Reading input from standard input

     Current dimensions of program PWSCF are:
     Max number of different atomic species (ntypx) = 10
     Max number of k-points (npk) =  40000
     Max angular momentum in pseudopotentials (lmaxx) =  4

     K-points division:     npool     =       4
     R & G space division:  proc/nbgrp/npool/nimage =      32
     Subspace diagonalization in iterative solution of the eigenvalue problem:
     a serial algorithm will be used


     Parallelization info
     --------------------
     sticks:   dense  smooth     PW     G-vecs:    dense   smooth      PW
     Min         307     307     86                14520    14520    2167
     Max         308     308     87                14522    14522    2169
     Sum        9827    9827   2755               464669   464669   69373

     Using Slab Decomposition



     bravais-lattice index     =            7
     lattice parameter (alat)  =      12.1000  a.u.
     unit-cell volume          =     483.2770 (a.u.)^3
     number of atoms/cell      =            2
     number of atomic types    =            1
     number of electrons       =        28.00
     number of Kohn-Sham states=           14
     kinetic-energy cutoff     =     370.0000  Ry
     charge density cutoff     =    1480.0000  Ry
     scf convergence threshold =      1.0E-07
     mixing beta               =       0.7000
     number of iterations used =            8  plain     mixing
     Exchange-correlation=  SLA  PW   GGX  GGC
                           (   1   4   2   2   0   0   0)

     celldm(1)=  12.099960  celldm(2)=   0.000000  celldm(3)=   0.545600
     celldm(4)=   0.000000  celldm(5)=   0.000000  celldm(6)=   0.000000

     crystal axes: (cart. coord. in units of alat)
               a(1) = (   0.500000  -0.500000   0.272800 )  
               a(2) = (   0.500000   0.500000   0.272800 )  
               a(3) = (  -0.500000  -0.500000   0.272800 )  

     reciprocal axes: (cart. coord. in units 2 pi/alat)
               b(1) = (  1.000000 -1.000000  0.000000 )  
               b(2) = (  0.000000  1.000000  1.832845 )  
               b(3) = ( -1.000000  0.000000  1.832845 )  


     PseudoPot. # 1 for Sn read from file:
     ./Sn.pw91-n-van.UPF
     MD5 check sum: a38d2a872edd1a4efd76c0a1a38f7031
     Pseudo is Ultrasoft + core correction, Zval = 14.0
     Generated by new atomic code, or converted to UPF format
     Using radial grid of  891 points,  6 beta functions with: 
                l(1) =   0
                l(2) =   0
                l(3) =   1
                l(4) =   1
                l(5) =   2
                l(6) =   2
     Q(r) pseudized with  8 coefficients,  rinner =    1.100   1.100   1.100
                                                       1.100   1.100

     atomic species   valence    mass     pseudopotential
     Sn               14.00   118.70000     Sn( 1.00)

     16 Sym. Ops., with inversion, found (12 have fractional translation)



   Cartesian axes

     site n.     atom                  positions (alat units)
         1        Sn     tau(   1) = (   0.0000000  -0.2500000   0.0682000  )
         2        Sn     tau(   2) = (   0.0000000   0.2500000  -0.0682000  )

     number of k points=   244

     Number of k-points >= 100: set verbosity='high' to print them.

     Dense  grid:   464669 G-vectors     FFT dimensions: ( 120, 120, 120)

     Estimated max dynamical RAM per process >      48.69 MB

     Estimated total dynamical RAM >       5.75 GB

     Initial potential from superposition of free atoms

     starting charge      27.9964, renormalised to      28.0000
     Starting wfcs are   18 randomized atomic wfcs

     total cpu time spent up to now is        4.4 secs

     per-process dynamical memory:    46.3 Mb

     Self-consistent Calculation

     iteration #  1     ecut=   370.00 Ry     beta= 0.70
     Davidson diagonalization with overlap
     ethr =  1.00E-02,  avg # of iterations =  2.6

     Threshold (ethr) on eigenvalues was too large:
     Diagonalizing with lowered threshold

     Davidson diagonalization with overlap
     ethr =  1.04E-04,  avg # of iterations =  4.5

     negative rho (up, down):  4.356E-07 0.000E+00

     total cpu time spent up to now is       17.5 secs

     total energy              =    -325.45192858 Ry
     estimated scf accuracy    <       0.03455167 Ry

     iteration #  2     ecut=   370.00 Ry     beta= 0.70
     Davidson diagonalization with overlap
     ethr =  1.23E-04,  avg # of iterations =  4.3

     total cpu time spent up to now is       25.8 secs

     total energy              =    -325.54269861 Ry
     estimated scf accuracy    <       0.02244431 Ry

     iteration #  3     ecut=   370.00 Ry     beta= 0.70
     Davidson diagonalization with overlap
     ethr =  8.02E-05,  avg # of iterations =  2.0

     total cpu time spent up to now is       31.4 secs

     total energy              =    -325.56673554 Ry
     estimated scf accuracy    <       0.00458793 Ry

     iteration #  4     ecut=   370.00 Ry     beta= 0.70
     Davidson diagonalization with overlap
     ethr =  1.64E-05,  avg # of iterations =  2.1

     total cpu time spent up to now is       37.2 secs

     total energy              =    -325.58815085 Ry
     estimated scf accuracy    <       0.00123958 Ry

     iteration #  5     ecut=   370.00 Ry     beta= 0.70
     Davidson diagonalization with overlap
     ethr =  4.43E-06,  avg # of iterations =  3.3

     total cpu time spent up to now is       43.7 secs

     total energy              =    -325.58860934 Ry
     estimated scf accuracy    <       0.00003056 Ry

     iteration #  6     ecut=   370.00 Ry     beta= 0.70
     Davidson diagonalization with overlap
     ethr =  1.09E-07,  avg # of iterations =  3.3

     total cpu time spent up to now is       50.2 secs

     total energy              =    -325.58874213 Ry
     estimated scf accuracy    <       0.00000054 Ry

     iteration #  7     ecut=   370.00 Ry     beta= 0.70
     Davidson diagonalization with overlap
     ethr =  1.94E-09,  avg # of iterations =  4.8

     total cpu time spent up to now is       58.9 secs

     total energy              =    -325.58874360 Ry
     estimated scf accuracy    <       0.00000062 Ry

     iteration #  8     ecut=   370.00 Ry     beta= 0.70
     Davidson diagonalization with overlap
     ethr =  1.94E-09,  avg # of iterations =  2.0

     total cpu time spent up to now is       64.5 secs

     End of self-consistent calculation

     Number of k-points >= 100: set verbosity='high' to print the bands.

     highest occupied level (ev):     8.1013

!    total energy              =    -325.58874398 Ry
     estimated scf accuracy    <       0.00000001 Ry

     The total energy is the sum of the following terms:
     one-electron contribution =    -135.56823749 Ry
     hartree contribution      =      84.81216541 Ry
     xc contribution           =     -94.94623912 Ry
     ewald contribution        =    -179.88643278 Ry

     convergence has been achieved in   8 iterations

     Writing all to output data dir ./beta-EOS/beta.save/ :
     XML data file, charge density, pseudopotentials, collected wavefunctions

     init_run     :      4.00s CPU      4.16s WALL (       1 calls)
     electrons    :     59.22s CPU     60.28s WALL (       1 calls)

     Called by init_run:
     wfcinit      :      2.47s CPU      2.54s WALL (       1 calls)
     potinit      :      0.07s CPU      0.10s WALL (       1 calls)
     hinit0       :      0.90s CPU      0.93s WALL (       1 calls)

     Called by electrons:
     c_bands      :     49.80s CPU     50.52s WALL (       9 calls)
     sum_band     :      8.58s CPU      8.66s WALL (       9 calls)
     v_of_rho     :      0.56s CPU      0.60s WALL (       9 calls)
     newd         :      0.21s CPU      0.23s WALL (       9 calls)
     mix_rho      :      0.07s CPU      0.07s WALL (       9 calls)

     Called by c_bands:
     init_us_2    :      1.09s CPU      1.13s WALL (    1159 calls)
     cegterg      :     45.86s CPU     46.27s WALL (     549 calls)

     Called by *egterg:
     cdiaghg      :      0.90s CPU      0.91s WALL (    2372 calls)
     h_psi        :     42.19s CPU     42.59s WALL (    2494 calls)
     s_psi        :      0.72s CPU      0.73s WALL (    2494 calls)
     g_psi        :      0.10s CPU      0.10s WALL (    1884 calls)

     Called by h_psi:
     h_psi:calbec :      1.89s CPU      1.91s WALL (    2494 calls)
     vloc_psi     :     39.19s CPU     39.55s WALL (    2494 calls)
     add_vuspsi   :      0.85s CPU      0.86s WALL (    2494 calls)

     General routines
     calbec       :      2.23s CPU      2.25s WALL (    3043 calls)
     fft          :      1.16s CPU      1.21s WALL (     100 calls)
     ffts         :      0.03s CPU      0.04s WALL (       9 calls)
     fftw         :     40.34s CPU     40.69s WALL (   50220 calls)

     Parallel routines

     PWSCF        :   1m 5.96s CPU   1m14.98s WALL


   This run was terminated on:  20:56:35  25Feb2026            

=------------------------------------------------------------------------------=
   JOB DONE.
=------------------------------------------------------------------------------=
