
     Program PWSCF v.7.3.1 starts on 26Feb2026 at  1: 1:45 

     This program is part of the open-source Quantum ESPRESSO suite
     for quantum simulation of materials; please cite
         "P. Giannozzi et al., J. Phys.:Condens. Matter 21 395502 (2009);
         "P. Giannozzi et al., J. Phys.:Condens. Matter 29 465901 (2017);
         "P. Giannozzi et al., J. Chem. Phys. 152 154105 (2020);
          URL http://www.quantum-espresso.org", 
     in publications or presentations arising from this work. More details at
     http://www.quantum-espresso.org/quote

     Parallel version (MPI), running on   128 processors

     MPI processes distributed on     1 nodes
     237310 MiB available memory on the printing compute node when the environment starts

     Waiting for input...
     Reading input from standard input

     Current dimensions of program PWSCF are:
     Max number of different atomic species (ntypx) = 10
     Max number of k-points (npk) =  40000
     Max angular momentum in pseudopotentials (lmaxx) =  4

     K-points division:     npool     =       4
     R & G space division:  proc/nbgrp/npool/nimage =      32
     Subspace diagonalization in iterative solution of the eigenvalue problem:
     a serial algorithm will be used


     Parallelization info
     --------------------
     sticks:   dense  smooth     PW     G-vecs:    dense   smooth      PW
     Min         308     308     86                14601    14601    2179
     Max         309     309     87                14603    14603    2181
     Sum        9871    9871   2767               467269   467269   69765

     Using Slab Decomposition



     bravais-lattice index     =            7
     lattice parameter (alat)  =      12.1220  a.u.
     unit-cell volume          =     485.9227 (a.u.)^3
     number of atoms/cell      =            2
     number of atomic types    =            1
     number of electrons       =        28.00
     number of Kohn-Sham states=           18
     kinetic-energy cutoff     =     370.0000  Ry
     charge density cutoff     =    1480.0000  Ry
     scf convergence threshold =      1.0E-07
     mixing beta               =       0.7000
     number of iterations used =            8  plain     mixing
     Exchange-correlation=  SLA  PW   GGX  GGC
                           (   1   4   2   2   0   0   0)

     celldm(1)=  12.122000  celldm(2)=   0.000000  celldm(3)=   0.545600
     celldm(4)=   0.000000  celldm(5)=   0.000000  celldm(6)=   0.000000

     crystal axes: (cart. coord. in units of alat)
               a(1) = (   0.500000  -0.500000   0.272800 )  
               a(2) = (   0.500000   0.500000   0.272800 )  
               a(3) = (  -0.500000  -0.500000   0.272800 )  

     reciprocal axes: (cart. coord. in units 2 pi/alat)
               b(1) = (  1.000000 -1.000000  0.000000 )  
               b(2) = (  0.000000  1.000000  1.832845 )  
               b(3) = ( -1.000000  0.000000  1.832845 )  


     PseudoPot. # 1 for Sn read from file:
     ./Sn.pw91-n-van.UPF
     MD5 check sum: a38d2a872edd1a4efd76c0a1a38f7031
     Pseudo is Ultrasoft + core correction, Zval = 14.0
     Generated by new atomic code, or converted to UPF format
     Using radial grid of  891 points,  6 beta functions with: 
                l(1) =   0
                l(2) =   0
                l(3) =   1
                l(4) =   1
                l(5) =   2
                l(6) =   2
     Q(r) pseudized with  8 coefficients,  rinner =    1.100   1.100   1.100
                                                       1.100   1.100

     atomic species   valence    mass     pseudopotential
     Sn               14.00   118.70000     Sn( 1.00)

     16 Sym. Ops., with inversion, found (12 have fractional translation)



   Cartesian axes

     site n.     atom                  positions (alat units)
         1        Sn     tau(   1) = (   0.0000000  -0.2500000   0.0682000  )
         2        Sn     tau(   2) = (   0.0000000   0.2500000  -0.0682000  )

     number of k points=   244  Gaussian smearing, width (Ry)=  0.0400

     Number of k-points >= 100: set verbosity='high' to print them.

     Dense  grid:   467269 G-vectors     FFT dimensions: ( 120, 120, 120)

     Estimated max dynamical RAM per process >      55.83 MB

     Estimated total dynamical RAM >       6.64 GB

     Initial potential from superposition of free atoms

     starting charge      27.9964, renormalised to      28.0000
     Starting wfcs are   18 randomized atomic wfcs

     total cpu time spent up to now is        4.4 secs

     per-process dynamical memory:    53.8 Mb

     Self-consistent Calculation

     iteration #  1     ecut=   370.00 Ry     beta= 0.70
     Davidson diagonalization with overlap
     ethr =  1.00E-02,  avg # of iterations =  4.0

     Threshold (ethr) on eigenvalues was too large:
     Diagonalizing with lowered threshold

     Davidson diagonalization with overlap
     ethr =  1.26E-04,  avg # of iterations =  2.7

     negative rho (up, down):  1.079E-06 0.000E+00

     total cpu time spent up to now is       20.7 secs

     total energy              =    -325.48867019 Ry
     estimated scf accuracy    <       0.03714942 Ry

     iteration #  2     ecut=   370.00 Ry     beta= 0.70
     Davidson diagonalization with overlap
     ethr =  1.33E-04,  avg # of iterations =  4.0

     total cpu time spent up to now is       31.2 secs

     total energy              =    -325.58184608 Ry
     estimated scf accuracy    <       0.02318058 Ry

     iteration #  3     ecut=   370.00 Ry     beta= 0.70
     Davidson diagonalization with overlap
     ethr =  8.28E-05,  avg # of iterations =  2.0

     total cpu time spent up to now is       38.1 secs

     total energy              =    -325.60472321 Ry
     estimated scf accuracy    <       0.00463353 Ry

     iteration #  4     ecut=   370.00 Ry     beta= 0.70
     Davidson diagonalization with overlap
     ethr =  1.65E-05,  avg # of iterations =  2.1

     total cpu time spent up to now is       45.3 secs

     total energy              =    -325.62702004 Ry
     estimated scf accuracy    <       0.00133157 Ry

     iteration #  5     ecut=   370.00 Ry     beta= 0.70
     Davidson diagonalization with overlap
     ethr =  4.76E-06,  avg # of iterations =  2.7

     total cpu time spent up to now is       53.2 secs

     total energy              =    -325.62746526 Ry
     estimated scf accuracy    <       0.00005004 Ry

     iteration #  6     ecut=   370.00 Ry     beta= 0.70
     Davidson diagonalization with overlap
     ethr =  1.79E-07,  avg # of iterations =  2.0

     total cpu time spent up to now is       60.0 secs

     total energy              =    -325.62750541 Ry
     estimated scf accuracy    <       0.00000785 Ry

     iteration #  7     ecut=   370.00 Ry     beta= 0.70
     Davidson diagonalization with overlap
     ethr =  2.80E-08,  avg # of iterations =  2.0

     total cpu time spent up to now is       67.1 secs

     total energy              =    -325.62751334 Ry
     estimated scf accuracy    <       0.00000023 Ry

     iteration #  8     ecut=   370.00 Ry     beta= 0.70
     Davidson diagonalization with overlap
     ethr =  8.08E-10,  avg # of iterations =  2.0

     total cpu time spent up to now is       75.0 secs

     End of self-consistent calculation

     Number of k-points >= 100: set verbosity='high' to print the bands.

     the Fermi energy is     7.0262 ev

!    total energy              =    -325.62751337 Ry
     estimated scf accuracy    <       0.00000008 Ry
     smearing contrib. (-TS)   =      -0.01558750 Ry
     internal energy E=F+TS    =    -325.61192587 Ry

     The total energy is F=E-TS. E is the sum of the following terms:
     one-electron contribution =    -136.07769292 Ry
     hartree contribution      =      84.95988712 Ry
     xc contribution           =     -94.93475353 Ry
     ewald contribution        =    -179.55936654 Ry

     convergence has been achieved in   8 iterations

     Writing all to output data dir ./beta-EOS/beta.save/ :
     XML data file, charge density, pseudopotentials, collected wavefunctions

     init_run     :      3.99s CPU      4.12s WALL (       1 calls)
     electrons    :     69.74s CPU     70.74s WALL (       1 calls)

     Called by init_run:
     wfcinit      :      2.43s CPU      2.49s WALL (       1 calls)
     potinit      :      0.08s CPU      0.10s WALL (       1 calls)
     hinit0       :      0.90s CPU      0.92s WALL (       1 calls)

     Called by electrons:
     c_bands      :     58.30s CPU     59.02s WALL (       9 calls)
     sum_band     :     10.61s CPU     10.74s WALL (       9 calls)
     v_of_rho     :      0.55s CPU      0.60s WALL (       9 calls)
     newd         :      0.22s CPU      0.24s WALL (       9 calls)
     mix_rho      :      0.07s CPU      0.08s WALL (       9 calls)

     Called by c_bands:
     init_us_2    :      1.17s CPU      1.20s WALL (    1159 calls)
     cegterg      :     55.02s CPU     55.44s WALL (     549 calls)

     Called by *egterg:
     cdiaghg      :      1.15s CPU      1.16s WALL (    2008 calls)
     h_psi        :     50.24s CPU     50.66s WALL (    2130 calls)
     s_psi        :      0.77s CPU      0.77s WALL (    2130 calls)
     g_psi        :      0.12s CPU      0.12s WALL (    1520 calls)

     Called by h_psi:
     h_psi:calbec :      1.86s CPU      1.89s WALL (    2130 calls)
     vloc_psi     :     47.15s CPU     47.54s WALL (    2130 calls)
     add_vuspsi   :      0.86s CPU      0.87s WALL (    2130 calls)

     General routines
     calbec       :      2.26s CPU      2.29s WALL (    2679 calls)
     fft          :      1.14s CPU      1.20s WALL (     100 calls)
     ffts         :      0.02s CPU      0.03s WALL (       9 calls)
     fftw         :     49.12s CPU     49.52s WALL (   61724 calls)

     Parallel routines

     PWSCF        :   1m15.02s CPU   1m22.48s WALL


   This run was terminated on:   1: 3: 8  26Feb2026            

=------------------------------------------------------------------------------=
   JOB DONE.
=------------------------------------------------------------------------------=
