
     Program PWSCF v.7.3.1 starts on 25Feb2026 at 23:13:24 

     This program is part of the open-source Quantum ESPRESSO suite
     for quantum simulation of materials; please cite
         "P. Giannozzi et al., J. Phys.:Condens. Matter 21 395502 (2009);
         "P. Giannozzi et al., J. Phys.:Condens. Matter 29 465901 (2017);
         "P. Giannozzi et al., J. Chem. Phys. 152 154105 (2020);
          URL http://www.quantum-espresso.org", 
     in publications or presentations arising from this work. More details at
     http://www.quantum-espresso.org/quote

     Parallel version (MPI), running on   128 processors

     MPI processes distributed on     1 nodes
     242323 MiB available memory on the printing compute node when the environment starts

     Waiting for input...
     Reading input from standard input

     Current dimensions of program PWSCF are:
     Max number of different atomic species (ntypx) = 10
     Max number of k-points (npk) =  40000
     Max angular momentum in pseudopotentials (lmaxx) =  4

     K-points division:     npool     =       4
     R & G space division:  proc/nbgrp/npool/nimage =      32
     Subspace diagonalization in iterative solution of the eigenvalue problem:
     a serial algorithm will be used


     Parallelization info
     --------------------
     sticks:   dense  smooth     PW     G-vecs:    dense   smooth      PW
     Min         206     206     59                 7994     7994    1239
     Max         207     207     60                 7996     7996    1241
     Sum        6597    6597   1901               255817   255817   39669

     Using Slab Decomposition



     bravais-lattice index     =            7
     lattice parameter (alat)  =       9.9180  a.u.
     unit-cell volume          =     266.1440 (a.u.)^3
     number of atoms/cell      =            2
     number of atomic types    =            1
     number of electrons       =        28.00
     number of Kohn-Sham states=           18
     kinetic-energy cutoff     =     370.0000  Ry
     charge density cutoff     =    1480.0000  Ry
     scf convergence threshold =      1.0E-07
     mixing beta               =       0.7000
     number of iterations used =            8  plain     mixing
     Exchange-correlation=  SLA  PW   GGX  GGC
                           (   1   4   2   2   0   0   0)

     celldm(1)=   9.918000  celldm(2)=   0.000000  celldm(3)=   0.545600
     celldm(4)=   0.000000  celldm(5)=   0.000000  celldm(6)=   0.000000

     crystal axes: (cart. coord. in units of alat)
               a(1) = (   0.500000  -0.500000   0.272800 )  
               a(2) = (   0.500000   0.500000   0.272800 )  
               a(3) = (  -0.500000  -0.500000   0.272800 )  

     reciprocal axes: (cart. coord. in units 2 pi/alat)
               b(1) = (  1.000000 -1.000000  0.000000 )  
               b(2) = (  0.000000  1.000000  1.832845 )  
               b(3) = ( -1.000000  0.000000  1.832845 )  


     PseudoPot. # 1 for Sn read from file:
     ./Sn.pw91-n-van.UPF
     MD5 check sum: a38d2a872edd1a4efd76c0a1a38f7031
     Pseudo is Ultrasoft + core correction, Zval = 14.0
     Generated by new atomic code, or converted to UPF format
     Using radial grid of  891 points,  6 beta functions with: 
                l(1) =   0
                l(2) =   0
                l(3) =   1
                l(4) =   1
                l(5) =   2
                l(6) =   2
     Q(r) pseudized with  8 coefficients,  rinner =    1.100   1.100   1.100
                                                       1.100   1.100

     atomic species   valence    mass     pseudopotential
     Sn               14.00   118.70000     Sn( 1.00)

     16 Sym. Ops., with inversion, found (12 have fractional translation)



   Cartesian axes

     site n.     atom                  positions (alat units)
         1        Sn     tau(   1) = (   0.0000000  -0.2500000   0.0682000  )
         2        Sn     tau(   2) = (   0.0000000   0.2500000  -0.0682000  )

     number of k points=   244  Gaussian smearing, width (Ry)=  0.0400

     Number of k-points >= 100: set verbosity='high' to print them.

     Dense  grid:   255817 G-vectors     FFT dimensions: (  96,  96,  96)

     Estimated max dynamical RAM per process >      31.69 MB

     Estimated total dynamical RAM >       3.78 GB

     Initial potential from superposition of free atoms

     starting charge      27.9964, renormalised to      28.0000
     Starting wfcs are   18 randomized atomic wfcs

     total cpu time spent up to now is        9.0 secs

     per-process dynamical memory:    34.5 Mb

     Self-consistent Calculation

     iteration #  1     ecut=   370.00 Ry     beta= 0.70
     Davidson diagonalization with overlap
     ethr =  1.00E-02,  avg # of iterations =  4.7

     Threshold (ethr) on eigenvalues was too large:
     Diagonalizing with lowered threshold

     Davidson diagonalization with overlap
     ethr =  4.20E-05,  avg # of iterations =  3.4

     total cpu time spent up to now is       19.3 secs

     total energy              =    -325.46555211 Ry
     estimated scf accuracy    <       0.01228052 Ry

     iteration #  2     ecut=   370.00 Ry     beta= 0.70
     Davidson diagonalization with overlap
     ethr =  4.39E-05,  avg # of iterations =  4.4

     total cpu time spent up to now is       24.5 secs

     total energy              =    -325.51868023 Ry
     estimated scf accuracy    <       0.00561812 Ry

     iteration #  3     ecut=   370.00 Ry     beta= 0.70
     Davidson diagonalization with overlap
     ethr =  2.01E-05,  avg # of iterations =  2.0

     total cpu time spent up to now is       28.0 secs

     total energy              =    -325.53345859 Ry
     estimated scf accuracy    <       0.00082429 Ry

     iteration #  4     ecut=   370.00 Ry     beta= 0.70
     Davidson diagonalization with overlap
     ethr =  2.94E-06,  avg # of iterations =  2.6

     total cpu time spent up to now is       31.8 secs

     total energy              =    -325.53372671 Ry
     estimated scf accuracy    <       0.00004682 Ry

     iteration #  5     ecut=   370.00 Ry     beta= 0.70
     Davidson diagonalization with overlap
     ethr =  1.67E-07,  avg # of iterations =  1.2

     total cpu time spent up to now is       35.0 secs

     total energy              =    -325.53372626 Ry
     estimated scf accuracy    <       0.00000477 Ry

     iteration #  6     ecut=   370.00 Ry     beta= 0.70
     Davidson diagonalization with overlap
     ethr =  1.71E-08,  avg # of iterations =  2.0

     total cpu time spent up to now is       38.5 secs

     End of self-consistent calculation

     Number of k-points >= 100: set verbosity='high' to print the bands.

     the Fermi energy is    16.5248 ev

!    total energy              =    -325.53372662 Ry
     estimated scf accuracy    <       0.00000001 Ry
     smearing contrib. (-TS)   =      -0.00733466 Ry
     internal energy E=F+TS    =    -325.52639196 Ry

     The total energy is F=E-TS. E is the sum of the following terms:
     one-electron contribution =     -73.21812381 Ry
     hartree contribution      =      62.81639626 Ry
     xc contribution           =     -95.66321641 Ry
     ewald contribution        =    -219.46144800 Ry

     convergence has been achieved in   6 iterations

     Writing all to output data dir ./beta-EOS/beta.save/ :
     XML data file, charge density, pseudopotentials, collected wavefunctions

     init_run     :      2.20s CPU      2.41s WALL (       1 calls)
     electrons    :     27.08s CPU     29.57s WALL (       1 calls)

     Called by init_run:
     wfcinit      :      1.25s CPU      1.32s WALL (       1 calls)
     potinit      :      0.05s CPU      0.07s WALL (       1 calls)
     hinit0       :      0.69s CPU      0.76s WALL (       1 calls)

     Called by electrons:
     c_bands      :     22.81s CPU     24.98s WALL (       7 calls)
     sum_band     :      3.93s CPU      4.02s WALL (       7 calls)
     v_of_rho     :      0.19s CPU      0.23s WALL (       7 calls)
     newd         :      0.09s CPU      0.11s WALL (       7 calls)
     mix_rho      :      0.03s CPU      0.03s WALL (       7 calls)

     Called by c_bands:
     init_us_2    :      0.43s CPU      0.45s WALL (     915 calls)
     cegterg      :     20.90s CPU     22.87s WALL (     427 calls)

     Called by *egterg:
     cdiaghg      :      0.88s CPU      2.54s WALL (    1618 calls)
     h_psi        :     18.89s CPU     19.25s WALL (    1740 calls)
     s_psi        :      0.32s CPU      0.33s WALL (    1740 calls)
     g_psi        :      0.05s CPU      0.05s WALL (    1252 calls)

     Called by h_psi:
     h_psi:calbec :      0.54s CPU      0.59s WALL (    1740 calls)
     vloc_psi     :     17.89s CPU     18.19s WALL (    1740 calls)
     add_vuspsi   :      0.34s CPU      0.34s WALL (    1740 calls)

     General routines
     calbec       :      0.67s CPU      0.72s WALL (    2167 calls)
     fft          :      0.77s CPU      0.86s WALL (      78 calls)
     ffts         :      0.02s CPU      0.02s WALL (       7 calls)
     fftw         :     19.08s CPU     19.39s WALL (   48264 calls)

     Parallel routines

     PWSCF        :     33.73s CPU     44.56s WALL


   This run was terminated on:  23:14: 8  25Feb2026            

=------------------------------------------------------------------------------=
   JOB DONE.
=------------------------------------------------------------------------------=
