
     Program PWSCF v.7.3.1 starts on 25Feb2026 at 23:14:52 

     This program is part of the open-source Quantum ESPRESSO suite
     for quantum simulation of materials; please cite
         "P. Giannozzi et al., J. Phys.:Condens. Matter 21 395502 (2009);
         "P. Giannozzi et al., J. Phys.:Condens. Matter 29 465901 (2017);
         "P. Giannozzi et al., J. Chem. Phys. 152 154105 (2020);
          URL http://www.quantum-espresso.org", 
     in publications or presentations arising from this work. More details at
     http://www.quantum-espresso.org/quote

     Parallel version (MPI), running on   128 processors

     MPI processes distributed on     1 nodes
     239504 MiB available memory on the printing compute node when the environment starts

     Waiting for input...
     Reading input from standard input

     Current dimensions of program PWSCF are:
     Max number of different atomic species (ntypx) = 10
     Max number of k-points (npk) =  40000
     Max angular momentum in pseudopotentials (lmaxx) =  4

     K-points division:     npool     =       4
     R & G space division:  proc/nbgrp/npool/nimage =      32
     Subspace diagonalization in iterative solution of the eigenvalue problem:
     a serial algorithm will be used


     Parallelization info
     --------------------
     sticks:   dense  smooth     PW     G-vecs:    dense   smooth      PW
     Min         208     208     59                 8100     8100    1255
     Max         209     209     60                 8103     8103    1257
     Sum        6661    6661   1917               259221   259221   40205

     Using Slab Decomposition



     bravais-lattice index     =            7
     lattice parameter (alat)  =       9.9621  a.u.
     unit-cell volume          =     269.7084 (a.u.)^3
     number of atoms/cell      =            2
     number of atomic types    =            1
     number of electrons       =        28.00
     number of Kohn-Sham states=           18
     kinetic-energy cutoff     =     370.0000  Ry
     charge density cutoff     =    1480.0000  Ry
     scf convergence threshold =      1.0E-07
     mixing beta               =       0.7000
     number of iterations used =            8  plain     mixing
     Exchange-correlation=  SLA  PW   GGX  GGC
                           (   1   4   2   2   0   0   0)

     celldm(1)=   9.962080  celldm(2)=   0.000000  celldm(3)=   0.545600
     celldm(4)=   0.000000  celldm(5)=   0.000000  celldm(6)=   0.000000

     crystal axes: (cart. coord. in units of alat)
               a(1) = (   0.500000  -0.500000   0.272800 )  
               a(2) = (   0.500000   0.500000   0.272800 )  
               a(3) = (  -0.500000  -0.500000   0.272800 )  

     reciprocal axes: (cart. coord. in units 2 pi/alat)
               b(1) = (  1.000000 -1.000000  0.000000 )  
               b(2) = (  0.000000  1.000000  1.832845 )  
               b(3) = ( -1.000000  0.000000  1.832845 )  


     PseudoPot. # 1 for Sn read from file:
     ./Sn.pw91-n-van.UPF
     MD5 check sum: a38d2a872edd1a4efd76c0a1a38f7031
     Pseudo is Ultrasoft + core correction, Zval = 14.0
     Generated by new atomic code, or converted to UPF format
     Using radial grid of  891 points,  6 beta functions with: 
                l(1) =   0
                l(2) =   0
                l(3) =   1
                l(4) =   1
                l(5) =   2
                l(6) =   2
     Q(r) pseudized with  8 coefficients,  rinner =    1.100   1.100   1.100
                                                       1.100   1.100

     atomic species   valence    mass     pseudopotential
     Sn               14.00   118.70000     Sn( 1.00)

     16 Sym. Ops., with inversion, found (12 have fractional translation)



   Cartesian axes

     site n.     atom                  positions (alat units)
         1        Sn     tau(   1) = (   0.0000000  -0.2500000   0.0682000  )
         2        Sn     tau(   2) = (   0.0000000   0.2500000  -0.0682000  )

     number of k points=   244  Gaussian smearing, width (Ry)=  0.0400

     Number of k-points >= 100: set verbosity='high' to print them.

     Dense  grid:   259221 G-vectors     FFT dimensions: (  96,  96,  96)

     Estimated max dynamical RAM per process >      32.04 MB

     Estimated total dynamical RAM >       3.82 GB

     Initial potential from superposition of free atoms

     starting charge      27.9964, renormalised to      28.0000
     Starting wfcs are   18 randomized atomic wfcs

     total cpu time spent up to now is        2.6 secs

     per-process dynamical memory:    34.8 Mb

     Self-consistent Calculation

     iteration #  1     ecut=   370.00 Ry     beta= 0.70
     Davidson diagonalization with overlap
     ethr =  1.00E-02,  avg # of iterations =  4.8

     Threshold (ethr) on eigenvalues was too large:
     Diagonalizing with lowered threshold

     Davidson diagonalization with overlap
     ethr =  4.34E-05,  avg # of iterations =  3.2

     total cpu time spent up to now is       11.1 secs

     total energy              =    -325.47156742 Ry
     estimated scf accuracy    <       0.01266486 Ry

     iteration #  2     ecut=   370.00 Ry     beta= 0.70
     Davidson diagonalization with overlap
     ethr =  4.52E-05,  avg # of iterations =  4.4

     total cpu time spent up to now is       16.3 secs

     total energy              =    -325.52713934 Ry
     estimated scf accuracy    <       0.00639055 Ry

     iteration #  3     ecut=   370.00 Ry     beta= 0.70
     Davidson diagonalization with overlap
     ethr =  2.28E-05,  avg # of iterations =  2.0

     total cpu time spent up to now is       19.8 secs

     total energy              =    -325.54329059 Ry
     estimated scf accuracy    <       0.00103561 Ry

     iteration #  4     ecut=   370.00 Ry     beta= 0.70
     Davidson diagonalization with overlap
     ethr =  3.70E-06,  avg # of iterations =  2.5

     total cpu time spent up to now is       23.7 secs

     total energy              =    -325.54362813 Ry
     estimated scf accuracy    <       0.00005834 Ry

     iteration #  5     ecut=   370.00 Ry     beta= 0.70
     Davidson diagonalization with overlap
     ethr =  2.08E-07,  avg # of iterations =  1.3

     total cpu time spent up to now is       26.9 secs

     total energy              =    -325.54362775 Ry
     estimated scf accuracy    <       0.00000590 Ry

     iteration #  6     ecut=   370.00 Ry     beta= 0.70
     Davidson diagonalization with overlap
     ethr =  2.11E-08,  avg # of iterations =  1.9

     total cpu time spent up to now is       30.3 secs

     End of self-consistent calculation

     Number of k-points >= 100: set verbosity='high' to print the bands.

     the Fermi energy is    16.2441 ev

!    total energy              =    -325.54362816 Ry
     estimated scf accuracy    <       0.00000001 Ry
     smearing contrib. (-TS)   =      -0.00743426 Ry
     internal energy E=F+TS    =    -325.53619390 Ry

     The total energy is F=E-TS. E is the sum of the following terms:
     one-electron contribution =     -74.70496649 Ry
     hartree contribution      =      63.29965354 Ry
     xc contribution           =     -95.64050131 Ry
     ewald contribution        =    -218.49037964 Ry

     convergence has been achieved in   6 iterations

     Writing all to output data dir ./beta-EOS/beta.save/ :
     XML data file, charge density, pseudopotentials, collected wavefunctions

     init_run     :      2.19s CPU      2.27s WALL (       1 calls)
     electrons    :     27.21s CPU     27.85s WALL (       1 calls)

     Called by init_run:
     wfcinit      :      1.22s CPU      1.25s WALL (       1 calls)
     potinit      :      0.06s CPU      0.06s WALL (       1 calls)
     hinit0       :      0.69s CPU      0.71s WALL (       1 calls)

     Called by electrons:
     c_bands      :     22.94s CPU     23.42s WALL (       7 calls)
     sum_band     :      3.95s CPU      4.03s WALL (       7 calls)
     v_of_rho     :      0.22s CPU      0.23s WALL (       7 calls)
     newd         :      0.09s CPU      0.11s WALL (       7 calls)
     mix_rho      :      0.02s CPU      0.02s WALL (       7 calls)

     Called by c_bands:
     init_us_2    :      0.43s CPU      0.45s WALL (     915 calls)
     cegterg      :     21.03s CPU     21.29s WALL (     427 calls)

     Called by *egterg:
     cdiaghg      :      0.88s CPU      0.89s WALL (    1599 calls)
     h_psi        :     18.97s CPU     19.22s WALL (    1721 calls)
     s_psi        :      0.33s CPU      0.34s WALL (    1721 calls)
     g_psi        :      0.05s CPU      0.05s WALL (    1233 calls)

     Called by h_psi:
     h_psi:calbec :      0.55s CPU      0.56s WALL (    1721 calls)
     vloc_psi     :     17.95s CPU     18.18s WALL (    1721 calls)
     add_vuspsi   :      0.35s CPU      0.35s WALL (    1721 calls)

     General routines
     calbec       :      0.68s CPU      0.69s WALL (    2148 calls)
     fft          :      0.79s CPU      0.80s WALL (      78 calls)
     ffts         :      0.02s CPU      0.02s WALL (       7 calls)
     fftw         :     19.16s CPU     19.42s WALL (   48188 calls)

     Parallel routines

     PWSCF        :     30.46s CPU     34.94s WALL


   This run was terminated on:  23:15:27  25Feb2026            

=------------------------------------------------------------------------------=
   JOB DONE.
=------------------------------------------------------------------------------=
