
     Program PWSCF v.7.3.1 starts on 25Feb2026 at 23:16:46 

     This program is part of the open-source Quantum ESPRESSO suite
     for quantum simulation of materials; please cite
         "P. Giannozzi et al., J. Phys.:Condens. Matter 21 395502 (2009);
         "P. Giannozzi et al., J. Phys.:Condens. Matter 29 465901 (2017);
         "P. Giannozzi et al., J. Chem. Phys. 152 154105 (2020);
          URL http://www.quantum-espresso.org", 
     in publications or presentations arising from this work. More details at
     http://www.quantum-espresso.org/quote

     Parallel version (MPI), running on   128 processors

     MPI processes distributed on     1 nodes
     239399 MiB available memory on the printing compute node when the environment starts

     Waiting for input...
     Reading input from standard input

     Current dimensions of program PWSCF are:
     Max number of different atomic species (ntypx) = 10
     Max number of k-points (npk) =  40000
     Max angular momentum in pseudopotentials (lmaxx) =  4

     K-points division:     npool     =       4
     R & G space division:  proc/nbgrp/npool/nimage =      32
     Subspace diagonalization in iterative solution of the eigenvalue problem:
     a serial algorithm will be used


     Parallelization info
     --------------------
     sticks:   dense  smooth     PW     G-vecs:    dense   smooth      PW
     Min         211     211     60                 8271     8271    1275
     Max         212     212     61                 8273     8273    1277
     Sum        6753    6753   1925               264709   264709   40821

     Using Slab Decomposition



     bravais-lattice index     =            7
     lattice parameter (alat)  =      10.0282  a.u.
     unit-cell volume          =     275.1144 (a.u.)^3
     number of atoms/cell      =            2
     number of atomic types    =            1
     number of electrons       =        28.00
     number of Kohn-Sham states=           18
     kinetic-energy cutoff     =     370.0000  Ry
     charge density cutoff     =    1480.0000  Ry
     scf convergence threshold =      1.0E-07
     mixing beta               =       0.7000
     number of iterations used =            8  plain     mixing
     Exchange-correlation=  SLA  PW   GGX  GGC
                           (   1   4   2   2   0   0   0)

     celldm(1)=  10.028200  celldm(2)=   0.000000  celldm(3)=   0.545600
     celldm(4)=   0.000000  celldm(5)=   0.000000  celldm(6)=   0.000000

     crystal axes: (cart. coord. in units of alat)
               a(1) = (   0.500000  -0.500000   0.272800 )  
               a(2) = (   0.500000   0.500000   0.272800 )  
               a(3) = (  -0.500000  -0.500000   0.272800 )  

     reciprocal axes: (cart. coord. in units 2 pi/alat)
               b(1) = (  1.000000 -1.000000  0.000000 )  
               b(2) = (  0.000000  1.000000  1.832845 )  
               b(3) = ( -1.000000  0.000000  1.832845 )  


     PseudoPot. # 1 for Sn read from file:
     ./Sn.pw91-n-van.UPF
     MD5 check sum: a38d2a872edd1a4efd76c0a1a38f7031
     Pseudo is Ultrasoft + core correction, Zval = 14.0
     Generated by new atomic code, or converted to UPF format
     Using radial grid of  891 points,  6 beta functions with: 
                l(1) =   0
                l(2) =   0
                l(3) =   1
                l(4) =   1
                l(5) =   2
                l(6) =   2
     Q(r) pseudized with  8 coefficients,  rinner =    1.100   1.100   1.100
                                                       1.100   1.100

     atomic species   valence    mass     pseudopotential
     Sn               14.00   118.70000     Sn( 1.00)

     16 Sym. Ops., with inversion, found (12 have fractional translation)



   Cartesian axes

     site n.     atom                  positions (alat units)
         1        Sn     tau(   1) = (   0.0000000  -0.2500000   0.0682000  )
         2        Sn     tau(   2) = (   0.0000000   0.2500000  -0.0682000  )

     number of k points=   244  Gaussian smearing, width (Ry)=  0.0400

     Number of k-points >= 100: set verbosity='high' to print them.

     Dense  grid:   264709 G-vectors     FFT dimensions: (  96,  96,  96)

     Estimated max dynamical RAM per process >      32.61 MB

     Estimated total dynamical RAM >       3.89 GB

     Initial potential from superposition of free atoms

     starting charge      27.9964, renormalised to      28.0000
     Starting wfcs are   18 randomized atomic wfcs

     total cpu time spent up to now is        2.6 secs

     per-process dynamical memory:    35.2 Mb

     Self-consistent Calculation

     iteration #  1     ecut=   370.00 Ry     beta= 0.70
     Davidson diagonalization with overlap
     ethr =  1.00E-02,  avg # of iterations =  4.7

     Threshold (ethr) on eigenvalues was too large:
     Diagonalizing with lowered threshold

     Davidson diagonalization with overlap
     ethr =  4.65E-05,  avg # of iterations =  3.2

     total cpu time spent up to now is       11.1 secs

     total energy              =    -325.47767095 Ry
     estimated scf accuracy    <       0.01356321 Ry

     iteration #  2     ecut=   370.00 Ry     beta= 0.70
     Davidson diagonalization with overlap
     ethr =  4.84E-05,  avg # of iterations =  4.5

     total cpu time spent up to now is       16.5 secs

     total energy              =    -325.53867215 Ry
     estimated scf accuracy    <       0.00781672 Ry

     iteration #  3     ecut=   370.00 Ry     beta= 0.70
     Davidson diagonalization with overlap
     ethr =  2.79E-05,  avg # of iterations =  2.0

     total cpu time spent up to now is       19.9 secs

     total energy              =    -325.55697304 Ry
     estimated scf accuracy    <       0.00142811 Ry

     iteration #  4     ecut=   370.00 Ry     beta= 0.70
     Davidson diagonalization with overlap
     ethr =  5.10E-06,  avg # of iterations =  2.4

     total cpu time spent up to now is       23.8 secs

     total energy              =    -325.55739438 Ry
     estimated scf accuracy    <       0.00007432 Ry

     iteration #  5     ecut=   370.00 Ry     beta= 0.70
     Davidson diagonalization with overlap
     ethr =  2.65E-07,  avg # of iterations =  1.4

     total cpu time spent up to now is       27.1 secs

     total energy              =    -325.55739412 Ry
     estimated scf accuracy    <       0.00000771 Ry

     iteration #  6     ecut=   370.00 Ry     beta= 0.70
     Davidson diagonalization with overlap
     ethr =  2.75E-08,  avg # of iterations =  1.8

     total cpu time spent up to now is       30.6 secs

     End of self-consistent calculation

     Number of k-points >= 100: set verbosity='high' to print the bands.

     the Fermi energy is    15.8324 ev

!    total energy              =    -325.55739460 Ry
     estimated scf accuracy    <       0.00000003 Ry
     smearing contrib. (-TS)   =      -0.00758531 Ry
     internal energy E=F+TS    =    -325.54980929 Ry

     The total energy is F=E-TS. E is the sum of the following terms:
     one-electron contribution =     -76.91428310 Ry
     hartree contribution      =      64.02155506 Ry
     xc contribution           =     -95.60729752 Ry
     ewald contribution        =    -217.04978373 Ry

     convergence has been achieved in   6 iterations

     Writing all to output data dir ./beta-EOS/beta.save/ :
     XML data file, charge density, pseudopotentials, collected wavefunctions

     init_run     :      2.23s CPU      2.33s WALL (       1 calls)
     electrons    :     27.30s CPU     28.03s WALL (       1 calls)

     Called by init_run:
     wfcinit      :      1.26s CPU      1.30s WALL (       1 calls)
     potinit      :      0.04s CPU      0.06s WALL (       1 calls)
     hinit0       :      0.70s CPU      0.71s WALL (       1 calls)

     Called by electrons:
     c_bands      :     23.02s CPU     23.57s WALL (       7 calls)
     sum_band     :      3.97s CPU      4.06s WALL (       7 calls)
     v_of_rho     :      0.21s CPU      0.23s WALL (       7 calls)
     newd         :      0.09s CPU      0.11s WALL (       7 calls)
     mix_rho      :      0.02s CPU      0.02s WALL (       7 calls)

     Called by c_bands:
     init_us_2    :      0.44s CPU      0.47s WALL (     915 calls)
     cegterg      :     21.04s CPU     21.35s WALL (     427 calls)

     Called by *egterg:
     cdiaghg      :      0.87s CPU      0.88s WALL (    1593 calls)
     h_psi        :     18.99s CPU     19.29s WALL (    1715 calls)
     s_psi        :      0.33s CPU      0.34s WALL (    1715 calls)
     g_psi        :      0.05s CPU      0.05s WALL (    1227 calls)

     Called by h_psi:
     h_psi:calbec :      0.56s CPU      0.57s WALL (    1715 calls)
     vloc_psi     :     17.95s CPU     18.23s WALL (    1715 calls)
     add_vuspsi   :      0.35s CPU      0.36s WALL (    1715 calls)

     General routines
     calbec       :      0.69s CPU      0.70s WALL (    2142 calls)
     fft          :      0.78s CPU      0.80s WALL (      78 calls)
     ffts         :      0.01s CPU      0.02s WALL (       7 calls)
     fftw         :     19.14s CPU     19.44s WALL (   48188 calls)

     Parallel routines

     PWSCF        :     30.58s CPU     34.56s WALL


   This run was terminated on:  23:17:21  25Feb2026            

=------------------------------------------------------------------------------=
   JOB DONE.
=------------------------------------------------------------------------------=
