
     Program PWSCF v.7.3.1 starts on 25Feb2026 at 23:18:40 

     This program is part of the open-source Quantum ESPRESSO suite
     for quantum simulation of materials; please cite
         "P. Giannozzi et al., J. Phys.:Condens. Matter 21 395502 (2009);
         "P. Giannozzi et al., J. Phys.:Condens. Matter 29 465901 (2017);
         "P. Giannozzi et al., J. Chem. Phys. 152 154105 (2020);
          URL http://www.quantum-espresso.org", 
     in publications or presentations arising from this work. More details at
     http://www.quantum-espresso.org/quote

     Parallel version (MPI), running on   128 processors

     MPI processes distributed on     1 nodes
     239340 MiB available memory on the printing compute node when the environment starts

     Waiting for input...
     Reading input from standard input

     Current dimensions of program PWSCF are:
     Max number of different atomic species (ntypx) = 10
     Max number of k-points (npk) =  40000
     Max angular momentum in pseudopotentials (lmaxx) =  4

     K-points division:     npool     =       4
     R & G space division:  proc/nbgrp/npool/nimage =      32
     Subspace diagonalization in iterative solution of the eigenvalue problem:
     a serial algorithm will be used


     Parallelization info
     --------------------
     sticks:   dense  smooth     PW     G-vecs:    dense   smooth      PW
     Min         213     213     61                 8429     8429    1299
     Max         214     214     62                 8431     8431    1301
     Sum        6823    6823   1973               269757   269757   41583

     Using Slab Decomposition



     bravais-lattice index     =            7
     lattice parameter (alat)  =      10.0943  a.u.
     unit-cell volume          =     280.5922 (a.u.)^3
     number of atoms/cell      =            2
     number of atomic types    =            1
     number of electrons       =        28.00
     number of Kohn-Sham states=           18
     kinetic-energy cutoff     =     370.0000  Ry
     charge density cutoff     =    1480.0000  Ry
     scf convergence threshold =      1.0E-07
     mixing beta               =       0.7000
     number of iterations used =            8  plain     mixing
     Exchange-correlation=  SLA  PW   GGX  GGC
                           (   1   4   2   2   0   0   0)

     celldm(1)=  10.094320  celldm(2)=   0.000000  celldm(3)=   0.545600
     celldm(4)=   0.000000  celldm(5)=   0.000000  celldm(6)=   0.000000

     crystal axes: (cart. coord. in units of alat)
               a(1) = (   0.500000  -0.500000   0.272800 )  
               a(2) = (   0.500000   0.500000   0.272800 )  
               a(3) = (  -0.500000  -0.500000   0.272800 )  

     reciprocal axes: (cart. coord. in units 2 pi/alat)
               b(1) = (  1.000000 -1.000000  0.000000 )  
               b(2) = (  0.000000  1.000000  1.832845 )  
               b(3) = ( -1.000000  0.000000  1.832845 )  


     PseudoPot. # 1 for Sn read from file:
     ./Sn.pw91-n-van.UPF
     MD5 check sum: a38d2a872edd1a4efd76c0a1a38f7031
     Pseudo is Ultrasoft + core correction, Zval = 14.0
     Generated by new atomic code, or converted to UPF format
     Using radial grid of  891 points,  6 beta functions with: 
                l(1) =   0
                l(2) =   0
                l(3) =   1
                l(4) =   1
                l(5) =   2
                l(6) =   2
     Q(r) pseudized with  8 coefficients,  rinner =    1.100   1.100   1.100
                                                       1.100   1.100

     atomic species   valence    mass     pseudopotential
     Sn               14.00   118.70000     Sn( 1.00)

     16 Sym. Ops., with inversion, found (12 have fractional translation)



   Cartesian axes

     site n.     atom                  positions (alat units)
         1        Sn     tau(   1) = (   0.0000000  -0.2500000   0.0682000  )
         2        Sn     tau(   2) = (   0.0000000   0.2500000  -0.0682000  )

     number of k points=   244  Gaussian smearing, width (Ry)=  0.0400

     Number of k-points >= 100: set verbosity='high' to print them.

     Dense  grid:   269757 G-vectors     FFT dimensions: (  96,  96,  96)

     Estimated max dynamical RAM per process >      33.14 MB

     Estimated total dynamical RAM >       3.95 GB

     Initial potential from superposition of free atoms

     starting charge      27.9964, renormalised to      28.0000
     Starting wfcs are   18 randomized atomic wfcs

     total cpu time spent up to now is        2.6 secs

     per-process dynamical memory:    35.5 Mb

     Self-consistent Calculation

     iteration #  1     ecut=   370.00 Ry     beta= 0.70
     Davidson diagonalization with overlap
     ethr =  1.00E-02,  avg # of iterations =  4.7

     Threshold (ethr) on eigenvalues was too large:
     Diagonalizing with lowered threshold

     Davidson diagonalization with overlap
     ethr =  4.83E-05,  avg # of iterations =  3.1

     total cpu time spent up to now is       11.2 secs

     total energy              =    -325.48574513 Ry
     estimated scf accuracy    <       0.01408859 Ry

     iteration #  2     ecut=   370.00 Ry     beta= 0.70
     Davidson diagonalization with overlap
     ethr =  5.03E-05,  avg # of iterations =  4.6

     total cpu time spent up to now is       16.6 secs

     total energy              =    -325.55013432 Ry
     estimated scf accuracy    <       0.00870797 Ry

     iteration #  3     ecut=   370.00 Ry     beta= 0.70
     Davidson diagonalization with overlap
     ethr =  3.11E-05,  avg # of iterations =  2.0

     total cpu time spent up to now is       20.1 secs

     total energy              =    -325.56948361 Ry
     estimated scf accuracy    <       0.00165844 Ry

     iteration #  4     ecut=   370.00 Ry     beta= 0.70
     Davidson diagonalization with overlap
     ethr =  5.92E-06,  avg # of iterations =  2.3

     total cpu time spent up to now is       24.0 secs

     total energy              =    -325.56992953 Ry
     estimated scf accuracy    <       0.00007799 Ry

     iteration #  5     ecut=   370.00 Ry     beta= 0.70
     Davidson diagonalization with overlap
     ethr =  2.79E-07,  avg # of iterations =  1.3

     total cpu time spent up to now is       27.3 secs

     total energy              =    -325.56992922 Ry
     estimated scf accuracy    <       0.00000831 Ry

     iteration #  6     ecut=   370.00 Ry     beta= 0.70
     Davidson diagonalization with overlap
     ethr =  2.97E-08,  avg # of iterations =  1.9

     total cpu time spent up to now is       30.8 secs

     End of self-consistent calculation

     Number of k-points >= 100: set verbosity='high' to print the bands.

     the Fermi energy is    15.4316 ev

!    total energy              =    -325.56992974 Ry
     estimated scf accuracy    <       0.00000002 Ry
     smearing contrib. (-TS)   =      -0.00773895 Ry
     internal energy E=F+TS    =    -325.56219079 Ry

     The total energy is F=E-TS. E is the sum of the following terms:
     one-electron contribution =     -79.09913441 Ry
     hartree contribution      =      64.74018245 Ry
     xc contribution           =     -95.57517857 Ry
     ewald contribution        =    -215.62806026 Ry

     convergence has been achieved in   6 iterations

     Writing all to output data dir ./beta-EOS/beta.save/ :
     XML data file, charge density, pseudopotentials, collected wavefunctions

     init_run     :      2.23s CPU      2.35s WALL (       1 calls)
     electrons    :     27.57s CPU     28.21s WALL (       1 calls)

     Called by init_run:
     wfcinit      :      1.26s CPU      1.31s WALL (       1 calls)
     potinit      :      0.04s CPU      0.06s WALL (       1 calls)
     hinit0       :      0.70s CPU      0.71s WALL (       1 calls)

     Called by electrons:
     c_bands      :     23.22s CPU     23.73s WALL (       7 calls)
     sum_band     :      4.04s CPU      4.09s WALL (       7 calls)
     v_of_rho     :      0.20s CPU      0.23s WALL (       7 calls)
     newd         :      0.10s CPU      0.11s WALL (       7 calls)
     mix_rho      :      0.02s CPU      0.02s WALL (       7 calls)

     Called by c_bands:
     init_us_2    :      0.45s CPU      0.48s WALL (     915 calls)
     cegterg      :     21.39s CPU     21.67s WALL (     427 calls)

     Called by *egterg:
     cdiaghg      :      0.88s CPU      0.89s WALL (    1606 calls)
     h_psi        :     19.24s CPU     19.53s WALL (    1728 calls)
     s_psi        :      0.34s CPU      0.35s WALL (    1728 calls)
     g_psi        :      0.05s CPU      0.05s WALL (    1240 calls)

     Called by h_psi:
     h_psi:calbec :      0.59s CPU      0.60s WALL (    1728 calls)
     vloc_psi     :     18.17s CPU     18.43s WALL (    1728 calls)
     add_vuspsi   :      0.36s CPU      0.37s WALL (    1728 calls)

     General routines
     calbec       :      0.73s CPU      0.74s WALL (    2155 calls)
     fft          :      0.78s CPU      0.81s WALL (      78 calls)
     ffts         :      0.02s CPU      0.02s WALL (       7 calls)
     fftw         :     19.41s CPU     19.66s WALL (   48214 calls)

     Parallel routines

     PWSCF        :     30.83s CPU     35.70s WALL


   This run was terminated on:  23:19:16  25Feb2026            

=------------------------------------------------------------------------------=
   JOB DONE.
=------------------------------------------------------------------------------=
