
     Program PWSCF v.7.3.1 starts on 25Feb2026 at 19:26:50 

     This program is part of the open-source Quantum ESPRESSO suite
     for quantum simulation of materials; please cite
         "P. Giannozzi et al., J. Phys.:Condens. Matter 21 395502 (2009);
         "P. Giannozzi et al., J. Phys.:Condens. Matter 29 465901 (2017);
         "P. Giannozzi et al., J. Chem. Phys. 152 154105 (2020);
          URL http://www.quantum-espresso.org", 
     in publications or presentations arising from this work. More details at
     http://www.quantum-espresso.org/quote

     Parallel version (MPI), running on   128 processors

     MPI processes distributed on     1 nodes
     239766 MiB available memory on the printing compute node when the environment starts

     Waiting for input...
     Reading input from standard input

     Current dimensions of program PWSCF are:
     Max number of different atomic species (ntypx) = 10
     Max number of k-points (npk) =  40000
     Max angular momentum in pseudopotentials (lmaxx) =  4

     K-points division:     npool     =       4
     R & G space division:  proc/nbgrp/npool/nimage =      32
     Subspace diagonalization in iterative solution of the eigenvalue problem:
     a serial algorithm will be used


     Parallelization info
     --------------------
     sticks:   dense  smooth     PW     G-vecs:    dense   smooth      PW
     Min         214     214     61                 8485     8485    1306
     Max         215     215     62                 8487     8487    1309
     Sum        6851    6851   1981               271525   271525   41847

     Using Slab Decomposition



     bravais-lattice index     =            7
     lattice parameter (alat)  =      10.1164  a.u.
     unit-cell volume          =     282.4341 (a.u.)^3
     number of atoms/cell      =            2
     number of atomic types    =            1
     number of electrons       =        28.00
     number of Kohn-Sham states=           14
     kinetic-energy cutoff     =     370.0000  Ry
     charge density cutoff     =    1480.0000  Ry
     scf convergence threshold =      1.0E-07
     mixing beta               =       0.7000
     number of iterations used =            8  plain     mixing
     Exchange-correlation=  SLA  PW   GGX  GGC
                           (   1   4   2   2   0   0   0)

     celldm(1)=  10.116360  celldm(2)=   0.000000  celldm(3)=   0.545600
     celldm(4)=   0.000000  celldm(5)=   0.000000  celldm(6)=   0.000000

     crystal axes: (cart. coord. in units of alat)
               a(1) = (   0.500000  -0.500000   0.272800 )  
               a(2) = (   0.500000   0.500000   0.272800 )  
               a(3) = (  -0.500000  -0.500000   0.272800 )  

     reciprocal axes: (cart. coord. in units 2 pi/alat)
               b(1) = (  1.000000 -1.000000  0.000000 )  
               b(2) = (  0.000000  1.000000  1.832845 )  
               b(3) = ( -1.000000  0.000000  1.832845 )  


     PseudoPot. # 1 for Sn read from file:
     ./Sn.pw91-n-van.UPF
     MD5 check sum: a38d2a872edd1a4efd76c0a1a38f7031
     Pseudo is Ultrasoft + core correction, Zval = 14.0
     Generated by new atomic code, or converted to UPF format
     Using radial grid of  891 points,  6 beta functions with: 
                l(1) =   0
                l(2) =   0
                l(3) =   1
                l(4) =   1
                l(5) =   2
                l(6) =   2
     Q(r) pseudized with  8 coefficients,  rinner =    1.100   1.100   1.100
                                                       1.100   1.100

     atomic species   valence    mass     pseudopotential
     Sn               14.00   118.70000     Sn( 1.00)

     16 Sym. Ops., with inversion, found (12 have fractional translation)



   Cartesian axes

     site n.     atom                  positions (alat units)
         1        Sn     tau(   1) = (   0.0000000  -0.2500000   0.0682000  )
         2        Sn     tau(   2) = (   0.0000000   0.2500000  -0.0682000  )

     number of k points=   244

     Number of k-points >= 100: set verbosity='high' to print them.

     Dense  grid:   271525 G-vectors     FFT dimensions: (  96,  96,  96)

     Estimated max dynamical RAM per process >      29.32 MB

     Estimated total dynamical RAM >       3.47 GB

     Initial potential from superposition of free atoms

     starting charge      27.9964, renormalised to      28.0000
     Starting wfcs are   18 randomized atomic wfcs

     total cpu time spent up to now is        2.6 secs

     per-process dynamical memory:    31.4 Mb

     Self-consistent Calculation

     iteration #  1     ecut=   370.00 Ry     beta= 0.70
     Davidson diagonalization with overlap
     ethr =  1.00E-02,  avg # of iterations =  3.3

     Threshold (ethr) on eigenvalues was too large:
     Diagonalizing with lowered threshold

     Davidson diagonalization with overlap
     ethr =  3.76E-05,  avg # of iterations =  4.9

     total cpu time spent up to now is        9.5 secs

     total energy              =    -325.41682689 Ry
     estimated scf accuracy    <       0.01316706 Ry

     iteration #  2     ecut=   370.00 Ry     beta= 0.70
     Davidson diagonalization with overlap
     ethr =  4.70E-05,  avg # of iterations =  4.7

     total cpu time spent up to now is       13.7 secs

     total energy              =    -325.48117711 Ry
     estimated scf accuracy    <       0.00878630 Ry

     iteration #  3     ecut=   370.00 Ry     beta= 0.70
     Davidson diagonalization with overlap
     ethr =  3.14E-05,  avg # of iterations =  2.0

     total cpu time spent up to now is       16.5 secs

     total energy              =    -325.50130264 Ry
     estimated scf accuracy    <       0.00179279 Ry

     iteration #  4     ecut=   370.00 Ry     beta= 0.70
     Davidson diagonalization with overlap
     ethr =  6.40E-06,  avg # of iterations =  2.4

     total cpu time spent up to now is       19.5 secs

     total energy              =    -325.50174614 Ry
     estimated scf accuracy    <       0.00005701 Ry

     iteration #  5     ecut=   370.00 Ry     beta= 0.70
     Davidson diagonalization with overlap
     ethr =  2.04E-07,  avg # of iterations =  3.2

     total cpu time spent up to now is       22.6 secs

     total energy              =    -325.50175255 Ry
     estimated scf accuracy    <       0.00001079 Ry

     iteration #  6     ecut=   370.00 Ry     beta= 0.70
     Davidson diagonalization with overlap
     ethr =  3.86E-08,  avg # of iterations =  2.1

     total cpu time spent up to now is       25.4 secs

     End of self-consistent calculation

     Number of k-points >= 100: set verbosity='high' to print the bands.

     highest occupied level (ev):    17.4655

!    total energy              =    -325.50175345 Ry
     estimated scf accuracy    <       0.00000003 Ry

     The total energy is the sum of the following terms:
     one-electron contribution =     -79.80312291 Ry
     hartree contribution      =      65.03268728 Ry
     xc contribution           =     -95.57303547 Ry
     ewald contribution        =    -215.15828235 Ry

     convergence has been achieved in   6 iterations

     Writing all to output data dir ./beta-EOS/beta.save/ :
     XML data file, charge density, pseudopotentials, collected wavefunctions

     init_run     :      2.22s CPU      2.32s WALL (       1 calls)
     electrons    :     22.19s CPU     22.85s WALL (       1 calls)

     Called by init_run:
     wfcinit      :      1.25s CPU      1.28s WALL (       1 calls)
     potinit      :      0.05s CPU      0.06s WALL (       1 calls)
     hinit0       :      0.70s CPU      0.71s WALL (       1 calls)

     Called by electrons:
     c_bands      :     18.74s CPU     19.20s WALL (       7 calls)
     sum_band     :      3.15s CPU      3.26s WALL (       7 calls)
     v_of_rho     :      0.20s CPU      0.22s WALL (       7 calls)
     newd         :      0.09s CPU      0.11s WALL (       7 calls)
     mix_rho      :      0.02s CPU      0.02s WALL (       7 calls)

     Called by c_bands:
     init_us_2    :      0.44s CPU      0.46s WALL (     915 calls)
     cegterg      :     17.15s CPU     17.45s WALL (     427 calls)

     Called by *egterg:
     cdiaghg      :      0.65s CPU      0.66s WALL (    1843 calls)
     h_psi        :     15.74s CPU     16.02s WALL (    1965 calls)
     s_psi        :      0.32s CPU      0.32s WALL (    1965 calls)
     g_psi        :      0.04s CPU      0.04s WALL (    1477 calls)

     Called by h_psi:
     h_psi:calbec :      0.50s CPU      0.51s WALL (    1965 calls)
     vloc_psi     :     14.81s CPU     15.08s WALL (    1965 calls)
     add_vuspsi   :      0.34s CPU      0.35s WALL (    1965 calls)

     General routines
     calbec       :      0.61s CPU      0.63s WALL (    2392 calls)
     fft          :      0.77s CPU      0.80s WALL (      78 calls)
     ffts         :      0.01s CPU      0.02s WALL (       7 calls)
     fftw         :     15.67s CPU     15.97s WALL (   39034 calls)

     Parallel routines

     PWSCF        :     25.33s CPU     27.66s WALL


   This run was terminated on:  19:27:17  25Feb2026            

=------------------------------------------------------------------------------=
   JOB DONE.
=------------------------------------------------------------------------------=
