
     Program PWSCF v.7.3.1 starts on 25Feb2026 at 23:24:40 

     This program is part of the open-source Quantum ESPRESSO suite
     for quantum simulation of materials; please cite
         "P. Giannozzi et al., J. Phys.:Condens. Matter 21 395502 (2009);
         "P. Giannozzi et al., J. Phys.:Condens. Matter 29 465901 (2017);
         "P. Giannozzi et al., J. Chem. Phys. 152 154105 (2020);
          URL http://www.quantum-espresso.org", 
     in publications or presentations arising from this work. More details at
     http://www.quantum-espresso.org/quote

     Parallel version (MPI), running on   128 processors

     MPI processes distributed on     1 nodes
     233879 MiB available memory on the printing compute node when the environment starts

     Waiting for input...
     Reading input from standard input

     Current dimensions of program PWSCF are:
     Max number of different atomic species (ntypx) = 10
     Max number of k-points (npk) =  40000
     Max angular momentum in pseudopotentials (lmaxx) =  4

     K-points division:     npool     =       4
     R & G space division:  proc/nbgrp/npool/nimage =      32
     Subspace diagonalization in iterative solution of the eigenvalue problem:
     a serial algorithm will be used


     Parallelization info
     --------------------
     sticks:   dense  smooth     PW     G-vecs:    dense   smooth      PW
     Min         220     220     63                 8825     8825    1359
     Max         221     221     64                 8827     8827    1360
     Sum        7053    7053   2027               282431   282431   43495

     Using Slab Decomposition



     bravais-lattice index     =            7
     lattice parameter (alat)  =      10.2486  a.u.
     unit-cell volume          =     293.6554 (a.u.)^3
     number of atoms/cell      =            2
     number of atomic types    =            1
     number of electrons       =        28.00
     number of Kohn-Sham states=           18
     kinetic-energy cutoff     =     370.0000  Ry
     charge density cutoff     =    1480.0000  Ry
     scf convergence threshold =      1.0E-07
     mixing beta               =       0.7000
     number of iterations used =            8  plain     mixing
     Exchange-correlation=  SLA  PW   GGX  GGC
                           (   1   4   2   2   0   0   0)

     celldm(1)=  10.248600  celldm(2)=   0.000000  celldm(3)=   0.545600
     celldm(4)=   0.000000  celldm(5)=   0.000000  celldm(6)=   0.000000

     crystal axes: (cart. coord. in units of alat)
               a(1) = (   0.500000  -0.500000   0.272800 )  
               a(2) = (   0.500000   0.500000   0.272800 )  
               a(3) = (  -0.500000  -0.500000   0.272800 )  

     reciprocal axes: (cart. coord. in units 2 pi/alat)
               b(1) = (  1.000000 -1.000000  0.000000 )  
               b(2) = (  0.000000  1.000000  1.832845 )  
               b(3) = ( -1.000000  0.000000  1.832845 )  


     PseudoPot. # 1 for Sn read from file:
     ./Sn.pw91-n-van.UPF
     MD5 check sum: a38d2a872edd1a4efd76c0a1a38f7031
     Pseudo is Ultrasoft + core correction, Zval = 14.0
     Generated by new atomic code, or converted to UPF format
     Using radial grid of  891 points,  6 beta functions with: 
                l(1) =   0
                l(2) =   0
                l(3) =   1
                l(4) =   1
                l(5) =   2
                l(6) =   2
     Q(r) pseudized with  8 coefficients,  rinner =    1.100   1.100   1.100
                                                       1.100   1.100

     atomic species   valence    mass     pseudopotential
     Sn               14.00   118.70000     Sn( 1.00)

     16 Sym. Ops., with inversion, found (12 have fractional translation)



   Cartesian axes

     site n.     atom                  positions (alat units)
         1        Sn     tau(   1) = (   0.0000000  -0.2500000   0.0682000  )
         2        Sn     tau(   2) = (   0.0000000   0.2500000  -0.0682000  )

     number of k points=   244  Gaussian smearing, width (Ry)=  0.0400

     Number of k-points >= 100: set verbosity='high' to print them.

     Dense  grid:   282431 G-vectors     FFT dimensions: (  96,  96,  96)

     Estimated max dynamical RAM per process >      34.45 MB

     Estimated total dynamical RAM >       4.10 GB

     Initial potential from superposition of free atoms

     starting charge      27.9964, renormalised to      28.0000
     Starting wfcs are   18 randomized atomic wfcs

     total cpu time spent up to now is        2.7 secs

     per-process dynamical memory:    36.3 Mb

     Self-consistent Calculation

     iteration #  1     ecut=   370.00 Ry     beta= 0.70
     Davidson diagonalization with overlap
     ethr =  1.00E-02,  avg # of iterations =  4.6

     Threshold (ethr) on eigenvalues was too large:
     Diagonalizing with lowered threshold

     Davidson diagonalization with overlap
     ethr =  5.60E-05,  avg # of iterations =  3.1

     total cpu time spent up to now is       11.4 secs

     total energy              =    -325.49676352 Ry
     estimated scf accuracy    <       0.01627472 Ry

     iteration #  2     ecut=   370.00 Ry     beta= 0.70
     Davidson diagonalization with overlap
     ethr =  5.81E-05,  avg # of iterations =  4.7

     total cpu time spent up to now is       17.0 secs

     total energy              =    -325.57197661 Ry
     estimated scf accuracy    <       0.01149023 Ry

     iteration #  3     ecut=   370.00 Ry     beta= 0.70
     Davidson diagonalization with overlap
     ethr =  4.10E-05,  avg # of iterations =  2.0

     total cpu time spent up to now is       20.6 secs

     total energy              =    -325.59441452 Ry
     estimated scf accuracy    <       0.00241430 Ry

     iteration #  4     ecut=   370.00 Ry     beta= 0.70
     Davidson diagonalization with overlap
     ethr =  8.62E-06,  avg # of iterations =  2.1

     total cpu time spent up to now is       24.4 secs

     total energy              =    -325.59481022 Ry
     estimated scf accuracy    <       0.00005968 Ry

     iteration #  5     ecut=   370.00 Ry     beta= 0.70
     Davidson diagonalization with overlap
     ethr =  2.13E-07,  avg # of iterations =  1.7

     total cpu time spent up to now is       27.8 secs

     total energy              =    -325.59480993 Ry
     estimated scf accuracy    <       0.00001032 Ry

     iteration #  6     ecut=   370.00 Ry     beta= 0.70
     Davidson diagonalization with overlap
     ethr =  3.68E-08,  avg # of iterations =  1.6

     total cpu time spent up to now is       31.3 secs

     End of self-consistent calculation

     Number of k-points >= 100: set verbosity='high' to print the bands.

     the Fermi energy is    14.5373 ev

!    total energy              =    -325.59481048 Ry
     estimated scf accuracy    <       0.00000004 Ry
     smearing contrib. (-TS)   =      -0.00811385 Ry
     internal energy E=F+TS    =    -325.58669663 Ry

     The total energy is F=E-TS. E is the sum of the following terms:
     one-electron contribution =     -84.10302005 Ry
     hartree contribution      =      66.40220941 Ry
     xc contribution           =     -95.50383955 Ry
     ewald contribution        =    -212.38204645 Ry

     convergence has been achieved in   6 iterations

     Writing all to output data dir ./beta-EOS/beta.save/ :
     XML data file, charge density, pseudopotentials, collected wavefunctions

     init_run     :      2.25s CPU      2.36s WALL (       1 calls)
     electrons    :     28.00s CPU     28.76s WALL (       1 calls)

     Called by init_run:
     wfcinit      :      1.26s CPU      1.31s WALL (       1 calls)
     potinit      :      0.04s CPU      0.06s WALL (       1 calls)
     hinit0       :      0.70s CPU      0.72s WALL (       1 calls)

     Called by electrons:
     c_bands      :     23.60s CPU     24.16s WALL (       7 calls)
     sum_band     :      4.10s CPU      4.17s WALL (       7 calls)
     v_of_rho     :      0.19s CPU      0.23s WALL (       7 calls)
     newd         :      0.11s CPU      0.12s WALL (       7 calls)
     mix_rho      :      0.02s CPU      0.02s WALL (       7 calls)

     Called by c_bands:
     init_us_2    :      0.47s CPU      0.49s WALL (     915 calls)
     cegterg      :     21.78s CPU     22.11s WALL (     427 calls)

     Called by *egterg:
     cdiaghg      :      0.88s CPU      0.89s WALL (    1596 calls)
     h_psi        :     19.56s CPU     19.86s WALL (    1718 calls)
     s_psi        :      0.35s CPU      0.36s WALL (    1718 calls)
     g_psi        :      0.05s CPU      0.05s WALL (    1230 calls)

     Called by h_psi:
     h_psi:calbec :      0.63s CPU      0.64s WALL (    1718 calls)
     vloc_psi     :     18.43s CPU     18.71s WALL (    1718 calls)
     add_vuspsi   :      0.37s CPU      0.38s WALL (    1718 calls)

     General routines
     calbec       :      0.77s CPU      0.78s WALL (    2145 calls)
     fft          :      0.77s CPU      0.81s WALL (      78 calls)
     ffts         :      0.02s CPU      0.02s WALL (       7 calls)
     fftw         :     19.67s CPU     19.95s WALL (   48118 calls)

     Parallel routines

     PWSCF        :     31.39s CPU     36.40s WALL


   This run was terminated on:  23:25:17  25Feb2026            

=------------------------------------------------------------------------------=
   JOB DONE.
=------------------------------------------------------------------------------=
