
     Program PWSCF v.7.3.1 starts on 25Feb2026 at 23:27:15 

     This program is part of the open-source Quantum ESPRESSO suite
     for quantum simulation of materials; please cite
         "P. Giannozzi et al., J. Phys.:Condens. Matter 21 395502 (2009);
         "P. Giannozzi et al., J. Phys.:Condens. Matter 29 465901 (2017);
         "P. Giannozzi et al., J. Chem. Phys. 152 154105 (2020);
          URL http://www.quantum-espresso.org", 
     in publications or presentations arising from this work. More details at
     http://www.quantum-espresso.org/quote

     Parallel version (MPI), running on   128 processors

     MPI processes distributed on     1 nodes
     233835 MiB available memory on the printing compute node when the environment starts

     Waiting for input...
     Reading input from standard input

     Current dimensions of program PWSCF are:
     Max number of different atomic species (ntypx) = 10
     Max number of k-points (npk) =  40000
     Max angular momentum in pseudopotentials (lmaxx) =  4

     K-points division:     npool     =       4
     R & G space division:  proc/nbgrp/npool/nimage =      32
     Subspace diagonalization in iterative solution of the eigenvalue problem:
     a serial algorithm will be used


     Parallelization info
     --------------------
     sticks:   dense  smooth     PW     G-vecs:    dense   smooth      PW
     Min         223     223     64                 9050     9050    1391
     Max         224     224     66                 9054     9054    1392
     Sum        7155    7155   2055               289655   289655   44527

     Using Slab Decomposition



     bravais-lattice index     =            7
     lattice parameter (alat)  =      10.3368  a.u.
     unit-cell volume          =     301.2990 (a.u.)^3
     number of atoms/cell      =            2
     number of atomic types    =            1
     number of electrons       =        28.00
     number of Kohn-Sham states=           18
     kinetic-energy cutoff     =     370.0000  Ry
     charge density cutoff     =    1480.0000  Ry
     scf convergence threshold =      1.0E-07
     mixing beta               =       0.7000
     number of iterations used =            8  plain     mixing
     Exchange-correlation=  SLA  PW   GGX  GGC
                           (   1   4   2   2   0   0   0)

     celldm(1)=  10.336760  celldm(2)=   0.000000  celldm(3)=   0.545600
     celldm(4)=   0.000000  celldm(5)=   0.000000  celldm(6)=   0.000000

     crystal axes: (cart. coord. in units of alat)
               a(1) = (   0.500000  -0.500000   0.272800 )  
               a(2) = (   0.500000   0.500000   0.272800 )  
               a(3) = (  -0.500000  -0.500000   0.272800 )  

     reciprocal axes: (cart. coord. in units 2 pi/alat)
               b(1) = (  1.000000 -1.000000  0.000000 )  
               b(2) = (  0.000000  1.000000  1.832845 )  
               b(3) = ( -1.000000  0.000000  1.832845 )  


     PseudoPot. # 1 for Sn read from file:
     ./Sn.pw91-n-van.UPF
     MD5 check sum: a38d2a872edd1a4efd76c0a1a38f7031
     Pseudo is Ultrasoft + core correction, Zval = 14.0
     Generated by new atomic code, or converted to UPF format
     Using radial grid of  891 points,  6 beta functions with: 
                l(1) =   0
                l(2) =   0
                l(3) =   1
                l(4) =   1
                l(5) =   2
                l(6) =   2
     Q(r) pseudized with  8 coefficients,  rinner =    1.100   1.100   1.100
                                                       1.100   1.100

     atomic species   valence    mass     pseudopotential
     Sn               14.00   118.70000     Sn( 1.00)

     16 Sym. Ops., with inversion, found (12 have fractional translation)



   Cartesian axes

     site n.     atom                  positions (alat units)
         1        Sn     tau(   1) = (   0.0000000  -0.2500000   0.0682000  )
         2        Sn     tau(   2) = (   0.0000000   0.2500000  -0.0682000  )

     number of k points=   244  Gaussian smearing, width (Ry)=  0.0400

     Number of k-points >= 100: set verbosity='high' to print them.

     Dense  grid:   289655 G-vectors     FFT dimensions: (  96,  96,  96)

     Estimated max dynamical RAM per process >      35.22 MB

     Estimated total dynamical RAM >       4.20 GB

     Initial potential from superposition of free atoms

     starting charge      27.9964, renormalised to      28.0000
     Starting wfcs are   18 randomized atomic wfcs

     total cpu time spent up to now is        2.7 secs

     per-process dynamical memory:    36.9 Mb

     Self-consistent Calculation

     iteration #  1     ecut=   370.00 Ry     beta= 0.70
     Davidson diagonalization with overlap
     ethr =  1.00E-02,  avg # of iterations =  4.7

     Threshold (ethr) on eigenvalues was too large:
     Diagonalizing with lowered threshold

     Davidson diagonalization with overlap
     ethr =  6.00E-05,  avg # of iterations =  2.9

     total cpu time spent up to now is       11.5 secs

     total energy              =    -325.50174854 Ry
     estimated scf accuracy    <       0.01738995 Ry

     iteration #  2     ecut=   370.00 Ry     beta= 0.70
     Davidson diagonalization with overlap
     ethr =  6.21E-05,  avg # of iterations =  4.8

     total cpu time spent up to now is       17.2 secs

     total energy              =    -325.58230885 Ry
     estimated scf accuracy    <       0.01291933 Ry

     iteration #  3     ecut=   370.00 Ry     beta= 0.70
     Davidson diagonalization with overlap
     ethr =  4.61E-05,  avg # of iterations =  2.0

     total cpu time spent up to now is       20.8 secs

     total energy              =    -325.60613743 Ry
     estimated scf accuracy    <       0.00279820 Ry

     iteration #  4     ecut=   370.00 Ry     beta= 0.70
     Davidson diagonalization with overlap
     ethr =  9.99E-06,  avg # of iterations =  2.2

     total cpu time spent up to now is       24.7 secs

     total energy              =    -325.60654216 Ry
     estimated scf accuracy    <       0.00003765 Ry

     iteration #  5     ecut=   370.00 Ry     beta= 0.70
     Davidson diagonalization with overlap
     ethr =  1.34E-07,  avg # of iterations =  1.9

     total cpu time spent up to now is       28.3 secs

     total energy              =    -325.60654259 Ry
     estimated scf accuracy    <       0.00001087 Ry

     iteration #  6     ecut=   370.00 Ry     beta= 0.70
     Davidson diagonalization with overlap
     ethr =  3.88E-08,  avg # of iterations =  1.1

     total cpu time spent up to now is       31.6 secs

     End of self-consistent calculation

     Number of k-points >= 100: set verbosity='high' to print the bands.

     the Fermi energy is    14.0508 ev

!    total energy              =    -325.60654312 Ry
     estimated scf accuracy    <       0.00000005 Ry
     smearing contrib. (-TS)   =      -0.00834273 Ry
     internal energy E=F+TS    =    -325.59820039 Ry

     The total energy is F=E-TS. E is the sum of the following terms:
     one-electron contribution =     -86.90516700 Ry
     hartree contribution      =      67.34295412 Ry
     xc contribution           =     -95.46530181 Ry
     ewald contribution        =    -210.57068571 Ry

     convergence has been achieved in   6 iterations

     Writing all to output data dir ./beta-EOS/beta.save/ :
     XML data file, charge density, pseudopotentials, collected wavefunctions

     init_run     :      2.32s CPU      2.40s WALL (       1 calls)
     electrons    :     28.23s CPU     28.96s WALL (       1 calls)

     Called by init_run:
     wfcinit      :      1.33s CPU      1.35s WALL (       1 calls)
     potinit      :      0.04s CPU      0.06s WALL (       1 calls)
     hinit0       :      0.70s CPU      0.71s WALL (       1 calls)

     Called by electrons:
     c_bands      :     23.80s CPU     24.33s WALL (       7 calls)
     sum_band     :      4.12s CPU      4.21s WALL (       7 calls)
     v_of_rho     :      0.20s CPU      0.23s WALL (       7 calls)
     newd         :      0.12s CPU      0.12s WALL (       7 calls)
     mix_rho      :      0.02s CPU      0.02s WALL (       7 calls)

     Called by c_bands:
     init_us_2    :      0.48s CPU      0.50s WALL (     915 calls)
     cegterg      :     21.81s CPU     22.11s WALL (     427 calls)

     Called by *egterg:
     cdiaghg      :      0.87s CPU      0.88s WALL (    1568 calls)
     h_psi        :     19.60s CPU     19.87s WALL (    1690 calls)
     s_psi        :      0.36s CPU      0.36s WALL (    1690 calls)
     g_psi        :      0.06s CPU      0.06s WALL (    1202 calls)

     Called by h_psi:
     h_psi:calbec :      0.64s CPU      0.65s WALL (    1690 calls)
     vloc_psi     :     18.44s CPU     18.69s WALL (    1690 calls)
     add_vuspsi   :      0.38s CPU      0.38s WALL (    1690 calls)

     General routines
     calbec       :      0.78s CPU      0.79s WALL (    2117 calls)
     fft          :      0.78s CPU      0.81s WALL (      78 calls)
     ffts         :      0.01s CPU      0.02s WALL (       7 calls)
     fftw         :     19.67s CPU     19.94s WALL (   47956 calls)

     Parallel routines

     PWSCF        :     31.88s CPU     35.37s WALL


   This run was terminated on:  23:27:51  25Feb2026            

=------------------------------------------------------------------------------=
   JOB DONE.
=------------------------------------------------------------------------------=
