
     Program PWSCF v.7.3.1 starts on 25Feb2026 at 23:32:57 

     This program is part of the open-source Quantum ESPRESSO suite
     for quantum simulation of materials; please cite
         "P. Giannozzi et al., J. Phys.:Condens. Matter 21 395502 (2009);
         "P. Giannozzi et al., J. Phys.:Condens. Matter 29 465901 (2017);
         "P. Giannozzi et al., J. Chem. Phys. 152 154105 (2020);
          URL http://www.quantum-espresso.org", 
     in publications or presentations arising from this work. More details at
     http://www.quantum-espresso.org/quote

     Parallel version (MPI), running on   128 processors

     MPI processes distributed on     1 nodes
     233635 MiB available memory on the printing compute node when the environment starts

     Waiting for input...
     Reading input from standard input

     Current dimensions of program PWSCF are:
     Max number of different atomic species (ntypx) = 10
     Max number of k-points (npk) =  40000
     Max angular momentum in pseudopotentials (lmaxx) =  4

     K-points division:     npool     =       4
     R & G space division:  proc/nbgrp/npool/nimage =      32
     Subspace diagonalization in iterative solution of the eigenvalue problem:
     a serial algorithm will be used


     Parallelization info
     --------------------
     sticks:   dense  smooth     PW     G-vecs:    dense   smooth      PW
     Min         230     230     66                 9460     9460    1449
     Max         231     231     67                 9463     9463    1450
     Sum        7381    7381   2117               302767   302767   46375

     Using Slab Decomposition



     bravais-lattice index     =            7
     lattice parameter (alat)  =      10.4910  a.u.
     unit-cell volume          =     314.9923 (a.u.)^3
     number of atoms/cell      =            2
     number of atomic types    =            1
     number of electrons       =        28.00
     number of Kohn-Sham states=           18
     kinetic-energy cutoff     =     370.0000  Ry
     charge density cutoff     =    1480.0000  Ry
     scf convergence threshold =      1.0E-07
     mixing beta               =       0.7000
     number of iterations used =            8  plain     mixing
     Exchange-correlation=  SLA  PW   GGX  GGC
                           (   1   4   2   2   0   0   0)

     celldm(1)=  10.491040  celldm(2)=   0.000000  celldm(3)=   0.545600
     celldm(4)=   0.000000  celldm(5)=   0.000000  celldm(6)=   0.000000

     crystal axes: (cart. coord. in units of alat)
               a(1) = (   0.500000  -0.500000   0.272800 )  
               a(2) = (   0.500000   0.500000   0.272800 )  
               a(3) = (  -0.500000  -0.500000   0.272800 )  

     reciprocal axes: (cart. coord. in units 2 pi/alat)
               b(1) = (  1.000000 -1.000000  0.000000 )  
               b(2) = (  0.000000  1.000000  1.832845 )  
               b(3) = ( -1.000000  0.000000  1.832845 )  


     PseudoPot. # 1 for Sn read from file:
     ./Sn.pw91-n-van.UPF
     MD5 check sum: a38d2a872edd1a4efd76c0a1a38f7031
     Pseudo is Ultrasoft + core correction, Zval = 14.0
     Generated by new atomic code, or converted to UPF format
     Using radial grid of  891 points,  6 beta functions with: 
                l(1) =   0
                l(2) =   0
                l(3) =   1
                l(4) =   1
                l(5) =   2
                l(6) =   2
     Q(r) pseudized with  8 coefficients,  rinner =    1.100   1.100   1.100
                                                       1.100   1.100

     atomic species   valence    mass     pseudopotential
     Sn               14.00   118.70000     Sn( 1.00)

     16 Sym. Ops., with inversion, found (12 have fractional translation)



   Cartesian axes

     site n.     atom                  positions (alat units)
         1        Sn     tau(   1) = (   0.0000000  -0.2500000   0.0682000  )
         2        Sn     tau(   2) = (   0.0000000   0.2500000  -0.0682000  )

     number of k points=   244  Gaussian smearing, width (Ry)=  0.0400

     Number of k-points >= 100: set verbosity='high' to print them.

     Dense  grid:   302767 G-vectors     FFT dimensions: ( 100, 100, 100)

     Estimated max dynamical RAM per process >      37.45 MB

     Estimated total dynamical RAM >       4.47 GB

     Initial potential from superposition of free atoms

     starting charge      27.9964, renormalised to      28.0000
     Starting wfcs are   18 randomized atomic wfcs

     total cpu time spent up to now is        2.9 secs

     per-process dynamical memory:    39.1 Mb

     Self-consistent Calculation

     iteration #  1     ecut=   370.00 Ry     beta= 0.70
     Davidson diagonalization with overlap
     ethr =  1.00E-02,  avg # of iterations =  4.6

     Threshold (ethr) on eigenvalues was too large:
     Diagonalizing with lowered threshold

     Davidson diagonalization with overlap
     ethr =  7.12E-05,  avg # of iterations =  2.8

     total cpu time spent up to now is       14.4 secs

     total energy              =    -325.50330273 Ry
     estimated scf accuracy    <       0.02062079 Ry

     iteration #  2     ecut=   370.00 Ry     beta= 0.70
     Davidson diagonalization with overlap
     ethr =  7.36E-05,  avg # of iterations =  4.7

     total cpu time spent up to now is       21.8 secs

     total energy              =    -325.59646967 Ry
     estimated scf accuracy    <       0.01619808 Ry

     iteration #  3     ecut=   370.00 Ry     beta= 0.70
     Davidson diagonalization with overlap
     ethr =  5.79E-05,  avg # of iterations =  1.9

     total cpu time spent up to now is       26.5 secs

     total energy              =    -325.62224713 Ry
     estimated scf accuracy    <       0.00363071 Ry

     iteration #  4     ecut=   370.00 Ry     beta= 0.70
     Davidson diagonalization with overlap
     ethr =  1.30E-05,  avg # of iterations =  2.2

     total cpu time spent up to now is       31.7 secs

     total energy              =    -325.62324486 Ry
     estimated scf accuracy    <       0.00001620 Ry

     iteration #  5     ecut=   370.00 Ry     beta= 0.70
     Davidson diagonalization with overlap
     ethr =  5.78E-08,  avg # of iterations =  2.6

     total cpu time spent up to now is       37.7 secs

     total energy              =    -325.62325199 Ry
     estimated scf accuracy    <       0.00001060 Ry

     iteration #  6     ecut=   370.00 Ry     beta= 0.70
     Davidson diagonalization with overlap
     ethr =  3.79E-08,  avg # of iterations =  1.0

     total cpu time spent up to now is       42.0 secs

     total energy              =    -325.62325248 Ry
     estimated scf accuracy    <       0.00000011 Ry

     iteration #  7     ecut=   370.00 Ry     beta= 0.70
     Davidson diagonalization with overlap
     ethr =  3.85E-10,  avg # of iterations =  2.0

     total cpu time spent up to now is       46.8 secs

     End of self-consistent calculation

     Number of k-points >= 100: set verbosity='high' to print the bands.

     the Fermi energy is    13.2392 ev

!    total energy              =    -325.62325248 Ry
     estimated scf accuracy    <       0.00000003 Ry
     smearing contrib. (-TS)   =      -0.00877557 Ry
     internal energy E=F+TS    =    -325.61447691 Ry

     The total energy is F=E-TS. E is the sum of the following terms:
     one-electron contribution =     -91.71265981 Ry
     hartree contribution      =      68.97378224 Ry
     xc contribution           =     -95.40154136 Ry
     ewald contribution        =    -207.47405798 Ry

     convergence has been achieved in   7 iterations

     Writing all to output data dir ./beta-EOS/beta.save/ :
     XML data file, charge density, pseudopotentials, collected wavefunctions

     init_run     :      2.47s CPU      2.61s WALL (       1 calls)
     electrons    :     43.23s CPU     44.04s WALL (       1 calls)

     Called by init_run:
     wfcinit      :      1.69s CPU      1.74s WALL (       1 calls)
     potinit      :      0.04s CPU      0.08s WALL (       1 calls)
     hinit0       :      0.48s CPU      0.49s WALL (       1 calls)

     Called by electrons:
     c_bands      :     36.37s CPU     36.94s WALL (       8 calls)
     sum_band     :      6.42s CPU      6.51s WALL (       8 calls)
     v_of_rho     :      0.30s CPU      0.35s WALL (       8 calls)
     newd         :      0.12s CPU      0.14s WALL (       8 calls)
     mix_rho      :      0.03s CPU      0.03s WALL (       8 calls)

     Called by c_bands:
     init_us_2    :      0.58s CPU      0.60s WALL (    1037 calls)
     cegterg      :     34.11s CPU     34.43s WALL (     488 calls)

     Called by *egterg:
     cdiaghg      :      1.03s CPU      1.04s WALL (    1790 calls)
     h_psi        :     31.42s CPU     31.74s WALL (    1912 calls)
     s_psi        :      0.44s CPU      0.44s WALL (    1912 calls)
     g_psi        :      0.07s CPU      0.07s WALL (    1363 calls)

     Called by h_psi:
     h_psi:calbec :      0.88s CPU      0.89s WALL (    1912 calls)
     vloc_psi     :     29.89s CPU     30.20s WALL (    1912 calls)
     add_vuspsi   :      0.46s CPU      0.46s WALL (    1912 calls)

     General routines
     calbec       :      1.05s CPU      1.06s WALL (    2400 calls)
     fft          :      0.59s CPU      0.65s WALL (      89 calls)
     ffts         :      0.02s CPU      0.02s WALL (       8 calls)
     fftw         :     31.85s CPU     32.16s WALL (   55436 calls)

     Parallel routines

     PWSCF        :     47.02s CPU     53.10s WALL


   This run was terminated on:  23:33:51  25Feb2026            

=------------------------------------------------------------------------------=
   JOB DONE.
=------------------------------------------------------------------------------=
