
     Program PWSCF v.7.3.1 starts on 25Feb2026 at 23:34:50 

     This program is part of the open-source Quantum ESPRESSO suite
     for quantum simulation of materials; please cite
         "P. Giannozzi et al., J. Phys.:Condens. Matter 21 395502 (2009);
         "P. Giannozzi et al., J. Phys.:Condens. Matter 29 465901 (2017);
         "P. Giannozzi et al., J. Chem. Phys. 152 154105 (2020);
          URL http://www.quantum-espresso.org", 
     in publications or presentations arising from this work. More details at
     http://www.quantum-espresso.org/quote

     Parallel version (MPI), running on   128 processors

     MPI processes distributed on     1 nodes
     233597 MiB available memory on the printing compute node when the environment starts

     Waiting for input...
     Reading input from standard input

     Current dimensions of program PWSCF are:
     Max number of different atomic species (ntypx) = 10
     Max number of k-points (npk) =  40000
     Max angular momentum in pseudopotentials (lmaxx) =  4

     K-points division:     npool     =       4
     R & G space division:  proc/nbgrp/npool/nimage =      32
     Subspace diagonalization in iterative solution of the eigenvalue problem:
     a serial algorithm will be used


     Parallelization info
     --------------------
     sticks:   dense  smooth     PW     G-vecs:    dense   smooth      PW
     Min         232     232     66                 9583     9583    1466
     Max         233     233     67                 9586     9586    1469
     Sum        7441    7441   2141               306695   306695   46967

     Using Slab Decomposition



     bravais-lattice index     =            7
     lattice parameter (alat)  =      10.5351  a.u.
     unit-cell volume          =     318.9795 (a.u.)^3
     number of atoms/cell      =            2
     number of atomic types    =            1
     number of electrons       =        28.00
     number of Kohn-Sham states=           18
     kinetic-energy cutoff     =     370.0000  Ry
     charge density cutoff     =    1480.0000  Ry
     scf convergence threshold =      1.0E-07
     mixing beta               =       0.7000
     number of iterations used =            8  plain     mixing
     Exchange-correlation=  SLA  PW   GGX  GGC
                           (   1   4   2   2   0   0   0)

     celldm(1)=  10.535120  celldm(2)=   0.000000  celldm(3)=   0.545600
     celldm(4)=   0.000000  celldm(5)=   0.000000  celldm(6)=   0.000000

     crystal axes: (cart. coord. in units of alat)
               a(1) = (   0.500000  -0.500000   0.272800 )  
               a(2) = (   0.500000   0.500000   0.272800 )  
               a(3) = (  -0.500000  -0.500000   0.272800 )  

     reciprocal axes: (cart. coord. in units 2 pi/alat)
               b(1) = (  1.000000 -1.000000  0.000000 )  
               b(2) = (  0.000000  1.000000  1.832845 )  
               b(3) = ( -1.000000  0.000000  1.832845 )  


     PseudoPot. # 1 for Sn read from file:
     ./Sn.pw91-n-van.UPF
     MD5 check sum: a38d2a872edd1a4efd76c0a1a38f7031
     Pseudo is Ultrasoft + core correction, Zval = 14.0
     Generated by new atomic code, or converted to UPF format
     Using radial grid of  891 points,  6 beta functions with: 
                l(1) =   0
                l(2) =   0
                l(3) =   1
                l(4) =   1
                l(5) =   2
                l(6) =   2
     Q(r) pseudized with  8 coefficients,  rinner =    1.100   1.100   1.100
                                                       1.100   1.100

     atomic species   valence    mass     pseudopotential
     Sn               14.00   118.70000     Sn( 1.00)

     16 Sym. Ops., with inversion, found (12 have fractional translation)



   Cartesian axes

     site n.     atom                  positions (alat units)
         1        Sn     tau(   1) = (   0.0000000  -0.2500000   0.0682000  )
         2        Sn     tau(   2) = (   0.0000000   0.2500000  -0.0682000  )

     number of k points=   244  Gaussian smearing, width (Ry)=  0.0400

     Number of k-points >= 100: set verbosity='high' to print them.

     Dense  grid:   306695 G-vectors     FFT dimensions: ( 100, 100, 100)

     Estimated max dynamical RAM per process >      37.86 MB

     Estimated total dynamical RAM >       4.51 GB

     Initial potential from superposition of free atoms

     starting charge      27.9964, renormalised to      28.0000
     Starting wfcs are   18 randomized atomic wfcs

     total cpu time spent up to now is        2.9 secs

     per-process dynamical memory:    39.8 Mb

     Self-consistent Calculation

     iteration #  1     ecut=   370.00 Ry     beta= 0.70
     Davidson diagonalization with overlap
     ethr =  1.00E-02,  avg # of iterations =  4.7

     Threshold (ethr) on eigenvalues was too large:
     Diagonalizing with lowered threshold

     Davidson diagonalization with overlap
     ethr =  7.35E-05,  avg # of iterations =  2.8

     total cpu time spent up to now is       14.5 secs

     total energy              =    -325.50430579 Ry
     estimated scf accuracy    <       0.02129403 Ry

     iteration #  2     ecut=   370.00 Ry     beta= 0.70
     Davidson diagonalization with overlap
     ethr =  7.61E-05,  avg # of iterations =  4.8

     total cpu time spent up to now is       21.9 secs

     total energy              =    -325.59981202 Ry
     estimated scf accuracy    <       0.01682076 Ry

     iteration #  3     ecut=   370.00 Ry     beta= 0.70
     Davidson diagonalization with overlap
     ethr =  6.01E-05,  avg # of iterations =  1.9

     total cpu time spent up to now is       26.6 secs

     total energy              =    -325.62589952 Ry
     estimated scf accuracy    <       0.00378380 Ry

     iteration #  4     ecut=   370.00 Ry     beta= 0.70
     Davidson diagonalization with overlap
     ethr =  1.35E-05,  avg # of iterations =  2.2

     total cpu time spent up to now is       31.8 secs

     total energy              =    -325.62720203 Ry
     estimated scf accuracy    <       0.00003136 Ry

     iteration #  5     ecut=   370.00 Ry     beta= 0.70
     Davidson diagonalization with overlap
     ethr =  1.12E-07,  avg # of iterations =  2.5

     total cpu time spent up to now is       37.5 secs

     total energy              =    -325.62721251 Ry
     estimated scf accuracy    <       0.00001037 Ry

     iteration #  6     ecut=   370.00 Ry     beta= 0.70
     Davidson diagonalization with overlap
     ethr =  3.71E-08,  avg # of iterations =  1.0

     total cpu time spent up to now is       41.8 secs

     total energy              =    -325.62721300 Ry
     estimated scf accuracy    <       0.00000014 Ry

     iteration #  7     ecut=   370.00 Ry     beta= 0.70
     Davidson diagonalization with overlap
     ethr =  5.03E-10,  avg # of iterations =  2.0

     total cpu time spent up to now is       46.7 secs

     End of self-consistent calculation

     Number of k-points >= 100: set verbosity='high' to print the bands.

     the Fermi energy is    13.0163 ev

!    total energy              =    -325.62721301 Ry
     estimated scf accuracy    <       0.00000003 Ry
     smearing contrib. (-TS)   =      -0.00890734 Ry
     internal energy E=F+TS    =    -325.61830567 Ry

     The total energy is F=E-TS. E is the sum of the following terms:
     one-electron contribution =     -93.06417030 Ry
     hartree contribution      =      69.43595119 Ry
     xc contribution           =     -95.38412087 Ry
     ewald contribution        =    -206.60596569 Ry

     convergence has been achieved in   7 iterations

     Writing all to output data dir ./beta-EOS/beta.save/ :
     XML data file, charge density, pseudopotentials, collected wavefunctions

     init_run     :      2.52s CPU      2.63s WALL (       1 calls)
     electrons    :     42.93s CPU     43.80s WALL (       1 calls)

     Called by init_run:
     wfcinit      :      1.71s CPU      1.74s WALL (       1 calls)
     potinit      :      0.05s CPU      0.08s WALL (       1 calls)
     hinit0       :      0.48s CPU      0.49s WALL (       1 calls)

     Called by electrons:
     c_bands      :     36.05s CPU     36.70s WALL (       8 calls)
     sum_band     :      6.41s CPU      6.53s WALL (       8 calls)
     v_of_rho     :      0.32s CPU      0.36s WALL (       8 calls)
     newd         :      0.13s CPU      0.14s WALL (       8 calls)
     mix_rho      :      0.03s CPU      0.03s WALL (       8 calls)

     Called by c_bands:
     init_us_2    :      0.58s CPU      0.61s WALL (    1037 calls)
     cegterg      :     33.81s CPU     34.20s WALL (     488 calls)

     Called by *egterg:
     cdiaghg      :      1.01s CPU      1.02s WALL (    1770 calls)
     h_psi        :     31.18s CPU     31.54s WALL (    1892 calls)
     s_psi        :      0.44s CPU      0.44s WALL (    1892 calls)
     g_psi        :      0.07s CPU      0.07s WALL (    1343 calls)

     Called by h_psi:
     h_psi:calbec :      0.89s CPU      0.90s WALL (    1892 calls)
     vloc_psi     :     29.65s CPU     29.98s WALL (    1892 calls)
     add_vuspsi   :      0.46s CPU      0.47s WALL (    1892 calls)

     General routines
     calbec       :      1.06s CPU      1.07s WALL (    2380 calls)
     fft          :      0.62s CPU      0.66s WALL (      89 calls)
     ffts         :      0.02s CPU      0.02s WALL (       8 calls)
     fftw         :     31.58s CPU     31.94s WALL (   54986 calls)

     Parallel routines

     PWSCF        :     46.73s CPU     51.38s WALL


   This run was terminated on:  23:35:42  25Feb2026            

=------------------------------------------------------------------------------=
   JOB DONE.
=------------------------------------------------------------------------------=
