
     Program PWSCF v.7.3.1 starts on 25Feb2026 at 23:36:40 

     This program is part of the open-source Quantum ESPRESSO suite
     for quantum simulation of materials; please cite
         "P. Giannozzi et al., J. Phys.:Condens. Matter 21 395502 (2009);
         "P. Giannozzi et al., J. Phys.:Condens. Matter 29 465901 (2017);
         "P. Giannozzi et al., J. Chem. Phys. 152 154105 (2020);
          URL http://www.quantum-espresso.org", 
     in publications or presentations arising from this work. More details at
     http://www.quantum-espresso.org/quote

     Parallel version (MPI), running on   128 processors

     MPI processes distributed on     1 nodes
     233521 MiB available memory on the printing compute node when the environment starts

     Waiting for input...
     Reading input from standard input

     Current dimensions of program PWSCF are:
     Max number of different atomic species (ntypx) = 10
     Max number of k-points (npk) =  40000
     Max angular momentum in pseudopotentials (lmaxx) =  4

     K-points division:     npool     =       4
     R & G space division:  proc/nbgrp/npool/nimage =      32
     Subspace diagonalization in iterative solution of the eigenvalue problem:
     a serial algorithm will be used


     Parallelization info
     --------------------
     sticks:   dense  smooth     PW     G-vecs:    dense   smooth      PW
     Min         234     234     67                 9704     9704    1486
     Max         235     235     68                 9706     9706    1487
     Sum        7505    7505   2153               310559   310559   47567

     Using Slab Decomposition



     bravais-lattice index     =            7
     lattice parameter (alat)  =      10.5792  a.u.
     unit-cell volume          =     323.0002 (a.u.)^3
     number of atoms/cell      =            2
     number of atomic types    =            1
     number of electrons       =        28.00
     number of Kohn-Sham states=           18
     kinetic-energy cutoff     =     370.0000  Ry
     charge density cutoff     =    1480.0000  Ry
     scf convergence threshold =      1.0E-07
     mixing beta               =       0.7000
     number of iterations used =            8  plain     mixing
     Exchange-correlation=  SLA  PW   GGX  GGC
                           (   1   4   2   2   0   0   0)

     celldm(1)=  10.579200  celldm(2)=   0.000000  celldm(3)=   0.545600
     celldm(4)=   0.000000  celldm(5)=   0.000000  celldm(6)=   0.000000

     crystal axes: (cart. coord. in units of alat)
               a(1) = (   0.500000  -0.500000   0.272800 )  
               a(2) = (   0.500000   0.500000   0.272800 )  
               a(3) = (  -0.500000  -0.500000   0.272800 )  

     reciprocal axes: (cart. coord. in units 2 pi/alat)
               b(1) = (  1.000000 -1.000000  0.000000 )  
               b(2) = (  0.000000  1.000000  1.832845 )  
               b(3) = ( -1.000000  0.000000  1.832845 )  


     PseudoPot. # 1 for Sn read from file:
     ./Sn.pw91-n-van.UPF
     MD5 check sum: a38d2a872edd1a4efd76c0a1a38f7031
     Pseudo is Ultrasoft + core correction, Zval = 14.0
     Generated by new atomic code, or converted to UPF format
     Using radial grid of  891 points,  6 beta functions with: 
                l(1) =   0
                l(2) =   0
                l(3) =   1
                l(4) =   1
                l(5) =   2
                l(6) =   2
     Q(r) pseudized with  8 coefficients,  rinner =    1.100   1.100   1.100
                                                       1.100   1.100

     atomic species   valence    mass     pseudopotential
     Sn               14.00   118.70000     Sn( 1.00)

     16 Sym. Ops., with inversion, found (12 have fractional translation)



   Cartesian axes

     site n.     atom                  positions (alat units)
         1        Sn     tau(   1) = (   0.0000000  -0.2500000   0.0682000  )
         2        Sn     tau(   2) = (   0.0000000   0.2500000  -0.0682000  )

     number of k points=   244  Gaussian smearing, width (Ry)=  0.0400

     Number of k-points >= 100: set verbosity='high' to print them.

     Dense  grid:   310559 G-vectors     FFT dimensions: ( 100, 100, 100)

     Estimated max dynamical RAM per process >      38.26 MB

     Estimated total dynamical RAM >       4.56 GB

     Initial potential from superposition of free atoms

     starting charge      27.9964, renormalised to      28.0000
     Starting wfcs are   18 randomized atomic wfcs

     total cpu time spent up to now is        3.0 secs

     per-process dynamical memory:    39.7 Mb

     Self-consistent Calculation

     iteration #  1     ecut=   370.00 Ry     beta= 0.70
     Davidson diagonalization with overlap
     ethr =  1.00E-02,  avg # of iterations =  4.6

     Threshold (ethr) on eigenvalues was too large:
     Diagonalizing with lowered threshold

     Davidson diagonalization with overlap
     ethr =  7.60E-05,  avg # of iterations =  2.8

     total cpu time spent up to now is       14.6 secs

     total energy              =    -325.50505273 Ry
     estimated scf accuracy    <       0.02204886 Ry

     iteration #  2     ecut=   370.00 Ry     beta= 0.70
     Davidson diagonalization with overlap
     ethr =  7.87E-05,  avg # of iterations =  4.8

     total cpu time spent up to now is       22.1 secs

     total energy              =    -325.60304710 Ry
     estimated scf accuracy    <       0.01757997 Ry

     iteration #  3     ecut=   370.00 Ry     beta= 0.70
     Davidson diagonalization with overlap
     ethr =  6.28E-05,  avg # of iterations =  1.9

     total cpu time spent up to now is       26.8 secs

     total energy              =    -325.62912485 Ry
     estimated scf accuracy    <       0.00396937 Ry

     iteration #  4     ecut=   370.00 Ry     beta= 0.70
     Davidson diagonalization with overlap
     ethr =  1.42E-05,  avg # of iterations =  2.2

     total cpu time spent up to now is       32.0 secs

     total energy              =    -325.63082376 Ry
     estimated scf accuracy    <       0.00006049 Ry

     iteration #  5     ecut=   370.00 Ry     beta= 0.70
     Davidson diagonalization with overlap
     ethr =  2.16E-07,  avg # of iterations =  2.4

     total cpu time spent up to now is       37.3 secs

     total energy              =    -325.63083910 Ry
     estimated scf accuracy    <       0.00001011 Ry

     iteration #  6     ecut=   370.00 Ry     beta= 0.70
     Davidson diagonalization with overlap
     ethr =  3.61E-08,  avg # of iterations =  1.0

     total cpu time spent up to now is       41.6 secs

     total energy              =    -325.63083967 Ry
     estimated scf accuracy    <       0.00000016 Ry

     iteration #  7     ecut=   370.00 Ry     beta= 0.70
     Davidson diagonalization with overlap
     ethr =  5.78E-10,  avg # of iterations =  2.0

     total cpu time spent up to now is       46.5 secs

     End of self-consistent calculation

     Number of k-points >= 100: set verbosity='high' to print the bands.

     the Fermi energy is    12.7971 ev

!    total energy              =    -325.63083968 Ry
     estimated scf accuracy    <       0.00000002 Ry
     smearing contrib. (-TS)   =      -0.00904277 Ry
     internal energy E=F+TS    =    -325.62179691 Ry

     The total energy is F=E-TS. E is the sum of the following terms:
     one-electron contribution =     -94.40616855 Ry
     hartree contribution      =      69.89654029 Ry
     xc contribution           =     -95.36706114 Ry
     ewald contribution        =    -205.74510750 Ry

     convergence has been achieved in   7 iterations

     Writing all to output data dir ./beta-EOS/beta.save/ :
     XML data file, charge density, pseudopotentials, collected wavefunctions

     init_run     :      2.53s CPU      2.63s WALL (       1 calls)
     electrons    :     42.82s CPU     43.68s WALL (       1 calls)

     Called by init_run:
     wfcinit      :      1.71s CPU      1.75s WALL (       1 calls)
     potinit      :      0.06s CPU      0.07s WALL (       1 calls)
     hinit0       :      0.47s CPU      0.49s WALL (       1 calls)

     Called by electrons:
     c_bands      :     35.85s CPU     36.53s WALL (       8 calls)
     sum_band     :      6.51s CPU      6.56s WALL (       8 calls)
     v_of_rho     :      0.32s CPU      0.35s WALL (       8 calls)
     newd         :      0.12s CPU      0.14s WALL (       8 calls)
     mix_rho      :      0.03s CPU      0.03s WALL (       8 calls)

     Called by c_bands:
     init_us_2    :      0.60s CPU      0.63s WALL (    1037 calls)
     cegterg      :     33.56s CPU     33.95s WALL (     488 calls)

     Called by *egterg:
     cdiaghg      :      0.99s CPU      1.01s WALL (    1757 calls)
     h_psi        :     30.92s CPU     31.29s WALL (    1879 calls)
     s_psi        :      0.44s CPU      0.44s WALL (    1879 calls)
     g_psi        :      0.07s CPU      0.07s WALL (    1330 calls)

     Called by h_psi:
     h_psi:calbec :      0.88s CPU      0.89s WALL (    1879 calls)
     vloc_psi     :     29.40s CPU     29.74s WALL (    1879 calls)
     add_vuspsi   :      0.46s CPU      0.46s WALL (    1879 calls)

     General routines
     calbec       :      1.05s CPU      1.06s WALL (    2367 calls)
     fft          :      0.61s CPU      0.65s WALL (      89 calls)
     ffts         :      0.02s CPU      0.02s WALL (       8 calls)
     fftw         :     31.45s CPU     31.77s WALL (   54272 calls)

     Parallel routines

     PWSCF        :     46.68s CPU     52.02s WALL


   This run was terminated on:  23:37:32  25Feb2026            

=------------------------------------------------------------------------------=
   JOB DONE.
=------------------------------------------------------------------------------=
