
     Program PWSCF v.7.3.1 starts on 25Feb2026 at 23:41:19 

     This program is part of the open-source Quantum ESPRESSO suite
     for quantum simulation of materials; please cite
         "P. Giannozzi et al., J. Phys.:Condens. Matter 21 395502 (2009);
         "P. Giannozzi et al., J. Phys.:Condens. Matter 29 465901 (2017);
         "P. Giannozzi et al., J. Chem. Phys. 152 154105 (2020);
          URL http://www.quantum-espresso.org", 
     in publications or presentations arising from this work. More details at
     http://www.quantum-espresso.org/quote

     Parallel version (MPI), running on   128 processors

     MPI processes distributed on     1 nodes
     233527 MiB available memory on the printing compute node when the environment starts

     Waiting for input...
     Reading input from standard input

     Current dimensions of program PWSCF are:
     Max number of different atomic species (ntypx) = 10
     Max number of k-points (npk) =  40000
     Max angular momentum in pseudopotentials (lmaxx) =  4

     K-points division:     npool     =       4
     R & G space division:  proc/nbgrp/npool/nimage =      32
     Subspace diagonalization in iterative solution of the eigenvalue problem:
     a serial algorithm will be used


     Parallelization info
     --------------------
     sticks:   dense  smooth     PW     G-vecs:    dense   smooth      PW
     Min         239     239     68                10014    10014    1526
     Max         240     240     69                10017    10017    1529
     Sum        7663    7663   2189               320499   320499   48871

     Using Slab Decomposition



     bravais-lattice index     =            7
     lattice parameter (alat)  =      10.6894  a.u.
     unit-cell volume          =     333.1995 (a.u.)^3
     number of atoms/cell      =            2
     number of atomic types    =            1
     number of electrons       =        28.00
     number of Kohn-Sham states=           18
     kinetic-energy cutoff     =     370.0000  Ry
     charge density cutoff     =    1480.0000  Ry
     scf convergence threshold =      1.0E-07
     mixing beta               =       0.7000
     number of iterations used =            8  plain     mixing
     Exchange-correlation=  SLA  PW   GGX  GGC
                           (   1   4   2   2   0   0   0)

     celldm(1)=  10.689400  celldm(2)=   0.000000  celldm(3)=   0.545600
     celldm(4)=   0.000000  celldm(5)=   0.000000  celldm(6)=   0.000000

     crystal axes: (cart. coord. in units of alat)
               a(1) = (   0.500000  -0.500000   0.272800 )  
               a(2) = (   0.500000   0.500000   0.272800 )  
               a(3) = (  -0.500000  -0.500000   0.272800 )  

     reciprocal axes: (cart. coord. in units 2 pi/alat)
               b(1) = (  1.000000 -1.000000  0.000000 )  
               b(2) = (  0.000000  1.000000  1.832845 )  
               b(3) = ( -1.000000  0.000000  1.832845 )  


     PseudoPot. # 1 for Sn read from file:
     ./Sn.pw91-n-van.UPF
     MD5 check sum: a38d2a872edd1a4efd76c0a1a38f7031
     Pseudo is Ultrasoft + core correction, Zval = 14.0
     Generated by new atomic code, or converted to UPF format
     Using radial grid of  891 points,  6 beta functions with: 
                l(1) =   0
                l(2) =   0
                l(3) =   1
                l(4) =   1
                l(5) =   2
                l(6) =   2
     Q(r) pseudized with  8 coefficients,  rinner =    1.100   1.100   1.100
                                                       1.100   1.100

     atomic species   valence    mass     pseudopotential
     Sn               14.00   118.70000     Sn( 1.00)

     16 Sym. Ops., with inversion, found (12 have fractional translation)



   Cartesian axes

     site n.     atom                  positions (alat units)
         1        Sn     tau(   1) = (   0.0000000  -0.2500000   0.0682000  )
         2        Sn     tau(   2) = (   0.0000000   0.2500000  -0.0682000  )

     number of k points=   244  Gaussian smearing, width (Ry)=  0.0400

     Number of k-points >= 100: set verbosity='high' to print them.

     Dense  grid:   320499 G-vectors     FFT dimensions: ( 100, 100, 100)

     Estimated max dynamical RAM per process >      39.28 MB

     Estimated total dynamical RAM >       4.68 GB

     Initial potential from superposition of free atoms

     starting charge      27.9964, renormalised to      28.0000
     Starting wfcs are   18 randomized atomic wfcs

     total cpu time spent up to now is        3.0 secs

     per-process dynamical memory:    40.5 Mb

     Self-consistent Calculation

     iteration #  1     ecut=   370.00 Ry     beta= 0.70
     Davidson diagonalization with overlap
     ethr =  1.00E-02,  avg # of iterations =  4.6

     Threshold (ethr) on eigenvalues was too large:
     Diagonalizing with lowered threshold

     Davidson diagonalization with overlap
     ethr =  8.72E-05,  avg # of iterations =  2.7

     total cpu time spent up to now is       14.7 secs

     total energy              =    -325.49956205 Ry
     estimated scf accuracy    <       0.02526655 Ry

     iteration #  2     ecut=   370.00 Ry     beta= 0.70
     Davidson diagonalization with overlap
     ethr =  9.02E-05,  avg # of iterations =  4.7

     total cpu time spent up to now is       22.3 secs

     total energy              =    -325.60868957 Ry
     estimated scf accuracy    <       0.02060899 Ry

     iteration #  3     ecut=   370.00 Ry     beta= 0.70
     Davidson diagonalization with overlap
     ethr =  7.36E-05,  avg # of iterations =  1.7

     total cpu time spent up to now is       27.0 secs

     total energy              =    -325.63467354 Ry
     estimated scf accuracy    <       0.00470856 Ry

     iteration #  4     ecut=   370.00 Ry     beta= 0.70
     Davidson diagonalization with overlap
     ethr =  1.68E-05,  avg # of iterations =  2.2

     total cpu time spent up to now is       32.2 secs

     total energy              =    -325.63848988 Ry
     estimated scf accuracy    <       0.00029146 Ry

     iteration #  5     ecut=   370.00 Ry     beta= 0.70
     Davidson diagonalization with overlap
     ethr =  1.04E-06,  avg # of iterations =  2.4

     total cpu time spent up to now is       37.4 secs

     total energy              =    -325.63853616 Ry
     estimated scf accuracy    <       0.00000947 Ry

     iteration #  6     ecut=   370.00 Ry     beta= 0.70
     Davidson diagonalization with overlap
     ethr =  3.38E-08,  avg # of iterations =  1.2

     total cpu time spent up to now is       41.9 secs

     total energy              =    -325.63853683 Ry
     estimated scf accuracy    <       0.00000031 Ry

     iteration #  7     ecut=   370.00 Ry     beta= 0.70
     Davidson diagonalization with overlap
     ethr =  1.10E-09,  avg # of iterations =  2.0

     total cpu time spent up to now is       46.8 secs

     End of self-consistent calculation

     Number of k-points >= 100: set verbosity='high' to print the bands.

     the Fermi energy is    12.2655 ev

!    total energy              =    -325.63853685 Ry
     estimated scf accuracy    <       0.00000002 Ry
     smearing contrib. (-TS)   =      -0.00939702 Ry
     internal energy E=F+TS    =    -325.62913984 Ry

     The total energy is F=E-TS. E is the sum of the following terms:
     one-electron contribution =     -97.71983864 Ry
     hartree contribution      =      71.04053717 Ry
     xc contribution           =     -95.32581445 Ry
     ewald contribution        =    -203.62402391 Ry

     convergence has been achieved in   7 iterations

     Writing all to output data dir ./beta-EOS/beta.save/ :
     XML data file, charge density, pseudopotentials, collected wavefunctions

     init_run     :      2.58s CPU      2.67s WALL (       1 calls)
     electrons    :     43.17s CPU     43.91s WALL (       1 calls)

     Called by init_run:
     wfcinit      :      1.74s CPU      1.78s WALL (       1 calls)
     potinit      :      0.05s CPU      0.07s WALL (       1 calls)
     hinit0       :      0.48s CPU      0.49s WALL (       1 calls)

     Called by electrons:
     c_bands      :     36.11s CPU     36.73s WALL (       8 calls)
     sum_band     :      6.57s CPU      6.61s WALL (       8 calls)
     v_of_rho     :      0.33s CPU      0.35s WALL (       8 calls)
     newd         :      0.15s CPU      0.15s WALL (       8 calls)
     mix_rho      :      0.04s CPU      0.04s WALL (       8 calls)

     Called by c_bands:
     init_us_2    :      0.62s CPU      0.64s WALL (    1037 calls)
     cegterg      :     33.65s CPU     33.99s WALL (     488 calls)

     Called by *egterg:
     cdiaghg      :      0.99s CPU      1.00s WALL (    1750 calls)
     h_psi        :     30.94s CPU     31.27s WALL (    1872 calls)
     s_psi        :      0.45s CPU      0.45s WALL (    1872 calls)
     g_psi        :      0.07s CPU      0.07s WALL (    1323 calls)

     Called by h_psi:
     h_psi:calbec :      0.92s CPU      0.93s WALL (    1872 calls)
     vloc_psi     :     29.34s CPU     29.65s WALL (    1872 calls)
     add_vuspsi   :      0.48s CPU      0.48s WALL (    1872 calls)

     General routines
     calbec       :      1.10s CPU      1.11s WALL (    2360 calls)
     fft          :      0.64s CPU      0.65s WALL (      89 calls)
     ffts         :      0.02s CPU      0.02s WALL (       8 calls)
     fftw         :     31.37s CPU     31.66s WALL (   54014 calls)

     Parallel routines

     PWSCF        :     47.06s CPU     51.92s WALL


   This run was terminated on:  23:42:11  25Feb2026            

=------------------------------------------------------------------------------=
   JOB DONE.
=------------------------------------------------------------------------------=
