
     Program PWSCF v.7.3.1 starts on 25Feb2026 at 23:49:22 

     This program is part of the open-source Quantum ESPRESSO suite
     for quantum simulation of materials; please cite
         "P. Giannozzi et al., J. Phys.:Condens. Matter 21 395502 (2009);
         "P. Giannozzi et al., J. Phys.:Condens. Matter 29 465901 (2017);
         "P. Giannozzi et al., J. Chem. Phys. 152 154105 (2020);
          URL http://www.quantum-espresso.org", 
     in publications or presentations arising from this work. More details at
     http://www.quantum-espresso.org/quote

     Parallel version (MPI), running on   128 processors

     MPI processes distributed on     1 nodes
     233266 MiB available memory on the printing compute node when the environment starts

     Waiting for input...
     Reading input from standard input

     Current dimensions of program PWSCF are:
     Max number of different atomic species (ntypx) = 10
     Max number of k-points (npk) =  40000
     Max angular momentum in pseudopotentials (lmaxx) =  4

     K-points division:     npool     =       4
     R & G space division:  proc/nbgrp/npool/nimage =      32
     Subspace diagonalization in iterative solution of the eigenvalue problem:
     a serial algorithm will be used


     Parallelization info
     --------------------
     sticks:   dense  smooth     PW     G-vecs:    dense   smooth      PW
     Min         247     247     70                10516    10516    1600
     Max         248     248     71                10520    10520    1603
     Sum        7929    7929   2247               336581   336581   51227

     Using Slab Decomposition



     bravais-lattice index     =            7
     lattice parameter (alat)  =      10.8657  a.u.
     unit-cell volume          =     349.9612 (a.u.)^3
     number of atoms/cell      =            2
     number of atomic types    =            1
     number of electrons       =        28.00
     number of Kohn-Sham states=           18
     kinetic-energy cutoff     =     370.0000  Ry
     charge density cutoff     =    1480.0000  Ry
     scf convergence threshold =      1.0E-07
     mixing beta               =       0.7000
     number of iterations used =            8  plain     mixing
     Exchange-correlation=  SLA  PW   GGX  GGC
                           (   1   4   2   2   0   0   0)

     celldm(1)=  10.865720  celldm(2)=   0.000000  celldm(3)=   0.545600
     celldm(4)=   0.000000  celldm(5)=   0.000000  celldm(6)=   0.000000

     crystal axes: (cart. coord. in units of alat)
               a(1) = (   0.500000  -0.500000   0.272800 )  
               a(2) = (   0.500000   0.500000   0.272800 )  
               a(3) = (  -0.500000  -0.500000   0.272800 )  

     reciprocal axes: (cart. coord. in units 2 pi/alat)
               b(1) = (  1.000000 -1.000000  0.000000 )  
               b(2) = (  0.000000  1.000000  1.832845 )  
               b(3) = ( -1.000000  0.000000  1.832845 )  


     PseudoPot. # 1 for Sn read from file:
     ./Sn.pw91-n-van.UPF
     MD5 check sum: a38d2a872edd1a4efd76c0a1a38f7031
     Pseudo is Ultrasoft + core correction, Zval = 14.0
     Generated by new atomic code, or converted to UPF format
     Using radial grid of  891 points,  6 beta functions with: 
                l(1) =   0
                l(2) =   0
                l(3) =   1
                l(4) =   1
                l(5) =   2
                l(6) =   2
     Q(r) pseudized with  8 coefficients,  rinner =    1.100   1.100   1.100
                                                       1.100   1.100

     atomic species   valence    mass     pseudopotential
     Sn               14.00   118.70000     Sn( 1.00)

     16 Sym. Ops., with inversion, found (12 have fractional translation)



   Cartesian axes

     site n.     atom                  positions (alat units)
         1        Sn     tau(   1) = (   0.0000000  -0.2500000   0.0682000  )
         2        Sn     tau(   2) = (   0.0000000   0.2500000  -0.0682000  )

     number of k points=   244  Gaussian smearing, width (Ry)=  0.0400

     Number of k-points >= 100: set verbosity='high' to print them.

     Dense  grid:   336581 G-vectors     FFT dimensions: ( 108, 108, 108)

     Estimated max dynamical RAM per process >      41.42 MB

     Estimated total dynamical RAM >       4.94 GB

     Initial potential from superposition of free atoms

     starting charge      27.9964, renormalised to      28.0000
     Starting wfcs are   18 randomized atomic wfcs

     total cpu time spent up to now is        3.4 secs

     per-process dynamical memory:    42.8 Mb

     Self-consistent Calculation

     iteration #  1     ecut=   370.00 Ry     beta= 0.70
     Davidson diagonalization with overlap
     ethr =  1.00E-02,  avg # of iterations =  4.5

     Threshold (ethr) on eigenvalues was too large:
     Diagonalizing with lowered threshold

     Davidson diagonalization with overlap
     ethr =  9.65E-05,  avg # of iterations =  2.6

     total cpu time spent up to now is       17.4 secs

     total energy              =    -325.49961727 Ry
     estimated scf accuracy    <       0.02804108 Ry

     iteration #  2     ecut=   370.00 Ry     beta= 0.70
     Davidson diagonalization with overlap
     ethr =  1.00E-04,  avg # of iterations =  4.6

     total cpu time spent up to now is       26.5 secs

     total energy              =    -325.61511418 Ry
     estimated scf accuracy    <       0.02268253 Ry

     iteration #  3     ecut=   370.00 Ry     beta= 0.70
     Davidson diagonalization with overlap
     ethr =  8.10E-05,  avg # of iterations =  1.7

     total cpu time spent up to now is       32.1 secs

     total energy              =    -325.64018581 Ry
     estimated scf accuracy    <       0.00514660 Ry

     iteration #  4     ecut=   370.00 Ry     beta= 0.70
     Davidson diagonalization with overlap
     ethr =  1.84E-05,  avg # of iterations =  2.1

     total cpu time spent up to now is       38.3 secs

     total energy              =    -325.64709108 Ry
     estimated scf accuracy    <       0.00066414 Ry

     iteration #  5     ecut=   370.00 Ry     beta= 0.70
     Davidson diagonalization with overlap
     ethr =  2.37E-06,  avg # of iterations =  2.6

     total cpu time spent up to now is       45.0 secs

     total energy              =    -325.64719526 Ry
     estimated scf accuracy    <       0.00001044 Ry

     iteration #  6     ecut=   370.00 Ry     beta= 0.70
     Davidson diagonalization with overlap
     ethr =  3.73E-08,  avg # of iterations =  1.6

     total cpu time spent up to now is       50.6 secs

     total energy              =    -325.64719636 Ry
     estimated scf accuracy    <       0.00000048 Ry

     iteration #  7     ecut=   370.00 Ry     beta= 0.70
     Davidson diagonalization with overlap
     ethr =  1.72E-09,  avg # of iterations =  2.0

     total cpu time spent up to now is       56.6 secs

     End of self-consistent calculation

     Number of k-points >= 100: set verbosity='high' to print the bands.

     the Fermi energy is    11.4603 ev

!    total energy              =    -325.64719640 Ry
     estimated scf accuracy    <       0.00000002 Ry
     smearing contrib. (-TS)   =      -0.01000749 Ry
     internal energy E=F+TS    =    -325.63718891 Ry

     The total energy is F=E-TS. E is the sum of the following terms:
     one-electron contribution =    -102.90268662 Ry
     hartree contribution      =      72.84914038 Ry
     xc contribution           =     -95.26386255 Ry
     ewald contribution        =    -200.31978012 Ry

     convergence has been achieved in   7 iterations

     Writing all to output data dir ./beta-EOS/beta.save/ :
     XML data file, charge density, pseudopotentials, collected wavefunctions

     init_run     :      2.99s CPU      3.09s WALL (       1 calls)
     electrons    :     52.31s CPU     53.21s WALL (       1 calls)

     Called by init_run:
     wfcinit      :      2.09s CPU      2.13s WALL (       1 calls)
     potinit      :      0.07s CPU      0.09s WALL (       1 calls)
     hinit0       :      0.50s CPU      0.51s WALL (       1 calls)

     Called by electrons:
     c_bands      :     43.76s CPU     44.47s WALL (       8 calls)
     sum_band     :      8.02s CPU      8.09s WALL (       8 calls)
     v_of_rho     :      0.40s CPU      0.43s WALL (       8 calls)
     newd         :      0.14s CPU      0.15s WALL (       8 calls)
     mix_rho      :      0.04s CPU      0.04s WALL (       8 calls)

     Called by c_bands:
     init_us_2    :      0.72s CPU      0.74s WALL (    1037 calls)
     cegterg      :     40.89s CPU     41.30s WALL (     488 calls)

     Called by *egterg:
     cdiaghg      :      1.01s CPU      1.02s WALL (    1783 calls)
     h_psi        :     38.24s CPU     38.62s WALL (    1905 calls)
     s_psi        :      0.48s CPU      0.48s WALL (    1905 calls)
     g_psi        :      0.07s CPU      0.07s WALL (    1356 calls)

     Called by h_psi:
     h_psi:calbec :      1.04s CPU      1.05s WALL (    1905 calls)
     vloc_psi     :     36.48s CPU     36.83s WALL (    1905 calls)
     add_vuspsi   :      0.51s CPU      0.52s WALL (    1905 calls)

     General routines
     calbec       :      1.24s CPU      1.26s WALL (    2393 calls)
     fft          :      0.66s CPU      0.70s WALL (      89 calls)
     ffts         :      0.02s CPU      0.03s WALL (       8 calls)
     fftw         :     38.86s CPU     39.22s WALL (   54130 calls)

     Parallel routines

     PWSCF        :     56.40s CPU   1m 2.31s WALL


   This run was terminated on:  23:50:25  25Feb2026            

=------------------------------------------------------------------------------=
   JOB DONE.
=------------------------------------------------------------------------------=
