
     Program PWSCF v.7.3.1 starts on 25Feb2026 at 19:53:46 

     This program is part of the open-source Quantum ESPRESSO suite
     for quantum simulation of materials; please cite
         "P. Giannozzi et al., J. Phys.:Condens. Matter 21 395502 (2009);
         "P. Giannozzi et al., J. Phys.:Condens. Matter 29 465901 (2017);
         "P. Giannozzi et al., J. Chem. Phys. 152 154105 (2020);
          URL http://www.quantum-espresso.org", 
     in publications or presentations arising from this work. More details at
     http://www.quantum-espresso.org/quote

     Parallel version (MPI), running on   128 processors

     MPI processes distributed on     1 nodes
     234404 MiB available memory on the printing compute node when the environment starts

     Waiting for input...
     Reading input from standard input

     Current dimensions of program PWSCF are:
     Max number of different atomic species (ntypx) = 10
     Max number of k-points (npk) =  40000
     Max angular momentum in pseudopotentials (lmaxx) =  4

     K-points division:     npool     =       4
     R & G space division:  proc/nbgrp/npool/nimage =      32
     Subspace diagonalization in iterative solution of the eigenvalue problem:
     a serial algorithm will be used


     Parallelization info
     --------------------
     sticks:   dense  smooth     PW     G-vecs:    dense   smooth      PW
     Min         247     247     70                10516    10516    1600
     Max         248     248     71                10520    10520    1603
     Sum        7929    7929   2247               336581   336581   51227

     Using Slab Decomposition



     bravais-lattice index     =            7
     lattice parameter (alat)  =      10.8657  a.u.
     unit-cell volume          =     349.9612 (a.u.)^3
     number of atoms/cell      =            2
     number of atomic types    =            1
     number of electrons       =        28.00
     number of Kohn-Sham states=           14
     kinetic-energy cutoff     =     370.0000  Ry
     charge density cutoff     =    1480.0000  Ry
     scf convergence threshold =      1.0E-07
     mixing beta               =       0.7000
     number of iterations used =            8  plain     mixing
     Exchange-correlation=  SLA  PW   GGX  GGC
                           (   1   4   2   2   0   0   0)

     celldm(1)=  10.865720  celldm(2)=   0.000000  celldm(3)=   0.545600
     celldm(4)=   0.000000  celldm(5)=   0.000000  celldm(6)=   0.000000

     crystal axes: (cart. coord. in units of alat)
               a(1) = (   0.500000  -0.500000   0.272800 )  
               a(2) = (   0.500000   0.500000   0.272800 )  
               a(3) = (  -0.500000  -0.500000   0.272800 )  

     reciprocal axes: (cart. coord. in units 2 pi/alat)
               b(1) = (  1.000000 -1.000000  0.000000 )  
               b(2) = (  0.000000  1.000000  1.832845 )  
               b(3) = ( -1.000000  0.000000  1.832845 )  


     PseudoPot. # 1 for Sn read from file:
     ./Sn.pw91-n-van.UPF
     MD5 check sum: a38d2a872edd1a4efd76c0a1a38f7031
     Pseudo is Ultrasoft + core correction, Zval = 14.0
     Generated by new atomic code, or converted to UPF format
     Using radial grid of  891 points,  6 beta functions with: 
                l(1) =   0
                l(2) =   0
                l(3) =   1
                l(4) =   1
                l(5) =   2
                l(6) =   2
     Q(r) pseudized with  8 coefficients,  rinner =    1.100   1.100   1.100
                                                       1.100   1.100

     atomic species   valence    mass     pseudopotential
     Sn               14.00   118.70000     Sn( 1.00)

     16 Sym. Ops., with inversion, found (12 have fractional translation)



   Cartesian axes

     site n.     atom                  positions (alat units)
         1        Sn     tau(   1) = (   0.0000000  -0.2500000   0.0682000  )
         2        Sn     tau(   2) = (   0.0000000   0.2500000  -0.0682000  )

     number of k points=   244

     Number of k-points >= 100: set verbosity='high' to print them.

     Dense  grid:   336581 G-vectors     FFT dimensions: ( 108, 108, 108)

     Estimated max dynamical RAM per process >      36.45 MB

     Estimated total dynamical RAM >       4.32 GB

     Initial potential from superposition of free atoms

     starting charge      27.9964, renormalised to      28.0000
     Starting wfcs are   18 randomized atomic wfcs

     total cpu time spent up to now is        3.4 secs

     per-process dynamical memory:    37.2 Mb

     Self-consistent Calculation

     iteration #  1     ecut=   370.00 Ry     beta= 0.70
     Davidson diagonalization with overlap
     ethr =  1.00E-02,  avg # of iterations =  3.1

     Threshold (ethr) on eigenvalues was too large:
     Diagonalizing with lowered threshold

     Davidson diagonalization with overlap
     ethr =  7.36E-05,  avg # of iterations =  4.5

     total cpu time spent up to now is       14.3 secs

     total energy              =    -325.44434884 Ry
     estimated scf accuracy    <       0.02589950 Ry

     iteration #  2     ecut=   370.00 Ry     beta= 0.70
     Davidson diagonalization with overlap
     ethr =  9.25E-05,  avg # of iterations =  4.9

     total cpu time spent up to now is       21.4 secs

     total energy              =    -325.55718849 Ry
     estimated scf accuracy    <       0.02201453 Ry

     iteration #  3     ecut=   370.00 Ry     beta= 0.70
     Davidson diagonalization with overlap
     ethr =  7.86E-05,  avg # of iterations =  2.0

     total cpu time spent up to now is       26.1 secs

     total energy              =    -325.58306176 Ry
     estimated scf accuracy    <       0.00514962 Ry

     iteration #  4     ecut=   370.00 Ry     beta= 0.70
     Davidson diagonalization with overlap
     ethr =  1.84E-05,  avg # of iterations =  2.2

     total cpu time spent up to now is       31.0 secs

     total energy              =    -325.58985383 Ry
     estimated scf accuracy    <       0.00061524 Ry

     iteration #  5     ecut=   370.00 Ry     beta= 0.70
     Davidson diagonalization with overlap
     ethr =  2.20E-06,  avg # of iterations =  3.0

     total cpu time spent up to now is       36.2 secs

     total energy              =    -325.58998200 Ry
     estimated scf accuracy    <       0.00001016 Ry

     iteration #  6     ecut=   370.00 Ry     beta= 0.70
     Davidson diagonalization with overlap
     ethr =  3.63E-08,  avg # of iterations =  3.8

     total cpu time spent up to now is       41.8 secs

     total energy              =    -325.59001969 Ry
     estimated scf accuracy    <       0.00000190 Ry

     iteration #  7     ecut=   370.00 Ry     beta= 0.70
     Davidson diagonalization with overlap
     ethr =  6.79E-09,  avg # of iterations =  4.1

     total cpu time spent up to now is       48.5 secs

     total energy              =    -325.59001800 Ry
     estimated scf accuracy    <       0.00000711 Ry

     iteration #  8     ecut=   370.00 Ry     beta= 0.70
     Davidson diagonalization with overlap
     ethr =  6.79E-09,  avg # of iterations =  3.6

     total cpu time spent up to now is       54.9 secs

     End of self-consistent calculation

     Number of k-points >= 100: set verbosity='high' to print the bands.

     highest occupied level (ev):    13.0257

!    total energy              =    -325.59001888 Ry
     estimated scf accuracy    <       0.00000002 Ry

     The total energy is the sum of the following terms:
     one-electron contribution =    -102.90675676 Ry
     hartree contribution      =      72.90886637 Ry
     xc contribution           =     -95.27234837 Ry
     ewald contribution        =    -200.31978012 Ry

     convergence has been achieved in   8 iterations

     Writing all to output data dir ./beta-EOS/beta.save/ :
     XML data file, charge density, pseudopotentials, collected wavefunctions

     init_run     :      2.96s CPU      3.08s WALL (       1 calls)
     electrons    :     50.63s CPU     51.62s WALL (       1 calls)

     Called by init_run:
     wfcinit      :      2.08s CPU      2.12s WALL (       1 calls)
     potinit      :      0.06s CPU      0.09s WALL (       1 calls)
     hinit0       :      0.50s CPU      0.52s WALL (       1 calls)

     Called by electrons:
     c_bands      :     42.92s CPU     43.67s WALL (       9 calls)
     sum_band     :      7.08s CPU      7.19s WALL (       9 calls)
     v_of_rho     :      0.44s CPU      0.48s WALL (       9 calls)
     newd         :      0.16s CPU      0.18s WALL (       9 calls)
     mix_rho      :      0.05s CPU      0.05s WALL (       9 calls)

     Called by c_bands:
     init_us_2    :      0.75s CPU      0.78s WALL (    1159 calls)
     cegterg      :     39.57s CPU     39.99s WALL (     549 calls)

     Called by *egterg:
     cdiaghg      :      0.93s CPU      0.94s WALL (    2520 calls)
     h_psi        :     37.00s CPU     37.42s WALL (    2642 calls)
     s_psi        :      0.53s CPU      0.54s WALL (    2642 calls)
     g_psi        :      0.07s CPU      0.08s WALL (    2032 calls)

     Called by h_psi:
     h_psi:calbec :      1.14s CPU      1.15s WALL (    2642 calls)
     vloc_psi     :     35.10s CPU     35.49s WALL (    2642 calls)
     add_vuspsi   :      0.59s CPU      0.60s WALL (    2642 calls)

     General routines
     calbec       :      1.33s CPU      1.35s WALL (    3191 calls)
     fft          :      0.69s CPU      0.73s WALL (     100 calls)
     ffts         :      0.02s CPU      0.03s WALL (       9 calls)
     fftw         :     36.77s CPU     37.18s WALL (   51344 calls)

     Parallel routines

     PWSCF        :     54.94s CPU   1m 0.53s WALL


   This run was terminated on:  19:54:46  25Feb2026            

=------------------------------------------------------------------------------=
   JOB DONE.
=------------------------------------------------------------------------------=
