
     Program PWSCF v.7.3.1 starts on 25Feb2026 at 19:59: 2 

     This program is part of the open-source Quantum ESPRESSO suite
     for quantum simulation of materials; please cite
         "P. Giannozzi et al., J. Phys.:Condens. Matter 21 395502 (2009);
         "P. Giannozzi et al., J. Phys.:Condens. Matter 29 465901 (2017);
         "P. Giannozzi et al., J. Chem. Phys. 152 154105 (2020);
          URL http://www.quantum-espresso.org", 
     in publications or presentations arising from this work. More details at
     http://www.quantum-espresso.org/quote

     Parallel version (MPI), running on   128 processors

     MPI processes distributed on     1 nodes
     234362 MiB available memory on the printing compute node when the environment starts

     Waiting for input...
     Reading input from standard input

     Current dimensions of program PWSCF are:
     Max number of different atomic species (ntypx) = 10
     Max number of k-points (npk) =  40000
     Max angular momentum in pseudopotentials (lmaxx) =  4

     K-points division:     npool     =       4
     R & G space division:  proc/nbgrp/npool/nimage =      32
     Subspace diagonalization in iterative solution of the eigenvalue problem:
     a serial algorithm will be used


     Parallelization info
     --------------------
     sticks:   dense  smooth     PW     G-vecs:    dense   smooth      PW
     Min         252     252     71                10840    10840    1642
     Max         253     253     72                10842    10842    1645
     Sum        8079    8079   2299               346901   346901   52611

     Using Slab Decomposition



     bravais-lattice index     =            7
     lattice parameter (alat)  =      10.9759  a.u.
     unit-cell volume          =     360.7175 (a.u.)^3
     number of atoms/cell      =            2
     number of atomic types    =            1
     number of electrons       =        28.00
     number of Kohn-Sham states=           14
     kinetic-energy cutoff     =     370.0000  Ry
     charge density cutoff     =    1480.0000  Ry
     scf convergence threshold =      1.0E-07
     mixing beta               =       0.7000
     number of iterations used =            8  plain     mixing
     Exchange-correlation=  SLA  PW   GGX  GGC
                           (   1   4   2   2   0   0   0)

     celldm(1)=  10.975920  celldm(2)=   0.000000  celldm(3)=   0.545600
     celldm(4)=   0.000000  celldm(5)=   0.000000  celldm(6)=   0.000000

     crystal axes: (cart. coord. in units of alat)
               a(1) = (   0.500000  -0.500000   0.272800 )  
               a(2) = (   0.500000   0.500000   0.272800 )  
               a(3) = (  -0.500000  -0.500000   0.272800 )  

     reciprocal axes: (cart. coord. in units 2 pi/alat)
               b(1) = (  1.000000 -1.000000  0.000000 )  
               b(2) = (  0.000000  1.000000  1.832845 )  
               b(3) = ( -1.000000  0.000000  1.832845 )  


     PseudoPot. # 1 for Sn read from file:
     ./Sn.pw91-n-van.UPF
     MD5 check sum: a38d2a872edd1a4efd76c0a1a38f7031
     Pseudo is Ultrasoft + core correction, Zval = 14.0
     Generated by new atomic code, or converted to UPF format
     Using radial grid of  891 points,  6 beta functions with: 
                l(1) =   0
                l(2) =   0
                l(3) =   1
                l(4) =   1
                l(5) =   2
                l(6) =   2
     Q(r) pseudized with  8 coefficients,  rinner =    1.100   1.100   1.100
                                                       1.100   1.100

     atomic species   valence    mass     pseudopotential
     Sn               14.00   118.70000     Sn( 1.00)

     16 Sym. Ops., with inversion, found (12 have fractional translation)



   Cartesian axes

     site n.     atom                  positions (alat units)
         1        Sn     tau(   1) = (   0.0000000  -0.2500000   0.0682000  )
         2        Sn     tau(   2) = (   0.0000000   0.2500000  -0.0682000  )

     number of k points=   244

     Number of k-points >= 100: set verbosity='high' to print them.

     Dense  grid:   346901 G-vectors     FFT dimensions: ( 108, 108, 108)

     Estimated max dynamical RAM per process >      37.37 MB

     Estimated total dynamical RAM >       4.42 GB

     Initial potential from superposition of free atoms

     starting charge      27.9964, renormalised to      28.0000
     Starting wfcs are   18 randomized atomic wfcs

     total cpu time spent up to now is        3.5 secs

     per-process dynamical memory:    38.3 Mb

     Self-consistent Calculation

     iteration #  1     ecut=   370.00 Ry     beta= 0.70
     Davidson diagonalization with overlap
     ethr =  1.00E-02,  avg # of iterations =  3.1

     Threshold (ethr) on eigenvalues was too large:
     Diagonalizing with lowered threshold

     Davidson diagonalization with overlap
     ethr =  8.09E-05,  avg # of iterations =  4.5

     total cpu time spent up to now is       14.5 secs

     total energy              =    -325.44221473 Ry
     estimated scf accuracy    <       0.02801966 Ry

     iteration #  2     ecut=   370.00 Ry     beta= 0.70
     Davidson diagonalization with overlap
     ethr =  1.00E-04,  avg # of iterations =  4.8

     total cpu time spent up to now is       21.7 secs

     total energy              =    -325.56091561 Ry
     estimated scf accuracy    <       0.02389294 Ry

     iteration #  3     ecut=   370.00 Ry     beta= 0.70
     Davidson diagonalization with overlap
     ethr =  8.53E-05,  avg # of iterations =  2.0

     total cpu time spent up to now is       26.4 secs

     total energy              =    -325.58606266 Ry
     estimated scf accuracy    <       0.00556789 Ry

     iteration #  4     ecut=   370.00 Ry     beta= 0.70
     Davidson diagonalization with overlap
     ethr =  1.99E-05,  avg # of iterations =  2.1

     total cpu time spent up to now is       31.3 secs

     total energy              =    -325.59506398 Ry
     estimated scf accuracy    <       0.00093052 Ry

     iteration #  5     ecut=   370.00 Ry     beta= 0.70
     Davidson diagonalization with overlap
     ethr =  3.32E-06,  avg # of iterations =  2.9

     total cpu time spent up to now is       36.6 secs

     total energy              =    -325.59525433 Ry
     estimated scf accuracy    <       0.00000869 Ry

     iteration #  6     ecut=   370.00 Ry     beta= 0.70
     Davidson diagonalization with overlap
     ethr =  3.10E-08,  avg # of iterations =  4.3

     total cpu time spent up to now is       42.3 secs

     total energy              =    -325.59534071 Ry
     estimated scf accuracy    <       0.00000085 Ry

     iteration #  7     ecut=   370.00 Ry     beta= 0.70
     Davidson diagonalization with overlap
     ethr =  3.04E-09,  avg # of iterations =  2.3

     total cpu time spent up to now is       47.3 secs

     End of self-consistent calculation

     Number of k-points >= 100: set verbosity='high' to print the bands.

     highest occupied level (ev):    12.4793

!    total energy              =    -325.59534209 Ry
     estimated scf accuracy    <       0.00000009 Ry

     The total energy is the sum of the following terms:
     one-electron contribution =    -106.07637314 Ry
     hartree contribution      =      74.02544716 Ry
     xc contribution           =     -95.23587876 Ry
     ewald contribution        =    -198.30853735 Ry

     convergence has been achieved in   7 iterations

     Writing all to output data dir ./beta-EOS/beta.save/ :
     XML data file, charge density, pseudopotentials, collected wavefunctions

     init_run     :      3.01s CPU      3.13s WALL (       1 calls)
     electrons    :     43.09s CPU     43.94s WALL (       1 calls)

     Called by init_run:
     wfcinit      :      2.10s CPU      2.15s WALL (       1 calls)
     potinit      :      0.06s CPU      0.08s WALL (       1 calls)
     hinit0       :      0.51s CPU      0.53s WALL (       1 calls)

     Called by electrons:
     c_bands      :     36.20s CPU     36.85s WALL (       8 calls)
     sum_band     :      6.35s CPU      6.43s WALL (       8 calls)
     v_of_rho     :      0.38s CPU      0.43s WALL (       8 calls)
     newd         :      0.15s CPU      0.16s WALL (       8 calls)
     mix_rho      :      0.04s CPU      0.04s WALL (       8 calls)

     Called by c_bands:
     init_us_2    :      0.66s CPU      0.69s WALL (    1037 calls)
     cegterg      :     33.51s CPU     33.88s WALL (     488 calls)

     Called by *egterg:
     cdiaghg      :      0.78s CPU      0.79s WALL (    2115 calls)
     h_psi        :     31.60s CPU     31.96s WALL (    2237 calls)
     s_psi        :      0.47s CPU      0.48s WALL (    2237 calls)
     g_psi        :      0.06s CPU      0.06s WALL (    1688 calls)

     Called by h_psi:
     h_psi:calbec :      1.01s CPU      1.01s WALL (    2237 calls)
     vloc_psi     :     29.92s CPU     30.27s WALL (    2237 calls)
     add_vuspsi   :      0.52s CPU      0.52s WALL (    2237 calls)

     General routines
     calbec       :      1.18s CPU      1.20s WALL (    2725 calls)
     fft          :      0.66s CPU      0.70s WALL (      89 calls)
     ffts         :      0.02s CPU      0.02s WALL (       8 calls)
     fftw         :     31.57s CPU     31.92s WALL (   43794 calls)

     Parallel routines

     PWSCF        :     47.18s CPU     51.92s WALL


   This run was terminated on:  19:59:53  25Feb2026            

=------------------------------------------------------------------------------=
   JOB DONE.
=------------------------------------------------------------------------------=
