
     Program PWSCF v.7.3.1 starts on 23Mar2026 at 18: 8:44 

     This program is part of the open-source Quantum ESPRESSO suite
     for quantum simulation of materials; please cite
         "P. Giannozzi et al., J. Phys.:Condens. Matter 21 395502 (2009);
         "P. Giannozzi et al., J. Phys.:Condens. Matter 29 465901 (2017);
         "P. Giannozzi et al., J. Chem. Phys. 152 154105 (2020);
          URL http://www.quantum-espresso.org", 
     in publications or presentations arising from this work. More details at
     http://www.quantum-espresso.org/quote

     Parallel version (MPI), running on   128 processors

     MPI processes distributed on     1 nodes
     242402 MiB available memory on the printing compute node when the environment starts

     Waiting for input...
     Reading input from standard input

     Current dimensions of program PWSCF are:
     Max number of different atomic species (ntypx) = 10
     Max number of k-points (npk) =  40000
     Max angular momentum in pseudopotentials (lmaxx) =  4
     Found identity + ( -0.5000 -0.5000  0.5000) symmetry
     This is a supercell, fractional translations are disabled

     K-points division:     npool     =       4
     R & G space division:  proc/nbgrp/npool/nimage =      32
     Subspace diagonalization in iterative solution of the eigenvalue problem:
     a serial algorithm will be used


     Parallelization info
     --------------------
     sticks:   dense  smooth     PW     G-vecs:    dense   smooth      PW
     Min          70      70     19                 3652     3652     529
     Max          71      71     20                 3661     3661     534
     Sum        2249    2249    621               116925   116925   17021

     Using Slab Decomposition



     bravais-lattice index     =            6
     lattice parameter (alat)  =       8.8938  a.u.
     unit-cell volume          =    1014.5793 (a.u.)^3
     number of atoms/cell      =           24
     number of atomic types    =            2
     number of electrons       =        64.00
     number of Kohn-Sham states=           32
     kinetic-energy cutoff     =      90.0000  Ry
     charge density cutoff     =     360.0000  Ry
     scf convergence threshold =      1.0E-07
     mixing beta               =       0.7000
     number of iterations used =            8  plain     mixing
     Exchange-correlation=  SLA  PW   PBE  PBE
                           (   1   4   3   4   0   0   0)

     celldm(1)=   8.893795  celldm(2)=   0.000000  celldm(3)=   1.442197
     celldm(4)=   0.000000  celldm(5)=   0.000000  celldm(6)=   0.000000

     crystal axes: (cart. coord. in units of alat)
               a(1) = (   1.000000   0.000000   0.000000 )  
               a(2) = (   0.000000   1.000000   0.000000 )  
               a(3) = (   0.000000   0.000000   1.442197 )  

     reciprocal axes: (cart. coord. in units 2 pi/alat)
               b(1) = (  1.000000  0.000000  0.000000 )  
               b(2) = (  0.000000  1.000000  0.000000 )  
               b(3) = (  0.000000  0.000000  0.693386 )  


     PseudoPot. # 1 for H  read from file:
     ./H.pbe-van_ak.UPF
     MD5 check sum: 077eb6d537518a38cb46c6de387227b7
     Pseudo is Ultrasoft, Zval =  1.0
     Generated by new atomic code, or converted to UPF format
     Using radial grid of  615 points,  1 beta functions with: 
                l(1) =   0
     Q(r) pseudized with  8 coefficients,  rinner =    0.800

     PseudoPot. # 2 for O  read from file:
     ./O.pbe-van_ak.UPF
     MD5 check sum: 78c19812648e8988a0fe644b0f25305e
     Pseudo is Ultrasoft, Zval =  6.0
     Generated by new atomic code, or converted to UPF format
     Using radial grid of  737 points,  4 beta functions with: 
                l(1) =   0
                l(2) =   0
                l(3) =   1
                l(4) =   1
     Q(r) pseudized with  8 coefficients,  rinner =    0.800   0.800   0.800


     atomic species   valence    mass     pseudopotential
     H                 1.00     1.00800     H ( 1.00)
     O                 6.00    16.00000     O ( 1.00)

      4 Sym. Ops., with inversion, found



   Cartesian axes

     site n.     atom                  positions (alat units)
         1        O      tau(   1) = (   0.0000000   0.2500000   0.8766577  )
         2        O      tau(   2) = (   0.0000000   0.7500000   0.5655395  )
         3        O      tau(   3) = (   0.5000000   0.7500000   0.1555590  )
         4        O      tau(   4) = (   0.5000000   0.2500000   1.2866381  )
         5        O      tau(   5) = (   0.0000000   0.7500000   1.2372108  )
         6        O      tau(   6) = (   0.0000000   0.2500000   0.2049863  )
         7        O      tau(   7) = (   0.5000000   0.2500000   0.5161123  )
         8        O      tau(   8) = (   0.5000000   0.7500000   0.9260848  )
         9        H      tau(   9) = (   0.0000000   0.4186701   1.0041518  )
        10        H      tau(  10) = (   0.0000000   0.5813299   0.4380453  )
        11        H      tau(  11) = (   0.5000000   0.5813299   0.2830532  )
        12        H      tau(  12) = (   0.5000000   0.4186701   1.1591439  )
        13        H      tau(  13) = (   0.8313288   0.7500000   1.3647034  )
        14        H      tau(  14) = (   0.1686712   0.2500000   0.0774938  )
        15        H      tau(  15) = (   0.6686712   0.2500000   0.6436049  )
        16        H      tau(  16) = (   0.3313288   0.7500000   0.7985923  )
        17        H      tau(  17) = (   0.6686712   0.7500000   0.7985923  )
        18        H      tau(  18) = (   0.3313288   0.2500000   0.6436049  )
        19        H      tau(  19) = (   0.8313288   0.2500000   0.0774938  )
        20        H      tau(  20) = (   0.1686712   0.7500000   1.3647034  )
        21        H      tau(  21) = (   0.5000000   0.9186701   0.2830532  )
        22        H      tau(  22) = (   0.5000000   0.0813299   1.1591439  )
        23        H      tau(  23) = (   0.0000000   0.0813299   1.0041518  )
        24        H      tau(  24) = (   0.0000000   0.9186701   0.4380454  )

     number of k points=   144

     Number of k-points >= 100: set verbosity='high' to print them.

     Dense  grid:   116925 G-vectors     FFT dimensions: (  54,  54,  80)

     Estimated max dynamical RAM per process >      13.48 MB

     Estimated total dynamical RAM >       1.60 GB

     Initial potential from superposition of free atoms

     starting charge      63.9998, renormalised to      64.0000
     Starting wfcs are   48 randomized atomic wfcs

     total cpu time spent up to now is        1.5 secs

     per-process dynamical memory:    19.9 Mb

     Self-consistent Calculation

     iteration #  1     ecut=    90.00 Ry     beta= 0.70
     Davidson diagonalization with overlap
     ethr =  1.00E-02,  avg # of iterations =  2.0

     total cpu time spent up to now is        3.5 secs

     total energy              =    -274.87932980 Ry
     estimated scf accuracy    <       2.49812844 Ry

     iteration #  2     ecut=    90.00 Ry     beta= 0.70
     Davidson diagonalization with overlap
     ethr =  3.90E-03,  avg # of iterations =  3.0

     total cpu time spent up to now is        6.0 secs

     total energy              =    -275.67942993 Ry
     estimated scf accuracy    <       1.43927630 Ry

     iteration #  3     ecut=    90.00 Ry     beta= 0.70
     Davidson diagonalization with overlap
     ethr =  2.25E-03,  avg # of iterations =  2.0

     total cpu time spent up to now is        7.8 secs

     total energy              =    -275.85094259 Ry
     estimated scf accuracy    <       0.06336047 Ry

     iteration #  4     ecut=    90.00 Ry     beta= 0.70
     Davidson diagonalization with overlap
     ethr =  9.90E-05,  avg # of iterations =  4.3

     total cpu time spent up to now is       10.7 secs

     total energy              =    -275.89927239 Ry
     estimated scf accuracy    <       0.08371113 Ry

     iteration #  5     ecut=    90.00 Ry     beta= 0.70
     Davidson diagonalization with overlap
     ethr =  9.90E-05,  avg # of iterations =  2.0

     total cpu time spent up to now is       12.6 secs

     total energy              =    -275.89989382 Ry
     estimated scf accuracy    <       0.01356322 Ry

     iteration #  6     ecut=    90.00 Ry     beta= 0.70
     Davidson diagonalization with overlap
     ethr =  2.12E-05,  avg # of iterations =  2.3

     total cpu time spent up to now is       14.7 secs

     total energy              =    -275.90330993 Ry
     estimated scf accuracy    <       0.00015006 Ry

     iteration #  7     ecut=    90.00 Ry     beta= 0.70
     Davidson diagonalization with overlap
     ethr =  2.34E-07,  avg # of iterations =  4.7

     total cpu time spent up to now is       18.1 secs

     total energy              =    -275.90355759 Ry
     estimated scf accuracy    <       0.00028868 Ry

     iteration #  8     ecut=    90.00 Ry     beta= 0.70
     Davidson diagonalization with overlap
     ethr =  2.34E-07,  avg # of iterations =  1.0

     total cpu time spent up to now is       19.5 secs

     total energy              =    -275.90352368 Ry
     estimated scf accuracy    <       0.00012761 Ry

     iteration #  9     ecut=    90.00 Ry     beta= 0.70
     Davidson diagonalization with overlap
     ethr =  1.99E-07,  avg # of iterations =  2.0

     total cpu time spent up to now is       21.2 secs

     total energy              =    -275.90353275 Ry
     estimated scf accuracy    <       0.00001734 Ry

     iteration # 10     ecut=    90.00 Ry     beta= 0.70
     Davidson diagonalization with overlap
     ethr =  2.71E-08,  avg # of iterations =  1.9

     total cpu time spent up to now is       23.0 secs

     total energy              =    -275.90353139 Ry
     estimated scf accuracy    <       0.00000632 Ry

     iteration # 11     ecut=    90.00 Ry     beta= 0.70
     Davidson diagonalization with overlap
     ethr =  9.88E-09,  avg # of iterations =  2.0

     total cpu time spent up to now is       24.9 secs

     End of self-consistent calculation

     Number of k-points >= 100: set verbosity='high' to print the bands.

     highest occupied level (ev):    -0.2453

!    total energy              =    -275.90353297 Ry
     estimated scf accuracy    <       0.00000004 Ry

     The total energy is the sum of the following terms:
     one-electron contribution =    -125.01570091 Ry
     hartree contribution      =      89.67259379 Ry
     xc contribution           =     -67.74173946 Ry
     ewald contribution        =    -172.81868639 Ry

     convergence has been achieved in  11 iterations

     Forces acting on atoms (cartesian axes, Ry/au):

     atom    1 type  2   force =     0.00000000    0.00000035    0.00365271
     atom    2 type  2   force =     0.00000000   -0.00000035   -0.00365271
     atom    3 type  2   force =    -0.00000000   -0.00000006    0.00364864
     atom    4 type  2   force =    -0.00000000    0.00000006   -0.00364864
     atom    5 type  2   force =     0.00000000   -0.00000005    0.00365535
     atom    6 type  2   force =     0.00000000    0.00000005   -0.00365535
     atom    7 type  2   force =     0.00000000   -0.00000005    0.00366793
     atom    8 type  2   force =     0.00000000    0.00000005   -0.00366793
     atom    9 type  1   force =     0.00000000   -0.00261464   -0.00107350
     atom   10 type  1   force =     0.00000000    0.00261464    0.00107350
     atom   11 type  1   force =     0.00000000    0.00261729   -0.00107497
     atom   12 type  1   force =     0.00000000   -0.00261729    0.00107497
     atom   13 type  1   force =     0.00261900    0.00000000   -0.00107453
     atom   14 type  1   force =    -0.00261900   -0.00000000    0.00107453
     atom   15 type  1   force =    -0.00261432    0.00000002   -0.00107262
     atom   16 type  1   force =     0.00261432   -0.00000002    0.00107262
     atom   17 type  1   force =    -0.00261432   -0.00000002    0.00107262
     atom   18 type  1   force =     0.00261432    0.00000002   -0.00107262
     atom   19 type  1   force =     0.00261900   -0.00000000    0.00107453
     atom   20 type  1   force =    -0.00261900    0.00000000   -0.00107453
     atom   21 type  1   force =     0.00000000   -0.00261734   -0.00107503
     atom   22 type  1   force =     0.00000000    0.00261734    0.00107503
     atom   23 type  1   force =     0.00000000    0.00261457   -0.00107342
     atom   24 type  1   force =     0.00000000   -0.00261457    0.00107342

     Total force =     0.015327     Total SCF correction =     0.000187


     Computing stress (Cartesian axis) and pressure

          total   stress  (Ry/bohr**3)                   (kbar)     P=        9.02
   0.00006088   0.00000000   0.00000000            8.96        0.00        0.00
   0.00000000   0.00006118  -0.00000000            0.00        9.00       -0.00
   0.00000000  -0.00000000   0.00006198            0.00       -0.00        9.12


     Writing all to output data dir ./iceVIII/iceVIII.save/ :
     XML data file, charge density, pseudopotentials, collected wavefunctions

     init_run     :      1.21s CPU      1.26s WALL (       1 calls)
     electrons    :     22.92s CPU     23.47s WALL (       1 calls)
     forces       :      0.13s CPU      0.14s WALL (       1 calls)
     stress       :      1.65s CPU      1.66s WALL (       1 calls)

     Called by init_run:
     wfcinit      :      0.87s CPU      0.88s WALL (       1 calls)
     potinit      :      0.01s CPU      0.03s WALL (       1 calls)
     hinit0       :      0.27s CPU      0.28s WALL (       1 calls)

     Called by electrons:
     c_bands      :     20.29s CPU     20.75s WALL (      11 calls)
     sum_band     :      2.50s CPU      2.56s WALL (      11 calls)
     v_of_rho     :      0.07s CPU      0.09s WALL (      12 calls)
     newd         :      0.02s CPU      0.02s WALL (      12 calls)
     mix_rho      :      0.02s CPU      0.02s WALL (      11 calls)

     Called by c_bands:
     init_us_2    :      0.28s CPU      0.29s WALL (     900 calls)
     cegterg      :     18.53s CPU     18.80s WALL (     396 calls)

     Called by *egterg:
     cdiaghg      :      2.19s CPU      2.21s WALL (    1345 calls)
     h_psi        :     14.33s CPU     14.57s WALL (    1381 calls)
     s_psi        :      0.56s CPU      0.56s WALL (    1381 calls)
     g_psi        :      0.04s CPU      0.04s WALL (     949 calls)

     Called by h_psi:
     h_psi:calbec :      0.75s CPU      0.76s WALL (    1381 calls)
     vloc_psi     :     12.92s CPU     13.14s WALL (    1381 calls)
     add_vuspsi   :      0.59s CPU      0.60s WALL (    1381 calls)

     General routines
     calbec       :      1.11s CPU      1.12s WALL (    1957 calls)
     fft          :      0.31s CPU      0.31s WALL (     140 calls)
     ffts         :      0.00s CPU      0.00s WALL (      11 calls)
     fftw         :     13.89s CPU     14.13s WALL (   88512 calls)

     Parallel routines

     PWSCF        :     26.71s CPU     27.97s WALL


   This run was terminated on:  18: 9:12  23Mar2026            

=------------------------------------------------------------------------------=
   JOB DONE.
=------------------------------------------------------------------------------=
