
     Program PWSCF v.7.3.1 starts on 23Mar2026 at 18: 9:47 

     This program is part of the open-source Quantum ESPRESSO suite
     for quantum simulation of materials; please cite
         "P. Giannozzi et al., J. Phys.:Condens. Matter 21 395502 (2009);
         "P. Giannozzi et al., J. Phys.:Condens. Matter 29 465901 (2017);
         "P. Giannozzi et al., J. Chem. Phys. 152 154105 (2020);
          URL http://www.quantum-espresso.org", 
     in publications or presentations arising from this work. More details at
     http://www.quantum-espresso.org/quote

     Parallel version (MPI), running on   128 processors

     MPI processes distributed on     1 nodes
     242381 MiB available memory on the printing compute node when the environment starts

     Waiting for input...
     Reading input from standard input

     Current dimensions of program PWSCF are:
     Max number of different atomic species (ntypx) = 10
     Max number of k-points (npk) =  40000
     Max angular momentum in pseudopotentials (lmaxx) =  4
     Found identity + ( -0.5000 -0.5000  0.5000) symmetry
     This is a supercell, fractional translations are disabled

     K-points division:     npool     =       4
     R & G space division:  proc/nbgrp/npool/nimage =      32
     Subspace diagonalization in iterative solution of the eigenvalue problem:
     a serial algorithm will be used


     Parallelization info
     --------------------
     sticks:   dense  smooth     PW     G-vecs:    dense   smooth      PW
     Min          71      71     19                 3701     3701     535
     Max          72      72     20                 3706     3706     540
     Sum        2285    2285    633               118529   118529   17217

     Using Slab Decomposition



     bravais-lattice index     =            6
     lattice parameter (alat)  =       8.9293  a.u.
     unit-cell volume          =    1026.7785 (a.u.)^3
     number of atoms/cell      =           24
     number of atomic types    =            2
     number of electrons       =        64.00
     number of Kohn-Sham states=           32
     kinetic-energy cutoff     =      90.0000  Ry
     charge density cutoff     =     360.0000  Ry
     scf convergence threshold =      1.0E-07
     mixing beta               =       0.7000
     number of iterations used =            8  plain     mixing
     Exchange-correlation=  SLA  PW   PBE  PBE
                           (   1   4   3   4   0   0   0)

     celldm(1)=   8.929299  celldm(2)=   0.000000  celldm(3)=   1.442197
     celldm(4)=   0.000000  celldm(5)=   0.000000  celldm(6)=   0.000000

     crystal axes: (cart. coord. in units of alat)
               a(1) = (   1.000000   0.000000   0.000000 )  
               a(2) = (   0.000000   1.000000   0.000000 )  
               a(3) = (   0.000000   0.000000   1.442197 )  

     reciprocal axes: (cart. coord. in units 2 pi/alat)
               b(1) = (  1.000000  0.000000  0.000000 )  
               b(2) = (  0.000000  1.000000  0.000000 )  
               b(3) = (  0.000000  0.000000  0.693386 )  


     PseudoPot. # 1 for H  read from file:
     ./H.pbe-van_ak.UPF
     MD5 check sum: 077eb6d537518a38cb46c6de387227b7
     Pseudo is Ultrasoft, Zval =  1.0
     Generated by new atomic code, or converted to UPF format
     Using radial grid of  615 points,  1 beta functions with: 
                l(1) =   0
     Q(r) pseudized with  8 coefficients,  rinner =    0.800

     PseudoPot. # 2 for O  read from file:
     ./O.pbe-van_ak.UPF
     MD5 check sum: 78c19812648e8988a0fe644b0f25305e
     Pseudo is Ultrasoft, Zval =  6.0
     Generated by new atomic code, or converted to UPF format
     Using radial grid of  737 points,  4 beta functions with: 
                l(1) =   0
                l(2) =   0
                l(3) =   1
                l(4) =   1
     Q(r) pseudized with  8 coefficients,  rinner =    0.800   0.800   0.800


     atomic species   valence    mass     pseudopotential
     H                 1.00     1.00800     H ( 1.00)
     O                 6.00    16.00000     O ( 1.00)

      4 Sym. Ops., with inversion, found



   Cartesian axes

     site n.     atom                  positions (alat units)
         1        O      tau(   1) = (   0.0000000   0.2500000   0.8766577  )
         2        O      tau(   2) = (   0.0000000   0.7500000   0.5655395  )
         3        O      tau(   3) = (   0.5000000   0.7500000   0.1555590  )
         4        O      tau(   4) = (   0.5000000   0.2500000   1.2866381  )
         5        O      tau(   5) = (   0.0000000   0.7500000   1.2372108  )
         6        O      tau(   6) = (   0.0000000   0.2500000   0.2049863  )
         7        O      tau(   7) = (   0.5000000   0.2500000   0.5161123  )
         8        O      tau(   8) = (   0.5000000   0.7500000   0.9260848  )
         9        H      tau(   9) = (   0.0000000   0.4186701   1.0041518  )
        10        H      tau(  10) = (   0.0000000   0.5813299   0.4380453  )
        11        H      tau(  11) = (   0.5000000   0.5813299   0.2830532  )
        12        H      tau(  12) = (   0.5000000   0.4186701   1.1591439  )
        13        H      tau(  13) = (   0.8313288   0.7500000   1.3647034  )
        14        H      tau(  14) = (   0.1686712   0.2500000   0.0774938  )
        15        H      tau(  15) = (   0.6686712   0.2500000   0.6436049  )
        16        H      tau(  16) = (   0.3313288   0.7500000   0.7985923  )
        17        H      tau(  17) = (   0.6686712   0.7500000   0.7985923  )
        18        H      tau(  18) = (   0.3313288   0.2500000   0.6436049  )
        19        H      tau(  19) = (   0.8313288   0.2500000   0.0774938  )
        20        H      tau(  20) = (   0.1686712   0.7500000   1.3647034  )
        21        H      tau(  21) = (   0.5000000   0.9186701   0.2830532  )
        22        H      tau(  22) = (   0.5000000   0.0813299   1.1591439  )
        23        H      tau(  23) = (   0.0000000   0.0813299   1.0041518  )
        24        H      tau(  24) = (   0.0000000   0.9186701   0.4380454  )

     number of k points=   144

     Number of k-points >= 100: set verbosity='high' to print them.

     Dense  grid:   118529 G-vectors     FFT dimensions: (  54,  54,  80)

     Estimated max dynamical RAM per process >      13.61 MB

     Estimated total dynamical RAM >       1.62 GB

     Initial potential from superposition of free atoms

     starting charge      63.9998, renormalised to      64.0000
     Starting wfcs are   48 randomized atomic wfcs

     total cpu time spent up to now is        1.5 secs

     per-process dynamical memory:    20.0 Mb

     Self-consistent Calculation

     iteration #  1     ecut=    90.00 Ry     beta= 0.70
     Davidson diagonalization with overlap
     ethr =  1.00E-02,  avg # of iterations =  2.0

     total cpu time spent up to now is        3.5 secs

     total energy              =    -274.87870025 Ry
     estimated scf accuracy    <       2.49069326 Ry

     iteration #  2     ecut=    90.00 Ry     beta= 0.70
     Davidson diagonalization with overlap
     ethr =  3.89E-03,  avg # of iterations =  3.0

     total cpu time spent up to now is        6.1 secs

     total energy              =    -275.67468737 Ry
     estimated scf accuracy    <       1.46765047 Ry

     iteration #  3     ecut=    90.00 Ry     beta= 0.70
     Davidson diagonalization with overlap
     ethr =  2.29E-03,  avg # of iterations =  2.0

     total cpu time spent up to now is        7.9 secs

     total energy              =    -275.85026893 Ry
     estimated scf accuracy    <       0.06474356 Ry

     iteration #  4     ecut=    90.00 Ry     beta= 0.70
     Davidson diagonalization with overlap
     ethr =  1.01E-04,  avg # of iterations =  4.2

     total cpu time spent up to now is       10.8 secs

     total energy              =    -275.90025417 Ry
     estimated scf accuracy    <       0.08419665 Ry

     iteration #  5     ecut=    90.00 Ry     beta= 0.70
     Davidson diagonalization with overlap
     ethr =  1.01E-04,  avg # of iterations =  2.0

     total cpu time spent up to now is       12.6 secs

     total energy              =    -275.90060938 Ry
     estimated scf accuracy    <       0.01389055 Ry

     iteration #  6     ecut=    90.00 Ry     beta= 0.70
     Davidson diagonalization with overlap
     ethr =  2.17E-05,  avg # of iterations =  2.2

     total cpu time spent up to now is       14.7 secs

     total energy              =    -275.90398040 Ry
     estimated scf accuracy    <       0.00020204 Ry

     iteration #  7     ecut=    90.00 Ry     beta= 0.70
     Davidson diagonalization with overlap
     ethr =  3.16E-07,  avg # of iterations =  4.4

     total cpu time spent up to now is       17.7 secs

     total energy              =    -275.90424478 Ry
     estimated scf accuracy    <       0.00023271 Ry

     iteration #  8     ecut=    90.00 Ry     beta= 0.70
     Davidson diagonalization with overlap
     ethr =  3.16E-07,  avg # of iterations =  1.0

     total cpu time spent up to now is       19.1 secs

     total energy              =    -275.90419728 Ry
     estimated scf accuracy    <       0.00014324 Ry

     iteration #  9     ecut=    90.00 Ry     beta= 0.70
     Davidson diagonalization with overlap
     ethr =  2.24E-07,  avg # of iterations =  2.0

     total cpu time spent up to now is       20.9 secs

     total energy              =    -275.90420262 Ry
     estimated scf accuracy    <       0.00002250 Ry

     iteration # 10     ecut=    90.00 Ry     beta= 0.70
     Davidson diagonalization with overlap
     ethr =  3.52E-08,  avg # of iterations =  2.2

     total cpu time spent up to now is       22.9 secs

     total energy              =    -275.90420604 Ry
     estimated scf accuracy    <       0.00000274 Ry

     iteration # 11     ecut=    90.00 Ry     beta= 0.70
     Davidson diagonalization with overlap
     ethr =  4.27E-09,  avg # of iterations =  3.0

     total cpu time spent up to now is       25.2 secs

     total energy              =    -275.90420735 Ry
     estimated scf accuracy    <       0.00000013 Ry

     iteration # 12     ecut=    90.00 Ry     beta= 0.70
     Davidson diagonalization with overlap
     ethr =  2.10E-10,  avg # of iterations =  2.9

     total cpu time spent up to now is       27.3 secs

     total energy              =    -275.90420734 Ry
     estimated scf accuracy    <       0.00000012 Ry

     iteration # 13     ecut=    90.00 Ry     beta= 0.70
     Davidson diagonalization with overlap
     ethr =  1.80E-10,  avg # of iterations =  1.2

     total cpu time spent up to now is       28.8 secs

     End of self-consistent calculation

     Number of k-points >= 100: set verbosity='high' to print the bands.

     highest occupied level (ev):    -0.3261

!    total energy              =    -275.90420733 Ry
     estimated scf accuracy    <       0.00000003 Ry

     The total energy is the sum of the following terms:
     one-electron contribution =    -126.19693633 Ry
     hartree contribution      =      90.09350918 Ry
     xc contribution           =     -67.66924561 Ry
     ewald contribution        =    -172.13153456 Ry

     convergence has been achieved in  13 iterations

     Forces acting on atoms (cartesian axes, Ry/au):

     atom    1 type  2   force =     0.00000000    0.00000015    0.01033552
     atom    2 type  2   force =     0.00000000   -0.00000015   -0.01033552
     atom    3 type  2   force =     0.00000000    0.00000001    0.01033480
     atom    4 type  2   force =     0.00000000   -0.00000001   -0.01033480
     atom    5 type  2   force =    -0.00000000   -0.00000002    0.01034560
     atom    6 type  2   force =    -0.00000000    0.00000002   -0.01034560
     atom    7 type  2   force =     0.00000000    0.00000001    0.01034519
     atom    8 type  2   force =     0.00000000   -0.00000001   -0.01034519
     atom    9 type  1   force =     0.00000000   -0.00795424   -0.00461547
     atom   10 type  1   force =     0.00000000    0.00795424    0.00461547
     atom   11 type  1   force =     0.00000000    0.00795411   -0.00461546
     atom   12 type  1   force =     0.00000000   -0.00795411    0.00461546
     atom   13 type  1   force =     0.00795622   -0.00000001   -0.00461233
     atom   14 type  1   force =    -0.00795622    0.00000001    0.00461233
     atom   15 type  1   force =    -0.00795613   -0.00000001   -0.00461225
     atom   16 type  1   force =     0.00795613    0.00000001    0.00461225
     atom   17 type  1   force =    -0.00795613    0.00000001    0.00461225
     atom   18 type  1   force =     0.00795613   -0.00000001   -0.00461225
     atom   19 type  1   force =     0.00795622    0.00000001    0.00461233
     atom   20 type  1   force =    -0.00795622   -0.00000001   -0.00461233
     atom   21 type  1   force =     0.00000000   -0.00795417   -0.00461550
     atom   22 type  1   force =     0.00000000    0.00795417    0.00461550
     atom   23 type  1   force =     0.00000000    0.00795408   -0.00461536
     atom   24 type  1   force =     0.00000000   -0.00795408    0.00461536

     Total force =     0.046995     Total SCF correction =     0.000200


     Computing stress (Cartesian axis) and pressure

          total   stress  (Ry/bohr**3)                   (kbar)     P=       -3.40
  -0.00002292   0.00000000   0.00000000           -3.37        0.00        0.00
   0.00000000  -0.00002285  -0.00000000            0.00       -3.36       -0.00
   0.00000000  -0.00000000  -0.00002364            0.00       -0.00       -3.48


     Writing all to output data dir ./iceVIII/iceVIII.save/ :
     XML data file, charge density, pseudopotentials, collected wavefunctions

     init_run     :      1.20s CPU      1.27s WALL (       1 calls)
     electrons    :     26.62s CPU     27.29s WALL (       1 calls)
     forces       :      0.17s CPU      0.19s WALL (       1 calls)
     stress       :      1.65s CPU      1.66s WALL (       1 calls)

     Called by init_run:
     wfcinit      :      0.86s CPU      0.88s WALL (       1 calls)
     potinit      :      0.02s CPU      0.03s WALL (       1 calls)
     hinit0       :      0.27s CPU      0.28s WALL (       1 calls)

     Called by electrons:
     c_bands      :     23.49s CPU     24.07s WALL (      13 calls)
     sum_band     :      2.98s CPU      3.03s WALL (      13 calls)
     v_of_rho     :      0.09s CPU      0.10s WALL (      14 calls)
     newd         :      0.02s CPU      0.03s WALL (      14 calls)
     mix_rho      :      0.02s CPU      0.03s WALL (      13 calls)

     Called by c_bands:
     init_us_2    :      0.33s CPU      0.35s WALL (    1044 calls)
     cegterg      :     21.85s CPU     22.18s WALL (     468 calls)

     Called by *egterg:
     cdiaghg      :      2.60s CPU      2.63s WALL (    1599 calls)
     h_psi        :     16.77s CPU     17.04s WALL (    1635 calls)
     s_psi        :      0.66s CPU      0.68s WALL (    1635 calls)
     g_psi        :      0.05s CPU      0.05s WALL (    1131 calls)

     Called by h_psi:
     h_psi:calbec :      0.90s CPU      0.91s WALL (    1635 calls)
     vloc_psi     :     15.08s CPU     15.33s WALL (    1635 calls)
     add_vuspsi   :      0.70s CPU      0.71s WALL (    1635 calls)

     General routines
     calbec       :      1.32s CPU      1.34s WALL (    2283 calls)
     fft          :      0.31s CPU      0.31s WALL (     162 calls)
     ffts         :      0.00s CPU      0.01s WALL (      13 calls)
     fftw         :     16.22s CPU     16.49s WALL (  103342 calls)

     Parallel routines

     PWSCF        :     30.43s CPU     31.77s WALL


   This run was terminated on:  18:10:19  23Mar2026            

=------------------------------------------------------------------------------=
   JOB DONE.
=------------------------------------------------------------------------------=
