
     Program PWSCF v.7.3.1 starts on 21Mar2026 at 20:29: 9 

     This program is part of the open-source Quantum ESPRESSO suite
     for quantum simulation of materials; please cite
         "P. Giannozzi et al., J. Phys.:Condens. Matter 21 395502 (2009);
         "P. Giannozzi et al., J. Phys.:Condens. Matter 29 465901 (2017);
         "P. Giannozzi et al., J. Chem. Phys. 152 154105 (2020);
          URL http://www.quantum-espresso.org", 
     in publications or presentations arising from this work. More details at
     http://www.quantum-espresso.org/quote

     Parallel version (MPI), running on   128 processors

     MPI processes distributed on     1 nodes
     242229 MiB available memory on the printing compute node when the environment starts

     Waiting for input...
     Reading input from standard input

     Current dimensions of program PWSCF are:
     Max number of different atomic species (ntypx) = 10
     Max number of k-points (npk) =  40000
     Max angular momentum in pseudopotentials (lmaxx) =  4
     Found identity + ( -0.5000 -0.5000  0.5000) symmetry
     This is a supercell, fractional translations are disabled

     K-points division:     npool     =       4
     R & G space division:  proc/nbgrp/npool/nimage =      32
     Subspace diagonalization in iterative solution of the eigenvalue problem:
     a serial algorithm will be used


     Parallelization info
     --------------------
     sticks:   dense  smooth     PW     G-vecs:    dense   smooth      PW
     Min          72      72     20                 3764     3764     546
     Max          73      73     21                 3771     3771     549
     Sum        2313    2313    641               120511   120511   17505

     Using Slab Decomposition



     bravais-lattice index     =            6
     lattice parameter (alat)  =       8.9826  a.u.
     unit-cell volume          =    1045.2601 (a.u.)^3
     number of atoms/cell      =           24
     number of atomic types    =            2
     number of electrons       =        64.00
     number of Kohn-Sham states=           32
     kinetic-energy cutoff     =      90.0000  Ry
     charge density cutoff     =     360.0000  Ry
     scf convergence threshold =      1.0E-07
     mixing beta               =       0.7000
     number of iterations used =            8  plain     mixing
     Exchange-correlation=  SLA  PW   PBE  PBE
                           (   1   4   3   4   0   0   0)

     celldm(1)=   8.982555  celldm(2)=   0.000000  celldm(3)=   1.442197
     celldm(4)=   0.000000  celldm(5)=   0.000000  celldm(6)=   0.000000

     crystal axes: (cart. coord. in units of alat)
               a(1) = (   1.000000   0.000000   0.000000 )  
               a(2) = (   0.000000   1.000000   0.000000 )  
               a(3) = (   0.000000   0.000000   1.442197 )  

     reciprocal axes: (cart. coord. in units 2 pi/alat)
               b(1) = (  1.000000  0.000000  0.000000 )  
               b(2) = (  0.000000  1.000000  0.000000 )  
               b(3) = (  0.000000  0.000000  0.693386 )  


     PseudoPot. # 1 for H  read from file:
     ./H.pbe-van_ak.UPF
     MD5 check sum: 077eb6d537518a38cb46c6de387227b7
     Pseudo is Ultrasoft, Zval =  1.0
     Generated by new atomic code, or converted to UPF format
     Using radial grid of  615 points,  1 beta functions with: 
                l(1) =   0
     Q(r) pseudized with  8 coefficients,  rinner =    0.800

     PseudoPot. # 2 for O  read from file:
     ./O.pbe-van_ak.UPF
     MD5 check sum: 78c19812648e8988a0fe644b0f25305e
     Pseudo is Ultrasoft, Zval =  6.0
     Generated by new atomic code, or converted to UPF format
     Using radial grid of  737 points,  4 beta functions with: 
                l(1) =   0
                l(2) =   0
                l(3) =   1
                l(4) =   1
     Q(r) pseudized with  8 coefficients,  rinner =    0.800   0.800   0.800


     atomic species   valence    mass     pseudopotential
     H                 1.00     1.00800     H ( 1.00)
     O                 6.00    16.00000     O ( 1.00)

      4 Sym. Ops., with inversion, found



   Cartesian axes

     site n.     atom                  positions (alat units)
         1        O      tau(   1) = (   0.0000000   0.2500000   0.8781106  )
         2        O      tau(   2) = (   0.0000000   0.7500000   0.5640866  )
         3        O      tau(   3) = (   0.5000000   0.7500000   0.1570120  )
         4        O      tau(   4) = (   0.5000000   0.2500000   1.2851851  )
         5        O      tau(   5) = (   0.0000000   0.7500000   1.2386599  )
         6        O      tau(   6) = (   0.0000000   0.2500000   0.2035373  )
         7        O      tau(   7) = (   0.5000000   0.2500000   0.5175613  )
         8        O      tau(   8) = (   0.5000000   0.7500000   0.9246358  )
         9        H      tau(   9) = (   0.0000000   0.4142500   1.0027885  )
        10        H      tau(  10) = (   0.0000000   0.5857500   0.4394086  )
        11        H      tau(  11) = (   0.5000000   0.5857500   0.2816900  )
        12        H      tau(  12) = (   0.5000000   0.4142500   1.1605072  )
        13        H      tau(  13) = (   0.8357500   0.7500000   1.3633378  )
        14        H      tau(  14) = (   0.1642500   0.2500000   0.0788593  )
        15        H      tau(  15) = (   0.6642500   0.2500000   0.6422392  )
        16        H      tau(  16) = (   0.3357500   0.7500000   0.7999579  )
        17        H      tau(  17) = (   0.6642500   0.7500000   0.7999579  )
        18        H      tau(  18) = (   0.3357500   0.2500000   0.6422392  )
        19        H      tau(  19) = (   0.8357500   0.2500000   0.0788593  )
        20        H      tau(  20) = (   0.1642500   0.7500000   1.3633378  )
        21        H      tau(  21) = (   0.5000000   0.9142500   0.2816900  )
        22        H      tau(  22) = (   0.5000000   0.0857500   1.1605072  )
        23        H      tau(  23) = (   0.0000000   0.0857500   1.0027885  )
        24        H      tau(  24) = (   0.0000000   0.9142500   0.4394086  )

     number of k points=   144

     Number of k-points >= 100: set verbosity='high' to print them.

     Dense  grid:   120511 G-vectors     FFT dimensions: (  60,  60,  80)

     Estimated max dynamical RAM per process >      13.96 MB

     Estimated total dynamical RAM >       1.66 GB

     Initial potential from superposition of free atoms

     starting charge      63.9998, renormalised to      64.0000
     Starting wfcs are   48 randomized atomic wfcs

     total cpu time spent up to now is        1.7 secs

     per-process dynamical memory:    20.5 Mb

     Self-consistent Calculation

     iteration #  1     ecut=    90.00 Ry     beta= 0.70
     Davidson diagonalization with overlap
     ethr =  1.00E-02,  avg # of iterations =  2.0

     total cpu time spent up to now is        3.8 secs

     total energy              =    -274.82844626 Ry
     estimated scf accuracy    <       2.62603830 Ry

     iteration #  2     ecut=    90.00 Ry     beta= 0.70
     Davidson diagonalization with overlap
     ethr =  4.10E-03,  avg # of iterations =  3.0

     total cpu time spent up to now is        6.3 secs

     total energy              =    -275.66552444 Ry
     estimated scf accuracy    <       1.51481305 Ry

     iteration #  3     ecut=    90.00 Ry     beta= 0.70
     Davidson diagonalization with overlap
     ethr =  2.37E-03,  avg # of iterations =  2.0

     total cpu time spent up to now is        8.3 secs

     total energy              =    -275.84893914 Ry
     estimated scf accuracy    <       0.06503683 Ry

     iteration #  4     ecut=    90.00 Ry     beta= 0.70
     Davidson diagonalization with overlap
     ethr =  1.02E-04,  avg # of iterations =  4.2

     total cpu time spent up to now is       11.3 secs

     total energy              =    -275.89979783 Ry
     estimated scf accuracy    <       0.08647076 Ry

     iteration #  5     ecut=    90.00 Ry     beta= 0.70
     Davidson diagonalization with overlap
     ethr =  1.02E-04,  avg # of iterations =  2.0

     total cpu time spent up to now is       13.1 secs

     total energy              =    -275.89986308 Ry
     estimated scf accuracy    <       0.01451378 Ry

     iteration #  6     ecut=    90.00 Ry     beta= 0.70
     Davidson diagonalization with overlap
     ethr =  2.27E-05,  avg # of iterations =  2.2

     total cpu time spent up to now is       15.2 secs

     total energy              =    -275.90328937 Ry
     estimated scf accuracy    <       0.00023260 Ry

     iteration #  7     ecut=    90.00 Ry     beta= 0.70
     Davidson diagonalization with overlap
     ethr =  3.63E-07,  avg # of iterations =  4.1

     total cpu time spent up to now is       18.2 secs

     total energy              =    -275.90358069 Ry
     estimated scf accuracy    <       0.00019021 Ry

     iteration #  8     ecut=    90.00 Ry     beta= 0.70
     Davidson diagonalization with overlap
     ethr =  2.97E-07,  avg # of iterations =  1.0

     total cpu time spent up to now is       19.6 secs

     total energy              =    -275.90352528 Ry
     estimated scf accuracy    <       0.00016724 Ry

     iteration #  9     ecut=    90.00 Ry     beta= 0.70
     Davidson diagonalization with overlap
     ethr =  2.61E-07,  avg # of iterations =  1.0

     total cpu time spent up to now is       21.1 secs

     total energy              =    -275.90352296 Ry
     estimated scf accuracy    <       0.00003753 Ry

     iteration # 10     ecut=    90.00 Ry     beta= 0.70
     Davidson diagonalization with overlap
     ethr =  5.86E-08,  avg # of iterations =  2.0

     total cpu time spent up to now is       23.1 secs

     total energy              =    -275.90353031 Ry
     estimated scf accuracy    <       0.00000262 Ry

     iteration # 11     ecut=    90.00 Ry     beta= 0.70
     Davidson diagonalization with overlap
     ethr =  4.10E-09,  avg # of iterations =  2.0

     total cpu time spent up to now is       25.2 secs

     End of self-consistent calculation

     Number of k-points >= 100: set verbosity='high' to print the bands.

     highest occupied level (ev):    -0.4968

!    total energy              =    -275.90353128 Ry
     estimated scf accuracy    <          7.5E-09 Ry

     The total energy is the sum of the following terms:
     one-electron contribution =    -130.86632546 Ry
     hartree contribution      =      92.00211812 Ry
     xc contribution           =     -67.87065891 Ry
     ewald contribution        =    -169.16866503 Ry

     convergence has been achieved in  11 iterations

     Forces acting on atoms (cartesian axes, Ry/au):

     atom    1 type  2   force =     0.00000000   -0.00000008   -0.02091328
     atom    2 type  2   force =     0.00000000    0.00000008    0.02091328
     atom    3 type  2   force =     0.00000000    0.00000001   -0.02091340
     atom    4 type  2   force =     0.00000000   -0.00000001    0.02091340
     atom    5 type  2   force =     0.00000000   -0.00000009   -0.02093604
     atom    6 type  2   force =     0.00000000    0.00000009    0.02093604
     atom    7 type  2   force =     0.00000000    0.00000007   -0.02093578
     atom    8 type  2   force =     0.00000000   -0.00000007    0.02093578
     atom    9 type  1   force =     0.00000000    0.01598006    0.01062083
     atom   10 type  1   force =     0.00000000   -0.01598006   -0.01062083
     atom   11 type  1   force =     0.00000000   -0.01598016    0.01062082
     atom   12 type  1   force =     0.00000000    0.01598016   -0.01062082
     atom   13 type  1   force =    -0.01598251   -0.00000000    0.01062235
     atom   14 type  1   force =     0.01598251    0.00000000   -0.01062235
     atom   15 type  1   force =     0.01598243    0.00000001    0.01062229
     atom   16 type  1   force =    -0.01598243   -0.00000001   -0.01062229
     atom   17 type  1   force =     0.01598243   -0.00000001   -0.01062229
     atom   18 type  1   force =    -0.01598243    0.00000001    0.01062229
     atom   19 type  1   force =    -0.01598251    0.00000000   -0.01062235
     atom   20 type  1   force =     0.01598251   -0.00000000    0.01062235
     atom   21 type  1   force =     0.00000000    0.01598017    0.01062087
     atom   22 type  1   force =     0.00000000   -0.01598017   -0.01062087
     atom   23 type  1   force =     0.00000000   -0.01598007    0.01062081
     atom   24 type  1   force =     0.00000000    0.01598007   -0.01062081

     Total force =     0.096924     Total SCF correction =     0.000219


     Computing stress (Cartesian axis) and pressure

          total   stress  (Ry/bohr**3)                   (kbar)     P=       35.87
   0.00024096   0.00000000   0.00000000           35.45        0.00        0.00
   0.00000000   0.00024090  -0.00000000            0.00       35.44       -0.00
   0.00000000  -0.00000000   0.00024961            0.00       -0.00       36.72


     Writing all to output data dir ./iceVIII/iceVIII.save/ :
     XML data file, charge density, pseudopotentials, collected wavefunctions

     init_run     :      1.39s CPU      1.45s WALL (       1 calls)
     electrons    :     23.05s CPU     23.54s WALL (       1 calls)
     forces       :      0.14s CPU      0.15s WALL (       1 calls)
     stress       :      1.66s CPU      1.69s WALL (       1 calls)

     Called by init_run:
     wfcinit      :      0.88s CPU      0.90s WALL (       1 calls)
     potinit      :      0.02s CPU      0.04s WALL (       1 calls)
     hinit0       :      0.43s CPU      0.43s WALL (       1 calls)

     Called by electrons:
     c_bands      :     20.29s CPU     20.68s WALL (      11 calls)
     sum_band     :      2.62s CPU      2.66s WALL (      11 calls)
     v_of_rho     :      0.09s CPU      0.10s WALL (      12 calls)
     newd         :      0.02s CPU      0.02s WALL (      12 calls)
     mix_rho      :      0.02s CPU      0.02s WALL (      11 calls)

     Called by c_bands:
     init_us_2    :      0.30s CPU      0.31s WALL (     900 calls)
     cegterg      :     19.00s CPU     19.22s WALL (     396 calls)

     Called by *egterg:
     cdiaghg      :      2.12s CPU      2.13s WALL (    1298 calls)
     h_psi        :     14.90s CPU     15.08s WALL (    1334 calls)
     s_psi        :      0.56s CPU      0.56s WALL (    1334 calls)
     g_psi        :      0.05s CPU      0.05s WALL (     902 calls)

     Called by h_psi:
     h_psi:calbec :      0.78s CPU      0.79s WALL (    1334 calls)
     vloc_psi     :     13.45s CPU     13.62s WALL (    1334 calls)
     add_vuspsi   :      0.59s CPU      0.59s WALL (    1334 calls)

     General routines
     calbec       :      1.12s CPU      1.13s WALL (    1910 calls)
     fft          :      0.46s CPU      0.47s WALL (     140 calls)
     ffts         :      0.00s CPU      0.00s WALL (      11 calls)
     fftw         :     14.29s CPU     14.47s WALL (   87980 calls)

     Parallel routines

     PWSCF        :     27.06s CPU     28.31s WALL


   This run was terminated on:  20:29:38  21Mar2026            

=------------------------------------------------------------------------------=
   JOB DONE.
=------------------------------------------------------------------------------=
