
     Program PWSCF v.7.3.1 starts on 21Mar2026 at 20:35:49 

     This program is part of the open-source Quantum ESPRESSO suite
     for quantum simulation of materials; please cite
         "P. Giannozzi et al., J. Phys.:Condens. Matter 21 395502 (2009);
         "P. Giannozzi et al., J. Phys.:Condens. Matter 29 465901 (2017);
         "P. Giannozzi et al., J. Chem. Phys. 152 154105 (2020);
          URL http://www.quantum-espresso.org", 
     in publications or presentations arising from this work. More details at
     http://www.quantum-espresso.org/quote

     Parallel version (MPI), running on   128 processors

     MPI processes distributed on     1 nodes
     242243 MiB available memory on the printing compute node when the environment starts

     Waiting for input...
     Reading input from standard input

     Current dimensions of program PWSCF are:
     Max number of different atomic species (ntypx) = 10
     Max number of k-points (npk) =  40000
     Max angular momentum in pseudopotentials (lmaxx) =  4
     Found identity + ( -0.5000 -0.5000  0.5000) symmetry
     This is a supercell, fractional translations are disabled

     K-points division:     npool     =       4
     R & G space division:  proc/nbgrp/npool/nimage =      32
     Subspace diagonalization in iterative solution of the eigenvalue problem:
     a serial algorithm will be used


     Parallelization info
     --------------------
     sticks:   dense  smooth     PW     G-vecs:    dense   smooth      PW
     Min          73      73     20                 3835     3835     556
     Max          74      74     21                 3840     3840     559
     Sum        2337    2337    657               122727   122727   17833

     Using Slab Decomposition



     bravais-lattice index     =            6
     lattice parameter (alat)  =       9.0358  a.u.
     unit-cell volume          =    1063.9621 (a.u.)^3
     number of atoms/cell      =           24
     number of atomic types    =            2
     number of electrons       =        64.00
     number of Kohn-Sham states=           32
     kinetic-energy cutoff     =      90.0000  Ry
     charge density cutoff     =     360.0000  Ry
     scf convergence threshold =      1.0E-07
     mixing beta               =       0.7000
     number of iterations used =            8  plain     mixing
     Exchange-correlation=  SLA  PW   PBE  PBE
                           (   1   4   3   4   0   0   0)

     celldm(1)=   9.035812  celldm(2)=   0.000000  celldm(3)=   1.442197
     celldm(4)=   0.000000  celldm(5)=   0.000000  celldm(6)=   0.000000

     crystal axes: (cart. coord. in units of alat)
               a(1) = (   1.000000   0.000000   0.000000 )  
               a(2) = (   0.000000   1.000000   0.000000 )  
               a(3) = (   0.000000   0.000000   1.442197 )  

     reciprocal axes: (cart. coord. in units 2 pi/alat)
               b(1) = (  1.000000  0.000000  0.000000 )  
               b(2) = (  0.000000  1.000000  0.000000 )  
               b(3) = (  0.000000  0.000000  0.693386 )  


     PseudoPot. # 1 for H  read from file:
     ./H.pbe-van_ak.UPF
     MD5 check sum: 077eb6d537518a38cb46c6de387227b7
     Pseudo is Ultrasoft, Zval =  1.0
     Generated by new atomic code, or converted to UPF format
     Using radial grid of  615 points,  1 beta functions with: 
                l(1) =   0
     Q(r) pseudized with  8 coefficients,  rinner =    0.800

     PseudoPot. # 2 for O  read from file:
     ./O.pbe-van_ak.UPF
     MD5 check sum: 78c19812648e8988a0fe644b0f25305e
     Pseudo is Ultrasoft, Zval =  6.0
     Generated by new atomic code, or converted to UPF format
     Using radial grid of  737 points,  4 beta functions with: 
                l(1) =   0
                l(2) =   0
                l(3) =   1
                l(4) =   1
     Q(r) pseudized with  8 coefficients,  rinner =    0.800   0.800   0.800


     atomic species   valence    mass     pseudopotential
     H                 1.00     1.00800     H ( 1.00)
     O                 6.00    16.00000     O ( 1.00)

      4 Sym. Ops., with inversion, found



   Cartesian axes

     site n.     atom                  positions (alat units)
         1        O      tau(   1) = (   0.0000000   0.2500000   0.8781106  )
         2        O      tau(   2) = (   0.0000000   0.7500000   0.5640866  )
         3        O      tau(   3) = (   0.5000000   0.7500000   0.1570120  )
         4        O      tau(   4) = (   0.5000000   0.2500000   1.2851851  )
         5        O      tau(   5) = (   0.0000000   0.7500000   1.2386599  )
         6        O      tau(   6) = (   0.0000000   0.2500000   0.2035373  )
         7        O      tau(   7) = (   0.5000000   0.2500000   0.5175613  )
         8        O      tau(   8) = (   0.5000000   0.7500000   0.9246358  )
         9        H      tau(   9) = (   0.0000000   0.4142500   1.0027885  )
        10        H      tau(  10) = (   0.0000000   0.5857500   0.4394086  )
        11        H      tau(  11) = (   0.5000000   0.5857500   0.2816900  )
        12        H      tau(  12) = (   0.5000000   0.4142500   1.1605072  )
        13        H      tau(  13) = (   0.8357500   0.7500000   1.3633378  )
        14        H      tau(  14) = (   0.1642500   0.2500000   0.0788593  )
        15        H      tau(  15) = (   0.6642500   0.2500000   0.6422392  )
        16        H      tau(  16) = (   0.3357500   0.7500000   0.7999579  )
        17        H      tau(  17) = (   0.6642500   0.7500000   0.7999579  )
        18        H      tau(  18) = (   0.3357500   0.2500000   0.6422392  )
        19        H      tau(  19) = (   0.8357500   0.2500000   0.0788593  )
        20        H      tau(  20) = (   0.1642500   0.7500000   1.3633378  )
        21        H      tau(  21) = (   0.5000000   0.9142500   0.2816900  )
        22        H      tau(  22) = (   0.5000000   0.0857500   1.1605072  )
        23        H      tau(  23) = (   0.0000000   0.0857500   1.0027885  )
        24        H      tau(  24) = (   0.0000000   0.9142500   0.4394086  )

     number of k points=   144

     Number of k-points >= 100: set verbosity='high' to print them.

     Dense  grid:   122727 G-vectors     FFT dimensions: (  60,  60,  80)

     Estimated max dynamical RAM per process >      14.19 MB

     Estimated total dynamical RAM >       1.69 GB

     Initial potential from superposition of free atoms

     starting charge      63.9998, renormalised to      64.0000
     Starting wfcs are   48 randomized atomic wfcs

     total cpu time spent up to now is        1.7 secs

     per-process dynamical memory:    20.7 Mb

     Self-consistent Calculation

     iteration #  1     ecut=    90.00 Ry     beta= 0.70
     Davidson diagonalization with overlap
     ethr =  1.00E-02,  avg # of iterations =  2.0

     total cpu time spent up to now is        3.8 secs

     total energy              =    -274.83091039 Ry
     estimated scf accuracy    <       2.61339863 Ry

     iteration #  2     ecut=    90.00 Ry     beta= 0.70
     Davidson diagonalization with overlap
     ethr =  4.08E-03,  avg # of iterations =  3.0

     total cpu time spent up to now is        6.4 secs

     total energy              =    -275.66117529 Ry
     estimated scf accuracy    <       1.55785303 Ry

     iteration #  3     ecut=    90.00 Ry     beta= 0.70
     Davidson diagonalization with overlap
     ethr =  2.43E-03,  avg # of iterations =  2.0

     total cpu time spent up to now is        8.3 secs

     total energy              =    -275.85090683 Ry
     estimated scf accuracy    <       0.06706850 Ry

     iteration #  4     ecut=    90.00 Ry     beta= 0.70
     Davidson diagonalization with overlap
     ethr =  1.05E-04,  avg # of iterations =  4.1

     total cpu time spent up to now is       11.3 secs

     total energy              =    -275.90416598 Ry
     estimated scf accuracy    <       0.08742536 Ry

     iteration #  5     ecut=    90.00 Ry     beta= 0.70
     Davidson diagonalization with overlap
     ethr =  1.05E-04,  avg # of iterations =  2.0

     total cpu time spent up to now is       13.1 secs

     total energy              =    -275.90387064 Ry
     estimated scf accuracy    <       0.01501444 Ry

     iteration #  6     ecut=    90.00 Ry     beta= 0.70
     Davidson diagonalization with overlap
     ethr =  2.35E-05,  avg # of iterations =  2.1

     total cpu time spent up to now is       15.2 secs

     total energy              =    -275.90722719 Ry
     estimated scf accuracy    <       0.00031726 Ry

     iteration #  7     ecut=    90.00 Ry     beta= 0.70
     Davidson diagonalization with overlap
     ethr =  4.96E-07,  avg # of iterations =  3.8

     total cpu time spent up to now is       17.9 secs

     total energy              =    -275.90753264 Ry
     estimated scf accuracy    <       0.00013089 Ry

     iteration #  8     ecut=    90.00 Ry     beta= 0.70
     Davidson diagonalization with overlap
     ethr =  2.05E-07,  avg # of iterations =  1.9

     total cpu time spent up to now is       19.6 secs

     total energy              =    -275.90745230 Ry
     estimated scf accuracy    <       0.00020890 Ry

     iteration #  9     ecut=    90.00 Ry     beta= 0.70
     Davidson diagonalization with overlap
     ethr =  2.05E-07,  avg # of iterations =  2.0

     total cpu time spent up to now is       21.6 secs

     total energy              =    -275.90746512 Ry
     estimated scf accuracy    <       0.00002563 Ry

     iteration # 10     ecut=    90.00 Ry     beta= 0.70
     Davidson diagonalization with overlap
     ethr =  4.00E-08,  avg # of iterations =  2.1

     total cpu time spent up to now is       23.7 secs

     total energy              =    -275.90746881 Ry
     estimated scf accuracy    <       0.00000302 Ry

     iteration # 11     ecut=    90.00 Ry     beta= 0.70
     Davidson diagonalization with overlap
     ethr =  4.72E-09,  avg # of iterations =  3.9

     total cpu time spent up to now is       26.4 secs

     total energy              =    -275.90747070 Ry
     estimated scf accuracy    <       0.00000038 Ry

     iteration # 12     ecut=    90.00 Ry     beta= 0.70
     Davidson diagonalization with overlap
     ethr =  5.95E-10,  avg # of iterations =  3.0

     total cpu time spent up to now is       28.6 secs

     total energy              =    -275.90747067 Ry
     estimated scf accuracy    <       0.00000053 Ry

     iteration # 13     ecut=    90.00 Ry     beta= 0.70
     Davidson diagonalization with overlap
     ethr =  5.95E-10,  avg # of iterations =  1.0

     total cpu time spent up to now is       30.1 secs

     total energy              =    -275.90747051 Ry
     estimated scf accuracy    <       0.00000031 Ry

     iteration # 14     ecut=    90.00 Ry     beta= 0.70
     Davidson diagonalization with overlap
     ethr =  4.80E-10,  avg # of iterations =  2.0

     total cpu time spent up to now is       32.2 secs

     End of self-consistent calculation

     Number of k-points >= 100: set verbosity='high' to print the bands.

     highest occupied level (ev):    -0.6107

!    total energy              =    -275.90747060 Ry
     estimated scf accuracy    <          8.3E-09 Ry

     The total energy is the sum of the following terms:
     one-electron contribution =    -132.59426378 Ry
     hartree contribution      =      92.62147296 Ry
     xc contribution           =     -67.76307956 Ry
     ewald contribution        =    -168.17160021 Ry

     convergence has been achieved in  14 iterations

     Forces acting on atoms (cartesian axes, Ry/au):

     atom    1 type  2   force =     0.00000000    0.00000001   -0.00967188
     atom    2 type  2   force =     0.00000000   -0.00000001    0.00967188
     atom    3 type  2   force =     0.00000000    0.00000003   -0.00967265
     atom    4 type  2   force =     0.00000000   -0.00000003    0.00967265
     atom    5 type  2   force =     0.00000000    0.00000003   -0.00967185
     atom    6 type  2   force =     0.00000000   -0.00000003    0.00967185
     atom    7 type  2   force =     0.00000000   -0.00000000   -0.00967276
     atom    8 type  2   force =     0.00000000    0.00000000    0.00967276
     atom    9 type  1   force =     0.00000000    0.00734634    0.00488588
     atom   10 type  1   force =     0.00000000   -0.00734634   -0.00488588
     atom   11 type  1   force =     0.00000000   -0.00734618    0.00488550
     atom   12 type  1   force =     0.00000000    0.00734618   -0.00488550
     atom   13 type  1   force =    -0.00734604    0.00000000    0.00488546
     atom   14 type  1   force =     0.00734604   -0.00000000   -0.00488546
     atom   15 type  1   force =     0.00734583    0.00000000    0.00488534
     atom   16 type  1   force =    -0.00734583   -0.00000000   -0.00488534
     atom   17 type  1   force =     0.00734583   -0.00000000   -0.00488534
     atom   18 type  1   force =    -0.00734583    0.00000000    0.00488534
     atom   19 type  1   force =    -0.00734604   -0.00000000   -0.00488546
     atom   20 type  1   force =     0.00734604    0.00000000    0.00488546
     atom   21 type  1   force =     0.00000000    0.00734618    0.00488550
     atom   22 type  1   force =     0.00000000   -0.00734618   -0.00488550
     atom   23 type  1   force =     0.00000000   -0.00734634    0.00488588
     atom   24 type  1   force =     0.00000000    0.00734634   -0.00488588

     Total force =     0.044652     Total SCF correction =     0.000130


     Computing stress (Cartesian axis) and pressure

          total   stress  (Ry/bohr**3)                   (kbar)     P=       16.18
   0.00010841   0.00000000   0.00000000           15.95        0.00        0.00
   0.00000000   0.00010840  -0.00000000            0.00       15.95       -0.00
   0.00000000  -0.00000000   0.00011308            0.00       -0.00       16.63


     Writing all to output data dir ./iceVIII/iceVIII.save/ :
     XML data file, charge density, pseudopotentials, collected wavefunctions

     init_run     :      1.38s CPU      1.46s WALL (       1 calls)
     electrons    :     29.83s CPU     30.51s WALL (       1 calls)
     forces       :      0.14s CPU      0.15s WALL (       1 calls)
     stress       :      1.69s CPU      1.72s WALL (       1 calls)

     Called by init_run:
     wfcinit      :      0.88s CPU      0.91s WALL (       1 calls)
     potinit      :      0.02s CPU      0.04s WALL (       1 calls)
     hinit0       :      0.42s CPU      0.43s WALL (       1 calls)

     Called by electrons:
     c_bands      :     26.31s CPU     26.91s WALL (      14 calls)
     sum_band     :      3.33s CPU      3.38s WALL (      14 calls)
     v_of_rho     :      0.11s CPU      0.13s WALL (      15 calls)
     newd         :      0.02s CPU      0.03s WALL (      15 calls)
     mix_rho      :      0.03s CPU      0.03s WALL (      14 calls)

     Called by c_bands:
     init_us_2    :      0.37s CPU      0.38s WALL (    1116 calls)
     cegterg      :     24.92s CPU     25.30s WALL (     504 calls)

     Called by *egterg:
     cdiaghg      :      2.89s CPU      2.91s WALL (    1757 calls)
     h_psi        :     19.09s CPU     19.43s WALL (    1793 calls)
     s_psi        :      0.74s CPU      0.76s WALL (    1793 calls)
     g_psi        :      0.06s CPU      0.06s WALL (    1253 calls)

     Called by h_psi:
     h_psi:calbec :      1.00s CPU      1.02s WALL (    1793 calls)
     vloc_psi     :     17.21s CPU     17.52s WALL (    1793 calls)
     add_vuspsi   :      0.78s CPU      0.79s WALL (    1793 calls)

     General routines
     calbec       :      1.40s CPU      1.43s WALL (    2477 calls)
     fft          :      0.47s CPU      0.48s WALL (     173 calls)
     ffts         :      0.01s CPU      0.01s WALL (      14 calls)
     fftw         :     18.27s CPU     18.58s WALL (  112508 calls)

     Parallel routines

     PWSCF        :     33.79s CPU     35.47s WALL


   This run was terminated on:  20:36:25  21Mar2026            

=------------------------------------------------------------------------------=
   JOB DONE.
=------------------------------------------------------------------------------=
