
     Program PWSCF v.7.3.1 starts on 23Mar2026 at 18:13:52 

     This program is part of the open-source Quantum ESPRESSO suite
     for quantum simulation of materials; please cite
         "P. Giannozzi et al., J. Phys.:Condens. Matter 21 395502 (2009);
         "P. Giannozzi et al., J. Phys.:Condens. Matter 29 465901 (2017);
         "P. Giannozzi et al., J. Chem. Phys. 152 154105 (2020);
          URL http://www.quantum-espresso.org", 
     in publications or presentations arising from this work. More details at
     http://www.quantum-espresso.org/quote

     Parallel version (MPI), running on   128 processors

     MPI processes distributed on     1 nodes
     242404 MiB available memory on the printing compute node when the environment starts

     Waiting for input...
     Reading input from standard input

     Current dimensions of program PWSCF are:
     Max number of different atomic species (ntypx) = 10
     Max number of k-points (npk) =  40000
     Max angular momentum in pseudopotentials (lmaxx) =  4
     Found identity + ( -0.5000 -0.5000  0.5000) symmetry
     This is a supercell, fractional translations are disabled

     K-points division:     npool     =       4
     R & G space division:  proc/nbgrp/npool/nimage =      32
     Subspace diagonalization in iterative solution of the eigenvalue problem:
     a serial algorithm will be used


     Parallelization info
     --------------------
     sticks:   dense  smooth     PW     G-vecs:    dense   smooth      PW
     Min          73      73     20                 3857     3857     560
     Max          74      74     21                 3860     3860     565
     Sum        2361    2361    657               123463   123463   17961

     Using Slab Decomposition



     bravais-lattice index     =            6
     lattice parameter (alat)  =       9.0536  a.u.
     unit-cell volume          =    1070.2453 (a.u.)^3
     number of atoms/cell      =           24
     number of atomic types    =            2
     number of electrons       =        64.00
     number of Kohn-Sham states=           32
     kinetic-energy cutoff     =      90.0000  Ry
     charge density cutoff     =     360.0000  Ry
     scf convergence threshold =      1.0E-07
     mixing beta               =       0.7000
     number of iterations used =            8  plain     mixing
     Exchange-correlation=  SLA  PW   PBE  PBE
                           (   1   4   3   4   0   0   0)

     celldm(1)=   9.053564  celldm(2)=   0.000000  celldm(3)=   1.442197
     celldm(4)=   0.000000  celldm(5)=   0.000000  celldm(6)=   0.000000

     crystal axes: (cart. coord. in units of alat)
               a(1) = (   1.000000   0.000000   0.000000 )  
               a(2) = (   0.000000   1.000000   0.000000 )  
               a(3) = (   0.000000   0.000000   1.442197 )  

     reciprocal axes: (cart. coord. in units 2 pi/alat)
               b(1) = (  1.000000  0.000000  0.000000 )  
               b(2) = (  0.000000  1.000000  0.000000 )  
               b(3) = (  0.000000  0.000000  0.693386 )  


     PseudoPot. # 1 for H  read from file:
     ./H.pbe-van_ak.UPF
     MD5 check sum: 077eb6d537518a38cb46c6de387227b7
     Pseudo is Ultrasoft, Zval =  1.0
     Generated by new atomic code, or converted to UPF format
     Using radial grid of  615 points,  1 beta functions with: 
                l(1) =   0
     Q(r) pseudized with  8 coefficients,  rinner =    0.800

     PseudoPot. # 2 for O  read from file:
     ./O.pbe-van_ak.UPF
     MD5 check sum: 78c19812648e8988a0fe644b0f25305e
     Pseudo is Ultrasoft, Zval =  6.0
     Generated by new atomic code, or converted to UPF format
     Using radial grid of  737 points,  4 beta functions with: 
                l(1) =   0
                l(2) =   0
                l(3) =   1
                l(4) =   1
     Q(r) pseudized with  8 coefficients,  rinner =    0.800   0.800   0.800


     atomic species   valence    mass     pseudopotential
     H                 1.00     1.00800     H ( 1.00)
     O                 6.00    16.00000     O ( 1.00)

      4 Sym. Ops., with inversion, found



   Cartesian axes

     site n.     atom                  positions (alat units)
         1        O      tau(   1) = (   0.0000000   0.2500000   0.8766577  )
         2        O      tau(   2) = (   0.0000000   0.7500000   0.5655395  )
         3        O      tau(   3) = (   0.5000000   0.7500000   0.1555590  )
         4        O      tau(   4) = (   0.5000000   0.2500000   1.2866381  )
         5        O      tau(   5) = (   0.0000000   0.7500000   1.2372108  )
         6        O      tau(   6) = (   0.0000000   0.2500000   0.2049863  )
         7        O      tau(   7) = (   0.5000000   0.2500000   0.5161123  )
         8        O      tau(   8) = (   0.5000000   0.7500000   0.9260848  )
         9        H      tau(   9) = (   0.0000000   0.4186701   1.0041518  )
        10        H      tau(  10) = (   0.0000000   0.5813299   0.4380453  )
        11        H      tau(  11) = (   0.5000000   0.5813299   0.2830532  )
        12        H      tau(  12) = (   0.5000000   0.4186701   1.1591439  )
        13        H      tau(  13) = (   0.8313288   0.7500000   1.3647034  )
        14        H      tau(  14) = (   0.1686712   0.2500000   0.0774938  )
        15        H      tau(  15) = (   0.6686712   0.2500000   0.6436049  )
        16        H      tau(  16) = (   0.3313288   0.7500000   0.7985923  )
        17        H      tau(  17) = (   0.6686712   0.7500000   0.7985923  )
        18        H      tau(  18) = (   0.3313288   0.2500000   0.6436049  )
        19        H      tau(  19) = (   0.8313288   0.2500000   0.0774938  )
        20        H      tau(  20) = (   0.1686712   0.7500000   1.3647034  )
        21        H      tau(  21) = (   0.5000000   0.9186701   0.2830532  )
        22        H      tau(  22) = (   0.5000000   0.0813299   1.1591439  )
        23        H      tau(  23) = (   0.0000000   0.0813299   1.0041518  )
        24        H      tau(  24) = (   0.0000000   0.9186701   0.4380454  )

     number of k points=   144

     Number of k-points >= 100: set verbosity='high' to print them.

     Dense  grid:   123463 G-vectors     FFT dimensions: (  60,  60,  80)

     Estimated max dynamical RAM per process >      14.27 MB

     Estimated total dynamical RAM >       1.70 GB

     Initial potential from superposition of free atoms

     starting charge      63.9998, renormalised to      64.0000
     Starting wfcs are   48 randomized atomic wfcs

     total cpu time spent up to now is        1.7 secs

     per-process dynamical memory:    20.8 Mb

     Self-consistent Calculation

     iteration #  1     ecut=    90.00 Ry     beta= 0.70
     Davidson diagonalization with overlap
     ethr =  1.00E-02,  avg # of iterations =  2.0

     total cpu time spent up to now is        3.8 secs

     total energy              =    -274.86718254 Ry
     estimated scf accuracy    <       2.46833558 Ry

     iteration #  2     ecut=    90.00 Ry     beta= 0.70
     Davidson diagonalization with overlap
     ethr =  3.86E-03,  avg # of iterations =  3.0

     total cpu time spent up to now is        6.4 secs

     total energy              =    -275.64789070 Ry
     estimated scf accuracy    <       1.57541656 Ry

     iteration #  3     ecut=    90.00 Ry     beta= 0.70
     Davidson diagonalization with overlap
     ethr =  2.46E-03,  avg # of iterations =  2.0

     total cpu time spent up to now is        8.4 secs

     total energy              =    -275.83959652 Ry
     estimated scf accuracy    <       0.06975161 Ry

     iteration #  4     ecut=    90.00 Ry     beta= 0.70
     Davidson diagonalization with overlap
     ethr =  1.09E-04,  avg # of iterations =  4.1

     total cpu time spent up to now is       11.4 secs

     total energy              =    -275.89500668 Ry
     estimated scf accuracy    <       0.08774301 Ry

     iteration #  5     ecut=    90.00 Ry     beta= 0.70
     Davidson diagonalization with overlap
     ethr =  1.09E-04,  avg # of iterations =  2.0

     total cpu time spent up to now is       13.1 secs

     total energy              =    -275.89467243 Ry
     estimated scf accuracy    <       0.01518256 Ry

     iteration #  6     ecut=    90.00 Ry     beta= 0.70
     Davidson diagonalization with overlap
     ethr =  2.37E-05,  avg # of iterations =  2.1

     total cpu time spent up to now is       15.2 secs

     total energy              =    -275.89814075 Ry
     estimated scf accuracy    <       0.00030376 Ry

     iteration #  7     ecut=    90.00 Ry     beta= 0.70
     Davidson diagonalization with overlap
     ethr =  4.75E-07,  avg # of iterations =  3.6

     total cpu time spent up to now is       17.8 secs

     total energy              =    -275.89841830 Ry
     estimated scf accuracy    <       0.00011466 Ry

     iteration #  8     ecut=    90.00 Ry     beta= 0.70
     Davidson diagonalization with overlap
     ethr =  1.79E-07,  avg # of iterations =  2.0

     total cpu time spent up to now is       19.8 secs

     total energy              =    -275.89833435 Ry
     estimated scf accuracy    <       0.00025721 Ry

     iteration #  9     ecut=    90.00 Ry     beta= 0.70
     Davidson diagonalization with overlap
     ethr =  1.79E-07,  avg # of iterations =  2.0

     total cpu time spent up to now is       21.9 secs

     total energy              =    -275.89833856 Ry
     estimated scf accuracy    <       0.00004098 Ry

     iteration # 10     ecut=    90.00 Ry     beta= 0.70
     Davidson diagonalization with overlap
     ethr =  6.40E-08,  avg # of iterations =  2.0

     total cpu time spent up to now is       24.0 secs

     total energy              =    -275.89834472 Ry
     estimated scf accuracy    <       0.00000327 Ry

     iteration # 11     ecut=    90.00 Ry     beta= 0.70
     Davidson diagonalization with overlap
     ethr =  5.11E-09,  avg # of iterations =  4.0

     total cpu time spent up to now is       26.9 secs

     total energy              =    -275.89834740 Ry
     estimated scf accuracy    <       0.00000129 Ry

     iteration # 12     ecut=    90.00 Ry     beta= 0.70
     Davidson diagonalization with overlap
     ethr =  2.02E-09,  avg # of iterations =  1.0

     total cpu time spent up to now is       28.4 secs

     total energy              =    -275.89834705 Ry
     estimated scf accuracy    <       0.00000117 Ry

     iteration # 13     ecut=    90.00 Ry     beta= 0.70
     Davidson diagonalization with overlap
     ethr =  1.83E-09,  avg # of iterations =  1.0

     total cpu time spent up to now is       29.9 secs

     total energy              =    -275.89834699 Ry
     estimated scf accuracy    <       0.00000028 Ry

     iteration # 14     ecut=    90.00 Ry     beta= 0.70
     Davidson diagonalization with overlap
     ethr =  4.43E-10,  avg # of iterations =  2.0

     total cpu time spent up to now is       31.9 secs

     End of self-consistent calculation

     Number of k-points >= 100: set verbosity='high' to print the bands.

     highest occupied level (ev):    -0.5974

!    total energy              =    -275.89834706 Ry
     estimated scf accuracy    <          5.9E-09 Ry

     The total energy is the sum of the following terms:
     one-electron contribution =    -130.24776367 Ry
     hartree contribution      =      91.53678118 Ry
     xc contribution           =     -67.41841969 Ry
     ewald contribution        =    -169.76894487 Ry

     convergence has been achieved in  14 iterations

     Forces acting on atoms (cartesian axes, Ry/au):

     atom    1 type  2   force =     0.00000000    0.00000019    0.03294095
     atom    2 type  2   force =     0.00000000   -0.00000019   -0.03294095
     atom    3 type  2   force =     0.00000000    0.00000009    0.03294202
     atom    4 type  2   force =     0.00000000   -0.00000009   -0.03294202
     atom    5 type  2   force =    -0.00000000   -0.00000003    0.03293933
     atom    6 type  2   force =    -0.00000000    0.00000003   -0.03293933
     atom    7 type  2   force =     0.00000000   -0.00000002    0.03293988
     atom    8 type  2   force =     0.00000000    0.00000002   -0.03293988
     atom    9 type  1   force =     0.00000000   -0.02546465   -0.01610435
     atom   10 type  1   force =     0.00000000    0.02546465    0.01610435
     atom   11 type  1   force =     0.00000000    0.02546411   -0.01610376
     atom   12 type  1   force =     0.00000000   -0.02546411    0.01610376
     atom   13 type  1   force =     0.02546518   -0.00000000   -0.01610092
     atom   14 type  1   force =    -0.02546518    0.00000000    0.01610092
     atom   15 type  1   force =    -0.02546502   -0.00000001   -0.01610080
     atom   16 type  1   force =     0.02546502    0.00000001    0.01610080
     atom   17 type  1   force =    -0.02546502    0.00000001    0.01610080
     atom   18 type  1   force =     0.02546502   -0.00000001   -0.01610080
     atom   19 type  1   force =     0.02546518    0.00000000    0.01610092
     atom   20 type  1   force =    -0.02546518   -0.00000000   -0.01610092
     atom   21 type  1   force =     0.00000000   -0.02546416   -0.01610379
     atom   22 type  1   force =     0.00000000    0.02546416    0.01610379
     atom   23 type  1   force =     0.00000000    0.02546451   -0.01610425
     atom   24 type  1   force =     0.00000000   -0.02546451    0.01610425

     Total force =     0.152330     Total SCF correction =     0.000077


     Computing stress (Cartesian axis) and pressure

          total   stress  (Ry/bohr**3)                   (kbar)     P=      -44.95
  -0.00030314   0.00000000   0.00000000          -44.59        0.00        0.00
   0.00000000  -0.00030315  -0.00000000            0.00      -44.59       -0.00
   0.00000000  -0.00000000  -0.00031030            0.00       -0.00      -45.65


     Writing all to output data dir ./iceVIII/iceVIII.save/ :
     XML data file, charge density, pseudopotentials, collected wavefunctions

     init_run     :      1.41s CPU      1.49s WALL (       1 calls)
     electrons    :     29.51s CPU     30.21s WALL (       1 calls)
     forces       :      0.15s CPU      0.15s WALL (       1 calls)
     stress       :      1.72s CPU      1.74s WALL (       1 calls)

     Called by init_run:
     wfcinit      :      0.91s CPU      0.94s WALL (       1 calls)
     potinit      :      0.02s CPU      0.03s WALL (       1 calls)
     hinit0       :      0.43s CPU      0.45s WALL (       1 calls)

     Called by electrons:
     c_bands      :     25.98s CPU     26.61s WALL (      14 calls)
     sum_band     :      3.34s CPU      3.38s WALL (      14 calls)
     v_of_rho     :      0.12s CPU      0.13s WALL (      15 calls)
     newd         :      0.02s CPU      0.03s WALL (      15 calls)
     mix_rho      :      0.03s CPU      0.03s WALL (      14 calls)

     Called by c_bands:
     init_us_2    :      0.36s CPU      0.37s WALL (    1116 calls)
     cegterg      :     24.46s CPU     24.87s WALL (     504 calls)

     Called by *egterg:
     cdiaghg      :      2.76s CPU      2.78s WALL (    1674 calls)
     h_psi        :     18.88s CPU     19.24s WALL (    1710 calls)
     s_psi        :      0.72s CPU      0.73s WALL (    1710 calls)
     g_psi        :      0.06s CPU      0.06s WALL (    1170 calls)

     Called by h_psi:
     h_psi:calbec :      1.00s CPU      1.02s WALL (    1710 calls)
     vloc_psi     :     17.03s CPU     17.36s WALL (    1710 calls)
     add_vuspsi   :      0.75s CPU      0.77s WALL (    1710 calls)

     General routines
     calbec       :      1.44s CPU      1.46s WALL (    2394 calls)
     fft          :      0.48s CPU      0.48s WALL (     173 calls)
     ffts         :      0.01s CPU      0.01s WALL (      14 calls)
     fftw         :     18.09s CPU     18.41s WALL (  112140 calls)

     Parallel routines

     PWSCF        :     33.52s CPU     35.13s WALL


   This run was terminated on:  18:14:27  23Mar2026            

=------------------------------------------------------------------------------=
   JOB DONE.
=------------------------------------------------------------------------------=
