
     Program PWSCF v.7.3.1 starts on 23Mar2026 at 18:16:24 

     This program is part of the open-source Quantum ESPRESSO suite
     for quantum simulation of materials; please cite
         "P. Giannozzi et al., J. Phys.:Condens. Matter 21 395502 (2009);
         "P. Giannozzi et al., J. Phys.:Condens. Matter 29 465901 (2017);
         "P. Giannozzi et al., J. Chem. Phys. 152 154105 (2020);
          URL http://www.quantum-espresso.org", 
     in publications or presentations arising from this work. More details at
     http://www.quantum-espresso.org/quote

     Parallel version (MPI), running on   128 processors

     MPI processes distributed on     1 nodes
     242276 MiB available memory on the printing compute node when the environment starts

     Waiting for input...
     Reading input from standard input

     Current dimensions of program PWSCF are:
     Max number of different atomic species (ntypx) = 10
     Max number of k-points (npk) =  40000
     Max angular momentum in pseudopotentials (lmaxx) =  4
     Found identity + ( -0.5000 -0.5000  0.5000) symmetry
     This is a supercell, fractional translations are disabled

     K-points division:     npool     =       4
     R & G space division:  proc/nbgrp/npool/nimage =      32
     Subspace diagonalization in iterative solution of the eigenvalue problem:
     a serial algorithm will be used


     Parallelization info
     --------------------
     sticks:   dense  smooth     PW     G-vecs:    dense   smooth      PW
     Min          74      74     20                 3952     3952     572
     Max          75      75     21                 3959     3959     579
     Sum        2385    2385    665               126543   126543   18417

     Using Slab Decomposition



     bravais-lattice index     =            6
     lattice parameter (alat)  =       9.1246  a.u.
     unit-cell volume          =    1095.6256 (a.u.)^3
     number of atoms/cell      =           24
     number of atomic types    =            2
     number of electrons       =        64.00
     number of Kohn-Sham states=           32
     kinetic-energy cutoff     =      90.0000  Ry
     charge density cutoff     =     360.0000  Ry
     scf convergence threshold =      1.0E-07
     mixing beta               =       0.7000
     number of iterations used =            8  plain     mixing
     Exchange-correlation=  SLA  PW   PBE  PBE
                           (   1   4   3   4   0   0   0)

     celldm(1)=   9.124572  celldm(2)=   0.000000  celldm(3)=   1.442197
     celldm(4)=   0.000000  celldm(5)=   0.000000  celldm(6)=   0.000000

     crystal axes: (cart. coord. in units of alat)
               a(1) = (   1.000000   0.000000   0.000000 )  
               a(2) = (   0.000000   1.000000   0.000000 )  
               a(3) = (   0.000000   0.000000   1.442197 )  

     reciprocal axes: (cart. coord. in units 2 pi/alat)
               b(1) = (  1.000000  0.000000  0.000000 )  
               b(2) = (  0.000000  1.000000  0.000000 )  
               b(3) = (  0.000000  0.000000  0.693386 )  


     PseudoPot. # 1 for H  read from file:
     ./H.pbe-van_ak.UPF
     MD5 check sum: 077eb6d537518a38cb46c6de387227b7
     Pseudo is Ultrasoft, Zval =  1.0
     Generated by new atomic code, or converted to UPF format
     Using radial grid of  615 points,  1 beta functions with: 
                l(1) =   0
     Q(r) pseudized with  8 coefficients,  rinner =    0.800

     PseudoPot. # 2 for O  read from file:
     ./O.pbe-van_ak.UPF
     MD5 check sum: 78c19812648e8988a0fe644b0f25305e
     Pseudo is Ultrasoft, Zval =  6.0
     Generated by new atomic code, or converted to UPF format
     Using radial grid of  737 points,  4 beta functions with: 
                l(1) =   0
                l(2) =   0
                l(3) =   1
                l(4) =   1
     Q(r) pseudized with  8 coefficients,  rinner =    0.800   0.800   0.800


     atomic species   valence    mass     pseudopotential
     H                 1.00     1.00800     H ( 1.00)
     O                 6.00    16.00000     O ( 1.00)

      4 Sym. Ops., with inversion, found



   Cartesian axes

     site n.     atom                  positions (alat units)
         1        O      tau(   1) = (   0.0000000   0.2500000   0.8766577  )
         2        O      tau(   2) = (   0.0000000   0.7500000   0.5655395  )
         3        O      tau(   3) = (   0.5000000   0.7500000   0.1555590  )
         4        O      tau(   4) = (   0.5000000   0.2500000   1.2866381  )
         5        O      tau(   5) = (   0.0000000   0.7500000   1.2372108  )
         6        O      tau(   6) = (   0.0000000   0.2500000   0.2049863  )
         7        O      tau(   7) = (   0.5000000   0.2500000   0.5161123  )
         8        O      tau(   8) = (   0.5000000   0.7500000   0.9260848  )
         9        H      tau(   9) = (   0.0000000   0.4186701   1.0041518  )
        10        H      tau(  10) = (   0.0000000   0.5813299   0.4380453  )
        11        H      tau(  11) = (   0.5000000   0.5813299   0.2830532  )
        12        H      tau(  12) = (   0.5000000   0.4186701   1.1591439  )
        13        H      tau(  13) = (   0.8313288   0.7500000   1.3647034  )
        14        H      tau(  14) = (   0.1686712   0.2500000   0.0774938  )
        15        H      tau(  15) = (   0.6686712   0.2500000   0.6436049  )
        16        H      tau(  16) = (   0.3313288   0.7500000   0.7985923  )
        17        H      tau(  17) = (   0.6686712   0.7500000   0.7985923  )
        18        H      tau(  18) = (   0.3313288   0.2500000   0.6436049  )
        19        H      tau(  19) = (   0.8313288   0.2500000   0.0774938  )
        20        H      tau(  20) = (   0.1686712   0.7500000   1.3647034  )
        21        H      tau(  21) = (   0.5000000   0.9186701   0.2830532  )
        22        H      tau(  22) = (   0.5000000   0.0813299   1.1591439  )
        23        H      tau(  23) = (   0.0000000   0.0813299   1.0041518  )
        24        H      tau(  24) = (   0.0000000   0.9186701   0.4380454  )

     number of k points=   144

     Number of k-points >= 100: set verbosity='high' to print them.

     Dense  grid:   126543 G-vectors     FFT dimensions: (  60,  60,  80)

     Estimated max dynamical RAM per process >      14.56 MB

     Estimated total dynamical RAM >       1.73 GB

     Initial potential from superposition of free atoms

     starting charge      63.9998, renormalised to      64.0000
     Starting wfcs are   48 randomized atomic wfcs

     total cpu time spent up to now is        1.7 secs

     per-process dynamical memory:    20.9 Mb

     Self-consistent Calculation

     iteration #  1     ecut=    90.00 Ry     beta= 0.70
     Davidson diagonalization with overlap
     ethr =  1.00E-02,  avg # of iterations =  2.0

     total cpu time spent up to now is        3.8 secs

     total energy              =    -274.85458357 Ry
     estimated scf accuracy    <       2.45790039 Ry

     iteration #  2     ecut=    90.00 Ry     beta= 0.70
     Davidson diagonalization with overlap
     ethr =  3.84E-03,  avg # of iterations =  3.0

     total cpu time spent up to now is        6.4 secs

     total energy              =    -275.62756990 Ry
     estimated scf accuracy    <       1.63767136 Ry

     iteration #  3     ecut=    90.00 Ry     beta= 0.70
     Davidson diagonalization with overlap
     ethr =  2.56E-03,  avg # of iterations =  2.0

     total cpu time spent up to now is        8.3 secs

     total energy              =    -275.82779823 Ry
     estimated scf accuracy    <       0.07303900 Ry

     iteration #  4     ecut=    90.00 Ry     beta= 0.70
     Davidson diagonalization with overlap
     ethr =  1.14E-04,  avg # of iterations =  4.0

     total cpu time spent up to now is       11.4 secs

     total energy              =    -275.88651477 Ry
     estimated scf accuracy    <       0.09011087 Ry

     iteration #  5     ecut=    90.00 Ry     beta= 0.70
     Davidson diagonalization with overlap
     ethr =  1.14E-04,  avg # of iterations =  1.8

     total cpu time spent up to now is       13.0 secs

     total energy              =    -275.88587718 Ry
     estimated scf accuracy    <       0.01592421 Ry

     iteration #  6     ecut=    90.00 Ry     beta= 0.70
     Davidson diagonalization with overlap
     ethr =  2.49E-05,  avg # of iterations =  2.0

     total cpu time spent up to now is       15.1 secs

     total energy              =    -275.88936767 Ry
     estimated scf accuracy    <       0.00037295 Ry

     iteration #  7     ecut=    90.00 Ry     beta= 0.70
     Davidson diagonalization with overlap
     ethr =  5.83E-07,  avg # of iterations =  3.2

     total cpu time spent up to now is       17.5 secs

     total energy              =    -275.88963084 Ry
     estimated scf accuracy    <       0.00009630 Ry

     iteration #  8     ecut=    90.00 Ry     beta= 0.70
     Davidson diagonalization with overlap
     ethr =  1.50E-07,  avg # of iterations =  3.0

     total cpu time spent up to now is       19.9 secs

     total energy              =    -275.88955359 Ry
     estimated scf accuracy    <       0.00028507 Ry

     iteration #  9     ecut=    90.00 Ry     beta= 0.70
     Davidson diagonalization with overlap
     ethr =  1.50E-07,  avg # of iterations =  2.0

     total cpu time spent up to now is       22.0 secs

     total energy              =    -275.88955489 Ry
     estimated scf accuracy    <       0.00005281 Ry

     iteration # 10     ecut=    90.00 Ry     beta= 0.70
     Davidson diagonalization with overlap
     ethr =  8.25E-08,  avg # of iterations =  2.0

     total cpu time spent up to now is       24.0 secs

     total energy              =    -275.88956006 Ry
     estimated scf accuracy    <       0.00000654 Ry

     iteration # 11     ecut=    90.00 Ry     beta= 0.70
     Davidson diagonalization with overlap
     ethr =  1.02E-08,  avg # of iterations =  4.0

     total cpu time spent up to now is       26.7 secs

     total energy              =    -275.88956381 Ry
     estimated scf accuracy    <       0.00000068 Ry

     iteration # 12     ecut=    90.00 Ry     beta= 0.70
     Davidson diagonalization with overlap
     ethr =  1.06E-09,  avg # of iterations =  3.5

     total cpu time spent up to now is       29.0 secs

     total energy              =    -275.88956341 Ry
     estimated scf accuracy    <       0.00000135 Ry

     iteration # 13     ecut=    90.00 Ry     beta= 0.70
     Davidson diagonalization with overlap
     ethr =  1.06E-09,  avg # of iterations =  2.0

     total cpu time spent up to now is       31.1 secs

     total energy              =    -275.88956350 Ry
     estimated scf accuracy    <       0.00000013 Ry

     iteration # 14     ecut=    90.00 Ry     beta= 0.70
     Davidson diagonalization with overlap
     ethr =  2.05E-10,  avg # of iterations =  3.0

     total cpu time spent up to now is       33.4 secs

     End of self-consistent calculation

     Number of k-points >= 100: set verbosity='high' to print the bands.

     highest occupied level (ev):    -0.7453

!    total energy              =    -275.88956354 Ry
     estimated scf accuracy    <          3.0E-09 Ry

     The total energy is the sum of the following terms:
     one-electron contribution =    -132.51481210 Ry
     hartree contribution      =      92.35230656 Ry
     xc contribution           =     -67.27927224 Ry
     ewald contribution        =    -168.44778577 Ry

     convergence has been achieved in  14 iterations

     Forces acting on atoms (cartesian axes, Ry/au):

     atom    1 type  2   force =     0.00000000    0.00000015    0.04478214
     atom    2 type  2   force =     0.00000000   -0.00000015   -0.04478214
     atom    3 type  2   force =     0.00000000    0.00000005    0.04478241
     atom    4 type  2   force =     0.00000000   -0.00000005   -0.04478241
     atom    5 type  2   force =    -0.00000000   -0.00000003    0.04477316
     atom    6 type  2   force =    -0.00000000    0.00000003   -0.04477316
     atom    7 type  2   force =     0.00000000   -0.00000002    0.04477492
     atom    8 type  2   force =     0.00000000    0.00000002   -0.04477492
     atom    9 type  1   force =     0.00000000   -0.03473673   -0.02216222
     atom   10 type  1   force =     0.00000000    0.03473673    0.02216222
     atom   11 type  1   force =     0.00000000    0.03473628   -0.02216188
     atom   12 type  1   force =     0.00000000   -0.03473628    0.02216188
     atom   13 type  1   force =     0.03473842   -0.00000000   -0.02216016
     atom   14 type  1   force =    -0.03473842    0.00000000    0.02216016
     atom   15 type  1   force =    -0.03473825   -0.00000000   -0.02215981
     atom   16 type  1   force =     0.03473825    0.00000000    0.02215981
     atom   17 type  1   force =    -0.03473825    0.00000000    0.02215981
     atom   18 type  1   force =     0.03473825   -0.00000000   -0.02215981
     atom   19 type  1   force =     0.03473842    0.00000000    0.02216016
     atom   20 type  1   force =    -0.03473842   -0.00000000   -0.02216016
     atom   21 type  1   force =     0.00000000   -0.03473634   -0.02216192
     atom   22 type  1   force =     0.00000000    0.03473634    0.02216192
     atom   23 type  1   force =     0.00000000    0.03473659   -0.02216212
     atom   24 type  1   force =     0.00000000   -0.03473659    0.02216212

     Total force =     0.207859     Total SCF correction =     0.000030


     Computing stress (Cartesian axis) and pressure

          total   stress  (Ry/bohr**3)                   (kbar)     P=      -65.73
  -0.00044363   0.00000000   0.00000000          -65.26        0.00        0.00
   0.00000000  -0.00044360  -0.00000000            0.00      -65.26       -0.00
   0.00000000  -0.00000000  -0.00045326            0.00       -0.00      -66.68


     Writing all to output data dir ./iceVIII/iceVIII.save/ :
     XML data file, charge density, pseudopotentials, collected wavefunctions

     init_run     :      1.41s CPU      1.49s WALL (       1 calls)
     electrons    :     31.11s CPU     31.73s WALL (       1 calls)
     forces       :      0.15s CPU      0.15s WALL (       1 calls)
     stress       :      1.77s CPU      1.78s WALL (       1 calls)

     Called by init_run:
     wfcinit      :      0.91s CPU      0.95s WALL (       1 calls)
     potinit      :      0.01s CPU      0.03s WALL (       1 calls)
     hinit0       :      0.43s CPU      0.44s WALL (       1 calls)

     Called by electrons:
     c_bands      :     27.58s CPU     28.11s WALL (      14 calls)
     sum_band     :      3.35s CPU      3.40s WALL (      14 calls)
     v_of_rho     :      0.11s CPU      0.12s WALL (      15 calls)
     newd         :      0.02s CPU      0.03s WALL (      15 calls)
     mix_rho      :      0.03s CPU      0.03s WALL (      14 calls)

     Called by c_bands:
     init_us_2    :      0.38s CPU      0.39s WALL (    1116 calls)
     cegterg      :     26.37s CPU     26.68s WALL (     504 calls)

     Called by *egterg:
     cdiaghg      :      3.06s CPU      3.08s WALL (    1845 calls)
     h_psi        :     20.06s CPU     20.34s WALL (    1881 calls)
     s_psi        :      0.78s CPU      0.79s WALL (    1881 calls)
     g_psi        :      0.06s CPU      0.06s WALL (    1341 calls)

     Called by h_psi:
     h_psi:calbec :      1.10s CPU      1.11s WALL (    1881 calls)
     vloc_psi     :     18.03s CPU     18.28s WALL (    1881 calls)
     add_vuspsi   :      0.83s CPU      0.84s WALL (    1881 calls)

     General routines
     calbec       :      1.52s CPU      1.54s WALL (    2565 calls)
     fft          :      0.48s CPU      0.48s WALL (     173 calls)
     ffts         :      0.01s CPU      0.01s WALL (      14 calls)
     fftw         :     18.98s CPU     19.24s WALL (  116892 calls)

     Parallel routines

     PWSCF        :     35.13s CPU     36.59s WALL


   This run was terminated on:  18:17: 0  23Mar2026            

=------------------------------------------------------------------------------=
   JOB DONE.
=------------------------------------------------------------------------------=
