
     Program PWSCF v.7.3.1 starts on 21Mar2026 at 21:15:11 

     This program is part of the open-source Quantum ESPRESSO suite
     for quantum simulation of materials; please cite
         "P. Giannozzi et al., J. Phys.:Condens. Matter 21 395502 (2009);
         "P. Giannozzi et al., J. Phys.:Condens. Matter 29 465901 (2017);
         "P. Giannozzi et al., J. Chem. Phys. 152 154105 (2020);
          URL http://www.quantum-espresso.org", 
     in publications or presentations arising from this work. More details at
     http://www.quantum-espresso.org/quote

     Parallel version (MPI), running on   128 processors

     MPI processes distributed on     1 nodes
     241996 MiB available memory on the printing compute node when the environment starts

     Waiting for input...
     Reading input from standard input

     Current dimensions of program PWSCF are:
     Max number of different atomic species (ntypx) = 10
     Max number of k-points (npk) =  40000
     Max angular momentum in pseudopotentials (lmaxx) =  4
     Found identity + ( -0.5000 -0.5000  0.5000) symmetry
     This is a supercell, fractional translations are disabled

     K-points division:     npool     =       4
     R & G space division:  proc/nbgrp/npool/nimage =      32
     Subspace diagonalization in iterative solution of the eigenvalue problem:
     a serial algorithm will be used


     Parallelization info
     --------------------
     sticks:   dense  smooth     PW     G-vecs:    dense   smooth      PW
     Min          77      77     21                 4201     4201     606
     Max          78      78     23                 4206     4206     612
     Sum        2477    2477    681               134509   134509   19443

     Using Slab Decomposition



     bravais-lattice index     =            6
     lattice parameter (alat)  =       9.3198  a.u.
     unit-cell volume          =    1167.4834 (a.u.)^3
     number of atoms/cell      =           24
     number of atomic types    =            2
     number of electrons       =        64.00
     number of Kohn-Sham states=           32
     kinetic-energy cutoff     =      90.0000  Ry
     charge density cutoff     =     360.0000  Ry
     scf convergence threshold =      1.0E-07
     mixing beta               =       0.7000
     number of iterations used =            8  plain     mixing
     Exchange-correlation=  SLA  PW   PBE  PBE
                           (   1   4   3   4   0   0   0)

     celldm(1)=   9.319845  celldm(2)=   0.000000  celldm(3)=   1.442197
     celldm(4)=   0.000000  celldm(5)=   0.000000  celldm(6)=   0.000000

     crystal axes: (cart. coord. in units of alat)
               a(1) = (   1.000000   0.000000   0.000000 )  
               a(2) = (   0.000000   1.000000   0.000000 )  
               a(3) = (   0.000000   0.000000   1.442197 )  

     reciprocal axes: (cart. coord. in units 2 pi/alat)
               b(1) = (  1.000000  0.000000  0.000000 )  
               b(2) = (  0.000000  1.000000  0.000000 )  
               b(3) = (  0.000000  0.000000  0.693386 )  


     PseudoPot. # 1 for H  read from file:
     ./H.pbe-van_ak.UPF
     MD5 check sum: 077eb6d537518a38cb46c6de387227b7
     Pseudo is Ultrasoft, Zval =  1.0
     Generated by new atomic code, or converted to UPF format
     Using radial grid of  615 points,  1 beta functions with: 
                l(1) =   0
     Q(r) pseudized with  8 coefficients,  rinner =    0.800

     PseudoPot. # 2 for O  read from file:
     ./O.pbe-van_ak.UPF
     MD5 check sum: 78c19812648e8988a0fe644b0f25305e
     Pseudo is Ultrasoft, Zval =  6.0
     Generated by new atomic code, or converted to UPF format
     Using radial grid of  737 points,  4 beta functions with: 
                l(1) =   0
                l(2) =   0
                l(3) =   1
                l(4) =   1
     Q(r) pseudized with  8 coefficients,  rinner =    0.800   0.800   0.800


     atomic species   valence    mass     pseudopotential
     H                 1.00     1.00800     H ( 1.00)
     O                 6.00    16.00000     O ( 1.00)

      4 Sym. Ops., with inversion, found



   Cartesian axes

     site n.     atom                  positions (alat units)
         1        O      tau(   1) = (   0.0000000   0.2500000   0.8781106  )
         2        O      tau(   2) = (   0.0000000   0.7500000   0.5640866  )
         3        O      tau(   3) = (   0.5000000   0.7500000   0.1570120  )
         4        O      tau(   4) = (   0.5000000   0.2500000   1.2851851  )
         5        O      tau(   5) = (   0.0000000   0.7500000   1.2386599  )
         6        O      tau(   6) = (   0.0000000   0.2500000   0.2035373  )
         7        O      tau(   7) = (   0.5000000   0.2500000   0.5175613  )
         8        O      tau(   8) = (   0.5000000   0.7500000   0.9246358  )
         9        H      tau(   9) = (   0.0000000   0.4142500   1.0027885  )
        10        H      tau(  10) = (   0.0000000   0.5857500   0.4394086  )
        11        H      tau(  11) = (   0.5000000   0.5857500   0.2816900  )
        12        H      tau(  12) = (   0.5000000   0.4142500   1.1605072  )
        13        H      tau(  13) = (   0.8357500   0.7500000   1.3633378  )
        14        H      tau(  14) = (   0.1642500   0.2500000   0.0788593  )
        15        H      tau(  15) = (   0.6642500   0.2500000   0.6422392  )
        16        H      tau(  16) = (   0.3357500   0.7500000   0.7999579  )
        17        H      tau(  17) = (   0.6642500   0.7500000   0.7999579  )
        18        H      tau(  18) = (   0.3357500   0.2500000   0.6422392  )
        19        H      tau(  19) = (   0.8357500   0.2500000   0.0788593  )
        20        H      tau(  20) = (   0.1642500   0.7500000   1.3633378  )
        21        H      tau(  21) = (   0.5000000   0.9142500   0.2816900  )
        22        H      tau(  22) = (   0.5000000   0.0857500   1.1605072  )
        23        H      tau(  23) = (   0.0000000   0.0857500   1.0027885  )
        24        H      tau(  24) = (   0.0000000   0.9142500   0.4394086  )

     number of k points=   144

     Number of k-points >= 100: set verbosity='high' to print them.

     Dense  grid:   134509 G-vectors     FFT dimensions: (  60,  60,  81)

     Estimated max dynamical RAM per process >      15.40 MB

     Estimated total dynamical RAM >       1.83 GB

     Initial potential from superposition of free atoms

     starting charge      63.9998, renormalised to      64.0000
     Starting wfcs are   48 randomized atomic wfcs

     total cpu time spent up to now is        1.7 secs

     per-process dynamical memory:    21.6 Mb

     Self-consistent Calculation

     iteration #  1     ecut=    90.00 Ry     beta= 0.70
     Davidson diagonalization with overlap
     ethr =  1.00E-02,  avg # of iterations =  2.0

     total cpu time spent up to now is        3.8 secs

     total energy              =    -274.80227601 Ry
     estimated scf accuracy    <       2.56150502 Ry

     iteration #  2     ecut=    90.00 Ry     beta= 0.70
     Davidson diagonalization with overlap
     ethr =  4.00E-03,  avg # of iterations =  3.0

     total cpu time spent up to now is        6.6 secs

     total energy              =    -275.60244934 Ry
     estimated scf accuracy    <       1.78976464 Ry

     iteration #  3     ecut=    90.00 Ry     beta= 0.70
     Davidson diagonalization with overlap
     ethr =  2.80E-03,  avg # of iterations =  2.0

     total cpu time spent up to now is        8.6 secs

     total energy              =    -275.82153587 Ry
     estimated scf accuracy    <       0.08042121 Ry

     iteration #  4     ecut=    90.00 Ry     beta= 0.70
     Davidson diagonalization with overlap
     ethr =  1.26E-04,  avg # of iterations =  4.0

     total cpu time spent up to now is       11.8 secs

     total energy              =    -275.88744830 Ry
     estimated scf accuracy    <       0.10096449 Ry

     iteration #  5     ecut=    90.00 Ry     beta= 0.70
     Davidson diagonalization with overlap
     ethr =  1.26E-04,  avg # of iterations =  1.9

     total cpu time spent up to now is       13.6 secs

     total energy              =    -275.88649469 Ry
     estimated scf accuracy    <       0.01827088 Ry

     iteration #  6     ecut=    90.00 Ry     beta= 0.70
     Davidson diagonalization with overlap
     ethr =  2.85E-05,  avg # of iterations =  2.0

     total cpu time spent up to now is       15.7 secs

     total energy              =    -275.89019730 Ry
     estimated scf accuracy    <       0.00053759 Ry

     iteration #  7     ecut=    90.00 Ry     beta= 0.70
     Davidson diagonalization with overlap
     ethr =  8.40E-07,  avg # of iterations =  3.2

     total cpu time spent up to now is       18.2 secs

     total energy              =    -275.89053106 Ry
     estimated scf accuracy    <       0.00010628 Ry

     iteration #  8     ecut=    90.00 Ry     beta= 0.70
     Davidson diagonalization with overlap
     ethr =  1.66E-07,  avg # of iterations =  3.0

     total cpu time spent up to now is       20.7 secs

     total energy              =    -275.89044252 Ry
     estimated scf accuracy    <       0.00031868 Ry

     iteration #  9     ecut=    90.00 Ry     beta= 0.70
     Davidson diagonalization with overlap
     ethr =  1.66E-07,  avg # of iterations =  2.0

     total cpu time spent up to now is       23.0 secs

     total energy              =    -275.89044733 Ry
     estimated scf accuracy    <       0.00005195 Ry

     iteration # 10     ecut=    90.00 Ry     beta= 0.70
     Davidson diagonalization with overlap
     ethr =  8.12E-08,  avg # of iterations =  2.0

     total cpu time spent up to now is       25.1 secs

     total energy              =    -275.89045546 Ry
     estimated scf accuracy    <       0.00000371 Ry

     iteration # 11     ecut=    90.00 Ry     beta= 0.70
     Davidson diagonalization with overlap
     ethr =  5.79E-09,  avg # of iterations =  4.8

     total cpu time spent up to now is       28.4 secs

     total energy              =    -275.89045986 Ry
     estimated scf accuracy    <       0.00000463 Ry

     iteration # 12     ecut=    90.00 Ry     beta= 0.70
     Davidson diagonalization with overlap
     ethr =  5.79E-09,  avg # of iterations =  1.0

     total cpu time spent up to now is       30.1 secs

     total energy              =    -275.89045811 Ry
     estimated scf accuracy    <       0.00000319 Ry

     iteration # 13     ecut=    90.00 Ry     beta= 0.70
     Davidson diagonalization with overlap
     ethr =  4.99E-09,  avg # of iterations =  2.0

     total cpu time spent up to now is       32.4 secs

     End of self-consistent calculation

     Number of k-points >= 100: set verbosity='high' to print the bands.

     highest occupied level (ev):    -1.1724

!    total energy              =    -275.89045898 Ry
     estimated scf accuracy    <       0.00000003 Ry

     The total energy is the sum of the following terms:
     one-electron contribution =    -141.48916231 Ry
     hartree contribution      =      95.86346275 Ry
     xc contribution           =     -67.21838893 Ry
     ewald contribution        =    -163.04637049 Ry

     convergence has been achieved in  13 iterations

     Forces acting on atoms (cartesian axes, Ry/au):

     atom    1 type  2   force =     0.00000000    0.00000005    0.04315565
     atom    2 type  2   force =     0.00000000   -0.00000005   -0.04315565
     atom    3 type  2   force =     0.00000000    0.00000003    0.04319678
     atom    4 type  2   force =     0.00000000   -0.00000003   -0.04319678
     atom    5 type  2   force =     0.00000000   -0.00000004    0.04319913
     atom    6 type  2   force =     0.00000000    0.00000004   -0.04319913
     atom    7 type  2   force =     0.00000000   -0.00000001    0.04314812
     atom    8 type  2   force =     0.00000000    0.00000001   -0.04314812
     atom    9 type  1   force =     0.00000000   -0.03333985   -0.02188425
     atom   10 type  1   force =     0.00000000    0.03333985    0.02188425
     atom   11 type  1   force =     0.00000000    0.03334052   -0.02188355
     atom   12 type  1   force =     0.00000000   -0.03334052    0.02188355
     atom   13 type  1   force =     0.03333998   -0.00000000   -0.02187240
     atom   14 type  1   force =    -0.03333998    0.00000000    0.02187240
     atom   15 type  1   force =    -0.03334110   -0.00000000   -0.02189582
     atom   16 type  1   force =     0.03334110    0.00000000    0.02189582
     atom   17 type  1   force =    -0.03334110    0.00000000    0.02189582
     atom   18 type  1   force =     0.03334110   -0.00000000   -0.02189582
     atom   19 type  1   force =     0.03333998    0.00000000    0.02187240
     atom   20 type  1   force =    -0.03333998   -0.00000000   -0.02187240
     atom   21 type  1   force =     0.00000000   -0.03334052   -0.02188355
     atom   22 type  1   force =     0.00000000    0.03334052    0.02188355
     atom   23 type  1   force =     0.00000000    0.03333986   -0.02188425
     atom   24 type  1   force =     0.00000000   -0.03333986    0.02188425

     Total force =     0.200899     Total SCF correction =     0.000072


     Computing stress (Cartesian axis) and pressure

          total   stress  (Ry/bohr**3)                   (kbar)     P=      -67.99
  -0.00045916   0.00000000   0.00000000          -67.55        0.00        0.00
   0.00000000  -0.00045916  -0.00000000            0.00      -67.54       -0.00
   0.00000000  -0.00000000  -0.00046828            0.00       -0.00      -68.89


     Writing all to output data dir ./iceVIII/iceVIII.save/ :
     XML data file, charge density, pseudopotentials, collected wavefunctions

     init_run     :      1.37s CPU      1.44s WALL (       1 calls)
     electrons    :     30.09s CPU     30.73s WALL (       1 calls)
     forces       :      0.15s CPU      0.16s WALL (       1 calls)
     stress       :      1.88s CPU      1.89s WALL (       1 calls)

     Called by init_run:
     wfcinit      :      0.96s CPU      0.97s WALL (       1 calls)
     potinit      :      0.03s CPU      0.04s WALL (       1 calls)
     hinit0       :      0.34s CPU      0.34s WALL (       1 calls)

     Called by electrons:
     c_bands      :     26.59s CPU     27.14s WALL (      13 calls)
     sum_band     :      3.33s CPU      3.37s WALL (      13 calls)
     v_of_rho     :      0.11s CPU      0.12s WALL (      14 calls)
     newd         :      0.02s CPU      0.03s WALL (      14 calls)
     mix_rho      :      0.03s CPU      0.03s WALL (      13 calls)

     Called by c_bands:
     init_us_2    :      0.37s CPU      0.39s WALL (    1044 calls)
     cegterg      :     25.58s CPU     25.91s WALL (     468 calls)

     Called by *egterg:
     cdiaghg      :      2.72s CPU      2.74s WALL (    1650 calls)
     h_psi        :     19.79s CPU     20.08s WALL (    1686 calls)
     s_psi        :      0.74s CPU      0.75s WALL (    1686 calls)
     g_psi        :      0.07s CPU      0.07s WALL (    1182 calls)

     Called by h_psi:
     h_psi:calbec :      1.07s CPU      1.09s WALL (    1686 calls)
     vloc_psi     :     17.81s CPU     18.08s WALL (    1686 calls)
     add_vuspsi   :      0.80s CPU      0.81s WALL (    1686 calls)

     General routines
     calbec       :      1.51s CPU      1.53s WALL (    2334 calls)
     fft          :      0.38s CPU      0.38s WALL (     162 calls)
     ffts         :      0.00s CPU      0.01s WALL (      13 calls)
     fftw         :     18.83s CPU     19.09s WALL (  108866 calls)

     Parallel routines

     PWSCF        :     34.34s CPU     35.91s WALL


   This run was terminated on:  21:15:47  21Mar2026            

=------------------------------------------------------------------------------=
   JOB DONE.
=------------------------------------------------------------------------------=
