
     Program PWSCF v.7.3.1 starts on 24Mar2026 at 19:43:23 

     This program is part of the open-source Quantum ESPRESSO suite
     for quantum simulation of materials; please cite
         "P. Giannozzi et al., J. Phys.:Condens. Matter 21 395502 (2009);
         "P. Giannozzi et al., J. Phys.:Condens. Matter 29 465901 (2017);
         "P. Giannozzi et al., J. Chem. Phys. 152 154105 (2020);
          URL http://www.quantum-espresso.org", 
     in publications or presentations arising from this work. More details at
     http://www.quantum-espresso.org/quote

     Parallel version (MPI), running on   128 processors

     MPI processes distributed on     1 nodes
     241855 MiB available memory on the printing compute node when the environment starts

     Waiting for input...
     Reading input from standard input

     Current dimensions of program PWSCF are:
     Max number of different atomic species (ntypx) = 10
     Max number of k-points (npk) =  40000
     Max angular momentum in pseudopotentials (lmaxx) =  4
     Found identity + ( -0.5000 -0.5000  0.5000) symmetry
     This is a supercell, fractional translations are disabled

     K-points division:     npool     =       4
     R & G space division:  proc/nbgrp/npool/nimage =      32
     Subspace diagonalization in iterative solution of the eigenvalue problem:
     a serial algorithm will be used


     Parallelization info
     --------------------
     sticks:   dense  smooth     PW     G-vecs:    dense   smooth      PW
     Min          78      78     21                 4228     4228     611
     Max          79      79     22                 4232     4232     616
     Sum        2501    2501    681               135357   135357   19571

     Using Slab Decomposition



     bravais-lattice index     =            6
     lattice parameter (alat)  =       9.3376  a.u.
     unit-cell volume          =    1174.1675 (a.u.)^3
     number of atoms/cell      =           24
     number of atomic types    =            2
     number of electrons       =        64.00
     number of Kohn-Sham states=           32
     kinetic-energy cutoff     =      90.0000  Ry
     charge density cutoff     =     360.0000  Ry
     scf convergence threshold =      1.0E-07
     mixing beta               =       0.7000
     number of iterations used =            8  plain     mixing
     Exchange-correlation=  SLA  PW   PBE  PBE
                           (   1   4   3   4   0   0   0)

     celldm(1)=   9.337597  celldm(2)=   0.000000  celldm(3)=   1.442197
     celldm(4)=   0.000000  celldm(5)=   0.000000  celldm(6)=   0.000000

     crystal axes: (cart. coord. in units of alat)
               a(1) = (   1.000000   0.000000   0.000000 )  
               a(2) = (   0.000000   1.000000   0.000000 )  
               a(3) = (   0.000000   0.000000   1.442197 )  

     reciprocal axes: (cart. coord. in units 2 pi/alat)
               b(1) = (  1.000000  0.000000  0.000000 )  
               b(2) = (  0.000000  1.000000  0.000000 )  
               b(3) = (  0.000000  0.000000  0.693386 )  


     PseudoPot. # 1 for H  read from file:
     ./H.pbe-van_ak.UPF
     MD5 check sum: 077eb6d537518a38cb46c6de387227b7
     Pseudo is Ultrasoft, Zval =  1.0
     Generated by new atomic code, or converted to UPF format
     Using radial grid of  615 points,  1 beta functions with: 
                l(1) =   0
     Q(r) pseudized with  8 coefficients,  rinner =    0.800

     PseudoPot. # 2 for O  read from file:
     ./O.pbe-van_ak.UPF
     MD5 check sum: 78c19812648e8988a0fe644b0f25305e
     Pseudo is Ultrasoft, Zval =  6.0
     Generated by new atomic code, or converted to UPF format
     Using radial grid of  737 points,  4 beta functions with: 
                l(1) =   0
                l(2) =   0
                l(3) =   1
                l(4) =   1
     Q(r) pseudized with  8 coefficients,  rinner =    0.800   0.800   0.800


     atomic species   valence    mass     pseudopotential
     H                 1.00     1.00800     H ( 1.00)
     O                 6.00    16.00000     O ( 1.00)

      4 Sym. Ops., with inversion, found



   Cartesian axes

     site n.     atom                  positions (alat units)
         1        O      tau(   1) = (   0.0000000   0.2500000   0.8766577  )
         2        O      tau(   2) = (   0.0000000   0.7500000   0.5655395  )
         3        O      tau(   3) = (   0.5000000   0.7500000   0.1555590  )
         4        O      tau(   4) = (   0.5000000   0.2500000   1.2866381  )
         5        O      tau(   5) = (   0.0000000   0.7500000   1.2372108  )
         6        O      tau(   6) = (   0.0000000   0.2500000   0.2049863  )
         7        O      tau(   7) = (   0.5000000   0.2500000   0.5161123  )
         8        O      tau(   8) = (   0.5000000   0.7500000   0.9260848  )
         9        H      tau(   9) = (   0.0000000   0.4186701   1.0041518  )
        10        H      tau(  10) = (   0.0000000   0.5813299   0.4380453  )
        11        H      tau(  11) = (   0.5000000   0.5813299   0.2830532  )
        12        H      tau(  12) = (   0.5000000   0.4186701   1.1591439  )
        13        H      tau(  13) = (   0.8313288   0.7500000   1.3647034  )
        14        H      tau(  14) = (   0.1686712   0.2500000   0.0774938  )
        15        H      tau(  15) = (   0.6686712   0.2500000   0.6436049  )
        16        H      tau(  16) = (   0.3313288   0.7500000   0.7985923  )
        17        H      tau(  17) = (   0.6686712   0.7500000   0.7985923  )
        18        H      tau(  18) = (   0.3313288   0.2500000   0.6436049  )
        19        H      tau(  19) = (   0.8313288   0.2500000   0.0774938  )
        20        H      tau(  20) = (   0.1686712   0.7500000   1.3647034  )
        21        H      tau(  21) = (   0.5000000   0.9186701   0.2830532  )
        22        H      tau(  22) = (   0.5000000   0.0813299   1.1591439  )
        23        H      tau(  23) = (   0.0000000   0.0813299   1.0041518  )
        24        H      tau(  24) = (   0.0000000   0.9186701   0.4380454  )

     number of k points=   144

     Number of k-points >= 100: set verbosity='high' to print them.

     Dense  grid:   135357 G-vectors     FFT dimensions: (  60,  60,  81)

     Estimated max dynamical RAM per process >      15.48 MB

     Estimated total dynamical RAM >       1.84 GB

     Initial potential from superposition of free atoms

     starting charge      63.9998, renormalised to      64.0000
     Starting wfcs are   48 randomized atomic wfcs

     total cpu time spent up to now is        1.7 secs

     per-process dynamical memory:    21.8 Mb

     Self-consistent Calculation

     iteration #  1     ecut=    90.00 Ry     beta= 0.70
     Davidson diagonalization with overlap
     ethr =  1.00E-02,  avg # of iterations =  2.0

     total cpu time spent up to now is        3.8 secs

     total energy              =    -274.79468866 Ry
     estimated scf accuracy    <       2.43472024 Ry

     iteration #  2     ecut=    90.00 Ry     beta= 0.70
     Davidson diagonalization with overlap
     ethr =  3.80E-03,  avg # of iterations =  3.0

     total cpu time spent up to now is        6.6 secs

     total energy              =    -275.55537707 Ry
     estimated scf accuracy    <       1.80017446 Ry

     iteration #  3     ecut=    90.00 Ry     beta= 0.70
     Davidson diagonalization with overlap
     ethr =  2.81E-03,  avg # of iterations =  2.0

     total cpu time spent up to now is        8.7 secs

     total energy              =    -275.77061632 Ry
     estimated scf accuracy    <       0.08514993 Ry

     iteration #  4     ecut=    90.00 Ry     beta= 0.70
     Davidson diagonalization with overlap
     ethr =  1.33E-04,  avg # of iterations =  4.0

     total cpu time spent up to now is       11.9 secs

     total energy              =    -275.83957127 Ry
     estimated scf accuracy    <       0.10080866 Ry

     iteration #  5     ecut=    90.00 Ry     beta= 0.70
     Davidson diagonalization with overlap
     ethr =  1.33E-04,  avg # of iterations =  1.3

     total cpu time spent up to now is       13.6 secs

     total energy              =    -275.83843657 Ry
     estimated scf accuracy    <       0.01852498 Ry

     iteration #  6     ecut=    90.00 Ry     beta= 0.70
     Davidson diagonalization with overlap
     ethr =  2.89E-05,  avg # of iterations =  2.0

     total cpu time spent up to now is       15.7 secs

     total energy              =    -275.84238495 Ry
     estimated scf accuracy    <       0.00040239 Ry

     iteration #  7     ecut=    90.00 Ry     beta= 0.70
     Davidson diagonalization with overlap
     ethr =  6.29E-07,  avg # of iterations =  2.7

     total cpu time spent up to now is       18.2 secs

     total energy              =    -275.84264674 Ry
     estimated scf accuracy    <       0.00012309 Ry

     iteration #  8     ecut=    90.00 Ry     beta= 0.70
     Davidson diagonalization with overlap
     ethr =  1.92E-07,  avg # of iterations =  2.2

     total cpu time spent up to now is       20.3 secs

     total energy              =    -275.84257756 Ry
     estimated scf accuracy    <       0.00024225 Ry

     iteration #  9     ecut=    90.00 Ry     beta= 0.70
     Davidson diagonalization with overlap
     ethr =  1.92E-07,  avg # of iterations =  2.0

     total cpu time spent up to now is       22.2 secs

     total energy              =    -275.84258061 Ry
     estimated scf accuracy    <       0.00004151 Ry

     iteration # 10     ecut=    90.00 Ry     beta= 0.70
     Davidson diagonalization with overlap
     ethr =  6.49E-08,  avg # of iterations =  2.0

     total cpu time spent up to now is       24.2 secs

     total energy              =    -275.84257883 Ry
     estimated scf accuracy    <       0.00001142 Ry

     iteration # 11     ecut=    90.00 Ry     beta= 0.70
     Davidson diagonalization with overlap
     ethr =  1.78E-08,  avg # of iterations =  3.0

     total cpu time spent up to now is       26.7 secs

     total energy              =    -275.84258382 Ry
     estimated scf accuracy    <       0.00000101 Ry

     iteration # 12     ecut=    90.00 Ry     beta= 0.70
     Davidson diagonalization with overlap
     ethr =  1.58E-09,  avg # of iterations =  2.1

     total cpu time spent up to now is       28.7 secs

     total energy              =    -275.84258369 Ry
     estimated scf accuracy    <       0.00000075 Ry

     iteration # 13     ecut=    90.00 Ry     beta= 0.70
     Davidson diagonalization with overlap
     ethr =  1.17E-09,  avg # of iterations =  1.8

     total cpu time spent up to now is       30.5 secs

     total energy              =    -275.84258368 Ry
     estimated scf accuracy    <       0.00000014 Ry

     iteration # 14     ecut=    90.00 Ry     beta= 0.70
     Davidson diagonalization with overlap
     ethr =  2.18E-10,  avg # of iterations =  2.3

     total cpu time spent up to now is       32.9 secs

     End of self-consistent calculation

     Number of k-points >= 100: set verbosity='high' to print the bands.

     highest occupied level (ev):    -1.1587

!    total energy              =    -275.84258373 Ry
     estimated scf accuracy    <          5.7E-09 Ry

     The total energy is the sum of the following terms:
     one-electron contribution =    -139.11987499 Ry
     hartree contribution      =      94.76266854 Ry
     xc contribution           =     -66.88050677 Ry
     ewald contribution        =    -164.60487050 Ry

     convergence has been achieved in  14 iterations

     Forces acting on atoms (cartesian axes, Ry/au):

     atom    1 type  2   force =     0.00000000    0.00000010    0.07666102
     atom    2 type  2   force =     0.00000000   -0.00000010   -0.07666102
     atom    3 type  2   force =     0.00000000    0.00000004    0.07679109
     atom    4 type  2   force =     0.00000000   -0.00000004   -0.07679109
     atom    5 type  2   force =     0.00000000    0.00000001    0.07672303
     atom    6 type  2   force =     0.00000000   -0.00000001   -0.07672303
     atom    7 type  2   force =     0.00000000    0.00000006    0.07669322
     atom    8 type  2   force =     0.00000000   -0.00000006   -0.07669322
     atom    9 type  1   force =     0.00000000   -0.05974959   -0.03838416
     atom   10 type  1   force =     0.00000000    0.05974959    0.03838416
     atom   11 type  1   force =     0.00000000    0.05975156   -0.03838049
     atom   12 type  1   force =     0.00000000   -0.05975156    0.03838049
     atom   13 type  1   force =     0.05975457   -0.00000000   -0.03837511
     atom   14 type  1   force =    -0.05975457    0.00000000    0.03837511
     atom   15 type  1   force =    -0.05975417    0.00000000   -0.03838853
     atom   16 type  1   force =     0.05975417   -0.00000000    0.03838853
     atom   17 type  1   force =    -0.05975417   -0.00000000    0.03838853
     atom   18 type  1   force =     0.05975417    0.00000000   -0.03838853
     atom   19 type  1   force =     0.05975457    0.00000000    0.03837511
     atom   20 type  1   force =    -0.05975457   -0.00000000   -0.03837511
     atom   21 type  1   force =     0.00000000   -0.05975161   -0.03838053
     atom   22 type  1   force =     0.00000000    0.05975161    0.03838053
     atom   23 type  1   force =     0.00000000    0.05974945   -0.03838407
     atom   24 type  1   force =     0.00000000   -0.05974945    0.03838407

     Total force =     0.357464     Total SCF correction =     0.000089


     Computing stress (Cartesian axis) and pressure

          total   stress  (Ry/bohr**3)                   (kbar)     P=     -116.75
  -0.00078948   0.00000000   0.00000000         -116.14        0.00        0.00
   0.00000000  -0.00078941  -0.00000000            0.00     -116.13       -0.00
   0.00000000  -0.00000000  -0.00080215            0.00       -0.00     -118.00


     Writing all to output data dir ./iceVIII/iceVIII.save/ :
     XML data file, charge density, pseudopotentials, collected wavefunctions

     init_run     :      1.37s CPU      1.44s WALL (       1 calls)
     electrons    :     30.64s CPU     31.23s WALL (       1 calls)
     forces       :      0.15s CPU      0.16s WALL (       1 calls)
     stress       :      1.90s CPU      1.91s WALL (       1 calls)

     Called by init_run:
     wfcinit      :      0.96s CPU      0.97s WALL (       1 calls)
     potinit      :      0.01s CPU      0.03s WALL (       1 calls)
     hinit0       :      0.34s CPU      0.35s WALL (       1 calls)

     Called by electrons:
     c_bands      :     26.84s CPU     27.36s WALL (      14 calls)
     sum_band     :      3.60s CPU      3.63s WALL (      14 calls)
     v_of_rho     :      0.12s CPU      0.13s WALL (      15 calls)
     newd         :      0.03s CPU      0.03s WALL (      15 calls)
     mix_rho      :      0.03s CPU      0.03s WALL (      14 calls)

     Called by c_bands:
     init_us_2    :      0.40s CPU      0.41s WALL (    1116 calls)
     cegterg      :     25.69s CPU     26.01s WALL (     504 calls)

     Called by *egterg:
     cdiaghg      :      2.74s CPU      2.76s WALL (    1698 calls)
     h_psi        :     19.80s CPU     20.09s WALL (    1734 calls)
     s_psi        :      0.78s CPU      0.79s WALL (    1734 calls)
     g_psi        :      0.06s CPU      0.06s WALL (    1194 calls)

     Called by h_psi:
     h_psi:calbec :      1.10s CPU      1.11s WALL (    1734 calls)
     vloc_psi     :     17.76s CPU     18.02s WALL (    1734 calls)
     add_vuspsi   :      0.83s CPU      0.84s WALL (    1734 calls)

     General routines
     calbec       :      1.55s CPU      1.56s WALL (    2418 calls)
     fft          :      0.38s CPU      0.39s WALL (     173 calls)
     ffts         :      0.01s CPU      0.01s WALL (      14 calls)
     fftw         :     18.97s CPU     19.23s WALL (  109854 calls)

     Parallel routines

     PWSCF        :     34.86s CPU     36.25s WALL


   This run was terminated on:  19:44: 0  24Mar2026            

=------------------------------------------------------------------------------=
   JOB DONE.
=------------------------------------------------------------------------------=
