
     Program PWSCF v.7.3.1 starts on 21Mar2026 at 21:21:18 

     This program is part of the open-source Quantum ESPRESSO suite
     for quantum simulation of materials; please cite
         "P. Giannozzi et al., J. Phys.:Condens. Matter 21 395502 (2009);
         "P. Giannozzi et al., J. Phys.:Condens. Matter 29 465901 (2017);
         "P. Giannozzi et al., J. Chem. Phys. 152 154105 (2020);
          URL http://www.quantum-espresso.org", 
     in publications or presentations arising from this work. More details at
     http://www.quantum-espresso.org/quote

     Parallel version (MPI), running on   128 processors

     MPI processes distributed on     1 nodes
     241959 MiB available memory on the printing compute node when the environment starts

     Waiting for input...
     Reading input from standard input

     Current dimensions of program PWSCF are:
     Max number of different atomic species (ntypx) = 10
     Max number of k-points (npk) =  40000
     Max angular momentum in pseudopotentials (lmaxx) =  4
     Found identity + ( -0.5000 -0.5000  0.5000) symmetry
     This is a supercell, fractional translations are disabled

     K-points division:     npool     =       4
     R & G space division:  proc/nbgrp/npool/nimage =      32
     Subspace diagonalization in iterative solution of the eigenvalue problem:
     a serial algorithm will be used


     Parallelization info
     --------------------
     sticks:   dense  smooth     PW     G-vecs:    dense   smooth      PW
     Min          78      78     21                 4254     4254     613
     Max          79      79     22                 4259     4259     620
     Sum        2509    2509    681               136197   136197   19643

     Using Slab Decomposition



     bravais-lattice index     =            6
     lattice parameter (alat)  =       9.3553  a.u.
     unit-cell volume          =    1180.8770 (a.u.)^3
     number of atoms/cell      =           24
     number of atomic types    =            2
     number of electrons       =        64.00
     number of Kohn-Sham states=           32
     kinetic-energy cutoff     =      90.0000  Ry
     charge density cutoff     =     360.0000  Ry
     scf convergence threshold =      1.0E-07
     mixing beta               =       0.7000
     number of iterations used =            8  plain     mixing
     Exchange-correlation=  SLA  PW   PBE  PBE
                           (   1   4   3   4   0   0   0)

     celldm(1)=   9.355349  celldm(2)=   0.000000  celldm(3)=   1.442197
     celldm(4)=   0.000000  celldm(5)=   0.000000  celldm(6)=   0.000000

     crystal axes: (cart. coord. in units of alat)
               a(1) = (   1.000000   0.000000   0.000000 )  
               a(2) = (   0.000000   1.000000   0.000000 )  
               a(3) = (   0.000000   0.000000   1.442197 )  

     reciprocal axes: (cart. coord. in units 2 pi/alat)
               b(1) = (  1.000000  0.000000  0.000000 )  
               b(2) = (  0.000000  1.000000  0.000000 )  
               b(3) = (  0.000000  0.000000  0.693386 )  


     PseudoPot. # 1 for H  read from file:
     ./H.pbe-van_ak.UPF
     MD5 check sum: 077eb6d537518a38cb46c6de387227b7
     Pseudo is Ultrasoft, Zval =  1.0
     Generated by new atomic code, or converted to UPF format
     Using radial grid of  615 points,  1 beta functions with: 
                l(1) =   0
     Q(r) pseudized with  8 coefficients,  rinner =    0.800

     PseudoPot. # 2 for O  read from file:
     ./O.pbe-van_ak.UPF
     MD5 check sum: 78c19812648e8988a0fe644b0f25305e
     Pseudo is Ultrasoft, Zval =  6.0
     Generated by new atomic code, or converted to UPF format
     Using radial grid of  737 points,  4 beta functions with: 
                l(1) =   0
                l(2) =   0
                l(3) =   1
                l(4) =   1
     Q(r) pseudized with  8 coefficients,  rinner =    0.800   0.800   0.800


     atomic species   valence    mass     pseudopotential
     H                 1.00     1.00800     H ( 1.00)
     O                 6.00    16.00000     O ( 1.00)

      4 Sym. Ops., with inversion, found



   Cartesian axes

     site n.     atom                  positions (alat units)
         1        O      tau(   1) = (   0.0000000   0.2500000   0.8781106  )
         2        O      tau(   2) = (   0.0000000   0.7500000   0.5640866  )
         3        O      tau(   3) = (   0.5000000   0.7500000   0.1570120  )
         4        O      tau(   4) = (   0.5000000   0.2500000   1.2851851  )
         5        O      tau(   5) = (   0.0000000   0.7500000   1.2386599  )
         6        O      tau(   6) = (   0.0000000   0.2500000   0.2035373  )
         7        O      tau(   7) = (   0.5000000   0.2500000   0.5175613  )
         8        O      tau(   8) = (   0.5000000   0.7500000   0.9246358  )
         9        H      tau(   9) = (   0.0000000   0.4142500   1.0027885  )
        10        H      tau(  10) = (   0.0000000   0.5857500   0.4394086  )
        11        H      tau(  11) = (   0.5000000   0.5857500   0.2816900  )
        12        H      tau(  12) = (   0.5000000   0.4142500   1.1605072  )
        13        H      tau(  13) = (   0.8357500   0.7500000   1.3633378  )
        14        H      tau(  14) = (   0.1642500   0.2500000   0.0788593  )
        15        H      tau(  15) = (   0.6642500   0.2500000   0.6422392  )
        16        H      tau(  16) = (   0.3357500   0.7500000   0.7999579  )
        17        H      tau(  17) = (   0.6642500   0.7500000   0.7999579  )
        18        H      tau(  18) = (   0.3357500   0.2500000   0.6422392  )
        19        H      tau(  19) = (   0.8357500   0.2500000   0.0788593  )
        20        H      tau(  20) = (   0.1642500   0.7500000   1.3633378  )
        21        H      tau(  21) = (   0.5000000   0.9142500   0.2816900  )
        22        H      tau(  22) = (   0.5000000   0.0857500   1.1605072  )
        23        H      tau(  23) = (   0.0000000   0.0857500   1.0027885  )
        24        H      tau(  24) = (   0.0000000   0.9142500   0.4394086  )

     number of k points=   144

     Number of k-points >= 100: set verbosity='high' to print them.

     Dense  grid:   136197 G-vectors     FFT dimensions: (  60,  60,  81)

     Estimated max dynamical RAM per process >      15.56 MB

     Estimated total dynamical RAM >       1.85 GB

     Initial potential from superposition of free atoms

     starting charge      63.9998, renormalised to      64.0000
     Starting wfcs are   48 randomized atomic wfcs

     total cpu time spent up to now is        1.7 secs

     per-process dynamical memory:    22.0 Mb

     Self-consistent Calculation

     iteration #  1     ecut=    90.00 Ry     beta= 0.70
     Davidson diagonalization with overlap
     ethr =  1.00E-02,  avg # of iterations =  2.0

     total cpu time spent up to now is        3.8 secs

     total energy              =    -274.79411405 Ry
     estimated scf accuracy    <       2.55687226 Ry

     iteration #  2     ecut=    90.00 Ry     beta= 0.70
     Davidson diagonalization with overlap
     ethr =  4.00E-03,  avg # of iterations =  3.0

     total cpu time spent up to now is        6.6 secs

     total energy              =    -275.59200282 Ry
     estimated scf accuracy    <       1.81710746 Ry

     iteration #  3     ecut=    90.00 Ry     beta= 0.70
     Davidson diagonalization with overlap
     ethr =  2.84E-03,  avg # of iterations =  2.0

     total cpu time spent up to now is        8.7 secs

     total energy              =    -275.81357521 Ry
     estimated scf accuracy    <       0.08247943 Ry

     iteration #  4     ecut=    90.00 Ry     beta= 0.70
     Davidson diagonalization with overlap
     ethr =  1.29E-04,  avg # of iterations =  4.0

     total cpu time spent up to now is       11.8 secs

     total energy              =    -275.88123434 Ry
     estimated scf accuracy    <       0.10298669 Ry

     iteration #  5     ecut=    90.00 Ry     beta= 0.70
     Davidson diagonalization with overlap
     ethr =  1.29E-04,  avg # of iterations =  1.8

     total cpu time spent up to now is       13.6 secs

     total energy              =    -275.88020614 Ry
     estimated scf accuracy    <       0.01875452 Ry

     iteration #  6     ecut=    90.00 Ry     beta= 0.70
     Davidson diagonalization with overlap
     ethr =  2.93E-05,  avg # of iterations =  2.0

     total cpu time spent up to now is       15.8 secs

     total energy              =    -275.88400080 Ry
     estimated scf accuracy    <       0.00055002 Ry

     iteration #  7     ecut=    90.00 Ry     beta= 0.70
     Davidson diagonalization with overlap
     ethr =  8.59E-07,  avg # of iterations =  3.1

     total cpu time spent up to now is       18.3 secs

     total energy              =    -275.88432993 Ry
     estimated scf accuracy    <       0.00010534 Ry

     iteration #  8     ecut=    90.00 Ry     beta= 0.70
     Davidson diagonalization with overlap
     ethr =  1.65E-07,  avg # of iterations =  3.0

     total cpu time spent up to now is       20.8 secs

     total energy              =    -275.88424668 Ry
     estimated scf accuracy    <       0.00031507 Ry

     iteration #  9     ecut=    90.00 Ry     beta= 0.70
     Davidson diagonalization with overlap
     ethr =  1.65E-07,  avg # of iterations =  2.0

     total cpu time spent up to now is       23.1 secs

     total energy              =    -275.88425283 Ry
     estimated scf accuracy    <       0.00005509 Ry

     iteration # 10     ecut=    90.00 Ry     beta= 0.70
     Davidson diagonalization with overlap
     ethr =  8.61E-08,  avg # of iterations =  2.0

     total cpu time spent up to now is       25.1 secs

     total energy              =    -275.88425541 Ry
     estimated scf accuracy    <       0.00000967 Ry

     iteration # 11     ecut=    90.00 Ry     beta= 0.70
     Davidson diagonalization with overlap
     ethr =  1.51E-08,  avg # of iterations =  3.1

     total cpu time spent up to now is       27.8 secs

     total energy              =    -275.88426053 Ry
     estimated scf accuracy    <       0.00000111 Ry

     iteration # 12     ecut=    90.00 Ry     beta= 0.70
     Davidson diagonalization with overlap
     ethr =  1.74E-09,  avg # of iterations =  3.0

     total cpu time spent up to now is       30.0 secs

     total energy              =    -275.88426028 Ry
     estimated scf accuracy    <       0.00000135 Ry

     iteration # 13     ecut=    90.00 Ry     beta= 0.70
     Davidson diagonalization with overlap
     ethr =  1.74E-09,  avg # of iterations =  1.1

     total cpu time spent up to now is       31.6 secs

     total energy              =    -275.88426021 Ry
     estimated scf accuracy    <       0.00000036 Ry

     iteration # 14     ecut=    90.00 Ry     beta= 0.70
     Davidson diagonalization with overlap
     ethr =  5.65E-10,  avg # of iterations =  2.0

     total cpu time spent up to now is       33.7 secs

     End of self-consistent calculation

     Number of k-points >= 100: set verbosity='high' to print the bands.

     highest occupied level (ev):    -1.2380

!    total energy              =    -275.88426029 Ry
     estimated scf accuracy    <          2.6E-09 Ry

     The total energy is the sum of the following terms:
     one-electron contribution =    -142.56460336 Ry
     hartree contribution      =      96.26153933 Ry
     xc contribution           =     -67.15359758 Ry
     ewald contribution        =    -162.42759868 Ry

     convergence has been achieved in  14 iterations

     Forces acting on atoms (cartesian axes, Ry/au):

     atom    1 type  2   force =     0.00000000    0.00000000    0.04906557
     atom    2 type  2   force =     0.00000000   -0.00000000   -0.04906557
     atom    3 type  2   force =     0.00000000    0.00000000    0.04911135
     atom    4 type  2   force =     0.00000000   -0.00000000   -0.04911135
     atom    5 type  2   force =     0.00000000    0.00000002    0.04911500
     atom    6 type  2   force =     0.00000000   -0.00000002   -0.04911500
     atom    7 type  2   force =     0.00000000    0.00000000    0.04906315
     atom    8 type  2   force =     0.00000000   -0.00000000   -0.04906315
     atom    9 type  1   force =     0.00000000   -0.03784818   -0.02480264
     atom   10 type  1   force =     0.00000000    0.03784818    0.02480264
     atom   11 type  1   force =     0.00000000    0.03784846   -0.02479440
     atom   12 type  1   force =     0.00000000   -0.03784846    0.02479440
     atom   13 type  1   force =     0.03784759    0.00000000   -0.02478963
     atom   14 type  1   force =    -0.03784759   -0.00000000    0.02478963
     atom   15 type  1   force =    -0.03784839   -0.00000000   -0.02480639
     atom   16 type  1   force =     0.03784839    0.00000000    0.02480639
     atom   17 type  1   force =    -0.03784839    0.00000000    0.02480639
     atom   18 type  1   force =     0.03784839   -0.00000000   -0.02480639
     atom   19 type  1   force =     0.03784759   -0.00000000    0.02478963
     atom   20 type  1   force =    -0.03784759    0.00000000   -0.02478963
     atom   21 type  1   force =     0.00000000   -0.03784846   -0.02479441
     atom   22 type  1   force =     0.00000000    0.03784846    0.02479441
     atom   23 type  1   force =     0.00000000    0.03784818   -0.02480264
     atom   24 type  1   force =     0.00000000   -0.03784818    0.02480264

     Total force =     0.228115     Total SCF correction =     0.000031


     Computing stress (Cartesian axis) and pressure

          total   stress  (Ry/bohr**3)                   (kbar)     P=      -76.26
  -0.00051488   0.00000000   0.00000000          -75.74        0.00        0.00
   0.00000000  -0.00051488   0.00000000            0.00      -75.74        0.00
   0.00000000   0.00000000  -0.00052541            0.00        0.00      -77.29


     Writing all to output data dir ./iceVIII/iceVIII.save/ :
     XML data file, charge density, pseudopotentials, collected wavefunctions

     init_run     :      1.39s CPU      1.42s WALL (       1 calls)
     electrons    :     31.39s CPU     32.11s WALL (       1 calls)
     forces       :      0.14s CPU      0.16s WALL (       1 calls)
     stress       :      1.92s CPU      1.93s WALL (       1 calls)

     Called by init_run:
     wfcinit      :      0.95s CPU      0.97s WALL (       1 calls)
     potinit      :      0.03s CPU      0.04s WALL (       1 calls)
     hinit0       :      0.34s CPU      0.34s WALL (       1 calls)

     Called by electrons:
     c_bands      :     27.62s CPU     28.22s WALL (      14 calls)
     sum_band     :      3.59s CPU      3.64s WALL (      14 calls)
     v_of_rho     :      0.13s CPU      0.13s WALL (      15 calls)
     newd         :      0.02s CPU      0.03s WALL (      15 calls)
     mix_rho      :      0.03s CPU      0.03s WALL (      14 calls)

     Called by c_bands:
     init_us_2    :      0.40s CPU      0.42s WALL (    1116 calls)
     cegterg      :     26.51s CPU     26.84s WALL (     504 calls)

     Called by *egterg:
     cdiaghg      :      2.85s CPU      2.87s WALL (    1733 calls)
     h_psi        :     20.41s CPU     20.71s WALL (    1769 calls)
     s_psi        :      0.81s CPU      0.82s WALL (    1769 calls)
     g_psi        :      0.07s CPU      0.07s WALL (    1229 calls)

     Called by h_psi:
     h_psi:calbec :      1.14s CPU      1.15s WALL (    1769 calls)
     vloc_psi     :     18.30s CPU     18.57s WALL (    1769 calls)
     add_vuspsi   :      0.86s CPU      0.87s WALL (    1769 calls)

     General routines
     calbec       :      1.58s CPU      1.60s WALL (    2453 calls)
     fft          :      0.38s CPU      0.39s WALL (     173 calls)
     ffts         :      0.01s CPU      0.01s WALL (      14 calls)
     fftw         :     19.43s CPU     19.71s WALL (  113408 calls)

     Parallel routines

     PWSCF        :     35.68s CPU     37.46s WALL


   This run was terminated on:  21:21:56  21Mar2026            

=------------------------------------------------------------------------------=
   JOB DONE.
=------------------------------------------------------------------------------=
