
     Program PWSCF v.7.3.1 starts on 21Mar2026 at 21:24:23 

     This program is part of the open-source Quantum ESPRESSO suite
     for quantum simulation of materials; please cite
         "P. Giannozzi et al., J. Phys.:Condens. Matter 21 395502 (2009);
         "P. Giannozzi et al., J. Phys.:Condens. Matter 29 465901 (2017);
         "P. Giannozzi et al., J. Chem. Phys. 152 154105 (2020);
          URL http://www.quantum-espresso.org", 
     in publications or presentations arising from this work. More details at
     http://www.quantum-espresso.org/quote

     Parallel version (MPI), running on   128 processors

     MPI processes distributed on     1 nodes
     241939 MiB available memory on the printing compute node when the environment starts

     Waiting for input...
     Reading input from standard input

     Current dimensions of program PWSCF are:
     Max number of different atomic species (ntypx) = 10
     Max number of k-points (npk) =  40000
     Max angular momentum in pseudopotentials (lmaxx) =  4
     Found identity + ( -0.5000 -0.5000  0.5000) symmetry
     This is a supercell, fractional translations are disabled

     K-points division:     npool     =       4
     R & G space division:  proc/nbgrp/npool/nimage =      32
     Subspace diagonalization in iterative solution of the eigenvalue problem:
     a serial algorithm will be used


     Parallelization info
     --------------------
     sticks:   dense  smooth     PW     G-vecs:    dense   smooth      PW
     Min          78      78     21                 4278     4278     615
     Max          80      80     22                 4283     4283     624
     Sum        2529    2529    681               136953   136953   19739

     Using Slab Decomposition



     bravais-lattice index     =            6
     lattice parameter (alat)  =       9.3731  a.u.
     unit-cell volume          =    1187.6120 (a.u.)^3
     number of atoms/cell      =           24
     number of atomic types    =            2
     number of electrons       =        64.00
     number of Kohn-Sham states=           32
     kinetic-energy cutoff     =      90.0000  Ry
     charge density cutoff     =     360.0000  Ry
     scf convergence threshold =      1.0E-07
     mixing beta               =       0.7000
     number of iterations used =            8  plain     mixing
     Exchange-correlation=  SLA  PW   PBE  PBE
                           (   1   4   3   4   0   0   0)

     celldm(1)=   9.373101  celldm(2)=   0.000000  celldm(3)=   1.442197
     celldm(4)=   0.000000  celldm(5)=   0.000000  celldm(6)=   0.000000

     crystal axes: (cart. coord. in units of alat)
               a(1) = (   1.000000   0.000000   0.000000 )  
               a(2) = (   0.000000   1.000000   0.000000 )  
               a(3) = (   0.000000   0.000000   1.442197 )  

     reciprocal axes: (cart. coord. in units 2 pi/alat)
               b(1) = (  1.000000  0.000000  0.000000 )  
               b(2) = (  0.000000  1.000000  0.000000 )  
               b(3) = (  0.000000  0.000000  0.693386 )  


     PseudoPot. # 1 for H  read from file:
     ./H.pbe-van_ak.UPF
     MD5 check sum: 077eb6d537518a38cb46c6de387227b7
     Pseudo is Ultrasoft, Zval =  1.0
     Generated by new atomic code, or converted to UPF format
     Using radial grid of  615 points,  1 beta functions with: 
                l(1) =   0
     Q(r) pseudized with  8 coefficients,  rinner =    0.800

     PseudoPot. # 2 for O  read from file:
     ./O.pbe-van_ak.UPF
     MD5 check sum: 78c19812648e8988a0fe644b0f25305e
     Pseudo is Ultrasoft, Zval =  6.0
     Generated by new atomic code, or converted to UPF format
     Using radial grid of  737 points,  4 beta functions with: 
                l(1) =   0
                l(2) =   0
                l(3) =   1
                l(4) =   1
     Q(r) pseudized with  8 coefficients,  rinner =    0.800   0.800   0.800


     atomic species   valence    mass     pseudopotential
     H                 1.00     1.00800     H ( 1.00)
     O                 6.00    16.00000     O ( 1.00)

      4 Sym. Ops., with inversion, found



   Cartesian axes

     site n.     atom                  positions (alat units)
         1        O      tau(   1) = (   0.0000000   0.2500000   0.8781106  )
         2        O      tau(   2) = (   0.0000000   0.7500000   0.5640866  )
         3        O      tau(   3) = (   0.5000000   0.7500000   0.1570120  )
         4        O      tau(   4) = (   0.5000000   0.2500000   1.2851851  )
         5        O      tau(   5) = (   0.0000000   0.7500000   1.2386599  )
         6        O      tau(   6) = (   0.0000000   0.2500000   0.2035373  )
         7        O      tau(   7) = (   0.5000000   0.2500000   0.5175613  )
         8        O      tau(   8) = (   0.5000000   0.7500000   0.9246358  )
         9        H      tau(   9) = (   0.0000000   0.4142500   1.0027885  )
        10        H      tau(  10) = (   0.0000000   0.5857500   0.4394086  )
        11        H      tau(  11) = (   0.5000000   0.5857500   0.2816900  )
        12        H      tau(  12) = (   0.5000000   0.4142500   1.1605072  )
        13        H      tau(  13) = (   0.8357500   0.7500000   1.3633378  )
        14        H      tau(  14) = (   0.1642500   0.2500000   0.0788593  )
        15        H      tau(  15) = (   0.6642500   0.2500000   0.6422392  )
        16        H      tau(  16) = (   0.3357500   0.7500000   0.7999579  )
        17        H      tau(  17) = (   0.6642500   0.7500000   0.7999579  )
        18        H      tau(  18) = (   0.3357500   0.2500000   0.6422392  )
        19        H      tau(  19) = (   0.8357500   0.2500000   0.0788593  )
        20        H      tau(  20) = (   0.1642500   0.7500000   1.3633378  )
        21        H      tau(  21) = (   0.5000000   0.9142500   0.2816900  )
        22        H      tau(  22) = (   0.5000000   0.0857500   1.1605072  )
        23        H      tau(  23) = (   0.0000000   0.0857500   1.0027885  )
        24        H      tau(  24) = (   0.0000000   0.9142500   0.4394086  )

     number of k points=   144

     Number of k-points >= 100: set verbosity='high' to print them.

     Dense  grid:   136953 G-vectors     FFT dimensions: (  60,  60,  81)

     Estimated max dynamical RAM per process >      15.63 MB

     Estimated total dynamical RAM >       1.86 GB

     Initial potential from superposition of free atoms

     starting charge      63.9998, renormalised to      64.0000
     Starting wfcs are   48 randomized atomic wfcs

     total cpu time spent up to now is        1.7 secs

     per-process dynamical memory:    22.1 Mb

     Self-consistent Calculation

     iteration #  1     ecut=    90.00 Ry     beta= 0.70
     Davidson diagonalization with overlap
     ethr =  1.00E-02,  avg # of iterations =  2.0

     total cpu time spent up to now is        3.9 secs

     total energy              =    -274.78995230 Ry
     estimated scf accuracy    <       2.55443450 Ry

     iteration #  2     ecut=    90.00 Ry     beta= 0.70
     Davidson diagonalization with overlap
     ethr =  3.99E-03,  avg # of iterations =  3.0

     total cpu time spent up to now is        6.6 secs

     total energy              =    -275.58664192 Ry
     estimated scf accuracy    <       1.83014482 Ry

     iteration #  3     ecut=    90.00 Ry     beta= 0.70
     Davidson diagonalization with overlap
     ethr =  2.86E-03,  avg # of iterations =  2.0

     total cpu time spent up to now is        8.7 secs

     total energy              =    -275.80935740 Ry
     estimated scf accuracy    <       0.08348964 Ry

     iteration #  4     ecut=    90.00 Ry     beta= 0.70
     Davidson diagonalization with overlap
     ethr =  1.30E-04,  avg # of iterations =  4.0

     total cpu time spent up to now is       11.9 secs

     total energy              =    -275.87786751 Ry
     estimated scf accuracy    <       0.10395615 Ry

     iteration #  5     ecut=    90.00 Ry     beta= 0.70
     Davidson diagonalization with overlap
     ethr =  1.30E-04,  avg # of iterations =  1.7

     total cpu time spent up to now is       13.6 secs

     total energy              =    -275.87680455 Ry
     estimated scf accuracy    <       0.01898987 Ry

     iteration #  6     ecut=    90.00 Ry     beta= 0.70
     Davidson diagonalization with overlap
     ethr =  2.97E-05,  avg # of iterations =  2.0

     total cpu time spent up to now is       15.7 secs

     total energy              =    -275.88064132 Ry
     estimated scf accuracy    <       0.00055824 Ry

     iteration #  7     ecut=    90.00 Ry     beta= 0.70
     Davidson diagonalization with overlap
     ethr =  8.72E-07,  avg # of iterations =  3.0

     total cpu time spent up to now is       18.2 secs

     total energy              =    -275.88096780 Ry
     estimated scf accuracy    <       0.00010449 Ry

     iteration #  8     ecut=    90.00 Ry     beta= 0.70
     Davidson diagonalization with overlap
     ethr =  1.63E-07,  avg # of iterations =  3.0

     total cpu time spent up to now is       20.8 secs

     total energy              =    -275.88088745 Ry
     estimated scf accuracy    <       0.00030835 Ry

     iteration #  9     ecut=    90.00 Ry     beta= 0.70
     Davidson diagonalization with overlap
     ethr =  1.63E-07,  avg # of iterations =  2.0

     total cpu time spent up to now is       23.1 secs

     total energy              =    -275.88089065 Ry
     estimated scf accuracy    <       0.00005413 Ry

     iteration # 10     ecut=    90.00 Ry     beta= 0.70
     Davidson diagonalization with overlap
     ethr =  8.46E-08,  avg # of iterations =  2.0

     total cpu time spent up to now is       25.1 secs

     total energy              =    -275.88089593 Ry
     estimated scf accuracy    <       0.00000622 Ry

     iteration # 11     ecut=    90.00 Ry     beta= 0.70
     Davidson diagonalization with overlap
     ethr =  9.72E-09,  avg # of iterations =  4.9

     total cpu time spent up to now is       28.3 secs

     total energy              =    -275.88090071 Ry
     estimated scf accuracy    <       0.00000410 Ry

     iteration # 12     ecut=    90.00 Ry     beta= 0.70
     Davidson diagonalization with overlap
     ethr =  6.40E-09,  avg # of iterations =  1.0

     total cpu time spent up to now is       29.9 secs

     total energy              =    -275.88089993 Ry
     estimated scf accuracy    <       0.00000200 Ry

     iteration # 13     ecut=    90.00 Ry     beta= 0.70
     Davidson diagonalization with overlap
     ethr =  3.13E-09,  avg # of iterations =  2.0

     total cpu time spent up to now is       32.1 secs

     End of self-consistent calculation

     Number of k-points >= 100: set verbosity='high' to print the bands.

     highest occupied level (ev):    -1.2700

!    total energy              =    -275.88090034 Ry
     estimated scf accuracy    <          8.6E-09 Ry

     The total energy is the sum of the following terms:
     one-electron contribution =    -143.09992759 Ry
     hartree contribution      =      96.46059682 Ry
     xc contribution           =     -67.12159892 Ry
     ewald contribution        =    -162.11997065 Ry

     convergence has been achieved in  13 iterations

     Forces acting on atoms (cartesian axes, Ry/au):

     atom    1 type  2   force =     0.00000000    0.00000000    0.05183134
     atom    2 type  2   force =     0.00000000   -0.00000000   -0.05183134
     atom    3 type  2   force =    -0.00000000   -0.00000001    0.05192018
     atom    4 type  2   force =    -0.00000000    0.00000001   -0.05192018
     atom    5 type  2   force =     0.00000000   -0.00000002    0.05191428
     atom    6 type  2   force =     0.00000000    0.00000002   -0.05191428
     atom    7 type  2   force =     0.00000000   -0.00000003    0.05184001
     atom    8 type  2   force =     0.00000000    0.00000003   -0.05184001
     atom    9 type  1   force =     0.00000000   -0.04006207   -0.02625146
     atom   10 type  1   force =     0.00000000    0.04006207    0.02625146
     atom   11 type  1   force =     0.00000000    0.04006128   -0.02623997
     atom   12 type  1   force =     0.00000000   -0.04006128    0.02623997
     atom   13 type  1   force =     0.04006119   -0.00000000   -0.02623593
     atom   14 type  1   force =    -0.04006119    0.00000000    0.02623593
     atom   15 type  1   force =    -0.04006185   -0.00000001   -0.02625448
     atom   16 type  1   force =     0.04006185    0.00000001    0.02625448
     atom   17 type  1   force =    -0.04006185    0.00000001    0.02625448
     atom   18 type  1   force =     0.04006185   -0.00000001   -0.02625448
     atom   19 type  1   force =     0.04006119    0.00000000    0.02623593
     atom   20 type  1   force =    -0.04006119   -0.00000000   -0.02623593
     atom   21 type  1   force =     0.00000000   -0.04006128   -0.02623997
     atom   22 type  1   force =     0.00000000    0.04006128    0.02623997
     atom   23 type  1   force =     0.00000000    0.04006207   -0.02625146
     atom   24 type  1   force =     0.00000000   -0.04006207    0.02625146

     Total force =     0.241308     Total SCF correction =     0.000025


     Computing stress (Cartesian axis) and pressure

          total   stress  (Ry/bohr**3)                   (kbar)     P=      -80.25
  -0.00054182   0.00000000   0.00000000          -79.71        0.00        0.00
   0.00000000  -0.00054181   0.00000000            0.00      -79.70        0.00
   0.00000000   0.00000000  -0.00055297            0.00        0.00      -81.35


     Writing all to output data dir ./iceVIII/iceVIII.save/ :
     XML data file, charge density, pseudopotentials, collected wavefunctions

     init_run     :      1.36s CPU      1.44s WALL (       1 calls)
     electrons    :     29.79s CPU     30.44s WALL (       1 calls)
     forces       :      0.16s CPU      0.17s WALL (       1 calls)
     stress       :      1.90s CPU      1.93s WALL (       1 calls)

     Called by init_run:
     wfcinit      :      0.95s CPU      0.98s WALL (       1 calls)
     potinit      :      0.02s CPU      0.03s WALL (       1 calls)
     hinit0       :      0.33s CPU      0.35s WALL (       1 calls)

     Called by electrons:
     c_bands      :     26.29s CPU     26.83s WALL (      13 calls)
     sum_band     :      3.32s CPU      3.36s WALL (      13 calls)
     v_of_rho     :      0.11s CPU      0.12s WALL (      14 calls)
     newd         :      0.02s CPU      0.03s WALL (      14 calls)
     mix_rho      :      0.03s CPU      0.03s WALL (      13 calls)

     Called by c_bands:
     init_us_2    :      0.39s CPU      0.40s WALL (    1044 calls)
     cegterg      :     25.34s CPU     25.66s WALL (     468 calls)

     Called by *egterg:
     cdiaghg      :      2.75s CPU      2.76s WALL (    1642 calls)
     h_psi        :     19.50s CPU     19.78s WALL (    1678 calls)
     s_psi        :      0.77s CPU      0.78s WALL (    1678 calls)
     g_psi        :      0.07s CPU      0.07s WALL (    1174 calls)

     Called by h_psi:
     h_psi:calbec :      1.10s CPU      1.12s WALL (    1678 calls)
     vloc_psi     :     17.48s CPU     17.74s WALL (    1678 calls)
     add_vuspsi   :      0.81s CPU      0.82s WALL (    1678 calls)

     General routines
     calbec       :      1.54s CPU      1.56s WALL (    2326 calls)
     fft          :      0.37s CPU      0.38s WALL (     162 calls)
     ffts         :      0.01s CPU      0.01s WALL (      13 calls)
     fftw         :     18.51s CPU     18.78s WALL (  107528 calls)

     Parallel routines

     PWSCF        :     34.08s CPU     35.63s WALL


   This run was terminated on:  21:24:59  21Mar2026            

=------------------------------------------------------------------------------=
   JOB DONE.
=------------------------------------------------------------------------------=
