
     Program PWSCF v.7.3.1 starts on 21Mar2026 at 21:33:49 

     This program is part of the open-source Quantum ESPRESSO suite
     for quantum simulation of materials; please cite
         "P. Giannozzi et al., J. Phys.:Condens. Matter 21 395502 (2009);
         "P. Giannozzi et al., J. Phys.:Condens. Matter 29 465901 (2017);
         "P. Giannozzi et al., J. Chem. Phys. 152 154105 (2020);
          URL http://www.quantum-espresso.org", 
     in publications or presentations arising from this work. More details at
     http://www.quantum-espresso.org/quote

     Parallel version (MPI), running on   128 processors

     MPI processes distributed on     1 nodes
     241890 MiB available memory on the printing compute node when the environment starts

     Waiting for input...
     Reading input from standard input

     Current dimensions of program PWSCF are:
     Max number of different atomic species (ntypx) = 10
     Max number of k-points (npk) =  40000
     Max angular momentum in pseudopotentials (lmaxx) =  4
     Found identity + ( -0.5000 -0.5000  0.5000) symmetry
     This is a supercell, fractional translations are disabled

     K-points division:     npool     =       4
     R & G space division:  proc/nbgrp/npool/nimage =      32
     Subspace diagonalization in iterative solution of the eigenvalue problem:
     a serial algorithm will be used


     Parallelization info
     --------------------
     sticks:   dense  smooth     PW     G-vecs:    dense   smooth      PW
     Min          80      80     21                 4354     4354     623
     Max          81      81     22                 4360     4360     630
     Sum        2561    2561    697               139419   139419   20059

     Using Slab Decomposition



     bravais-lattice index     =            6
     lattice parameter (alat)  =       9.4264  a.u.
     unit-cell volume          =    1207.9706 (a.u.)^3
     number of atoms/cell      =           24
     number of atomic types    =            2
     number of electrons       =        64.00
     number of Kohn-Sham states=           32
     kinetic-energy cutoff     =      90.0000  Ry
     charge density cutoff     =     360.0000  Ry
     scf convergence threshold =      1.0E-07
     mixing beta               =       0.7000
     number of iterations used =            8  plain     mixing
     Exchange-correlation=  SLA  PW   PBE  PBE
                           (   1   4   3   4   0   0   0)

     celldm(1)=   9.426358  celldm(2)=   0.000000  celldm(3)=   1.442197
     celldm(4)=   0.000000  celldm(5)=   0.000000  celldm(6)=   0.000000

     crystal axes: (cart. coord. in units of alat)
               a(1) = (   1.000000   0.000000   0.000000 )  
               a(2) = (   0.000000   1.000000   0.000000 )  
               a(3) = (   0.000000   0.000000   1.442197 )  

     reciprocal axes: (cart. coord. in units 2 pi/alat)
               b(1) = (  1.000000  0.000000  0.000000 )  
               b(2) = (  0.000000  1.000000  0.000000 )  
               b(3) = (  0.000000  0.000000  0.693386 )  


     PseudoPot. # 1 for H  read from file:
     ./H.pbe-van_ak.UPF
     MD5 check sum: 077eb6d537518a38cb46c6de387227b7
     Pseudo is Ultrasoft, Zval =  1.0
     Generated by new atomic code, or converted to UPF format
     Using radial grid of  615 points,  1 beta functions with: 
                l(1) =   0
     Q(r) pseudized with  8 coefficients,  rinner =    0.800

     PseudoPot. # 2 for O  read from file:
     ./O.pbe-van_ak.UPF
     MD5 check sum: 78c19812648e8988a0fe644b0f25305e
     Pseudo is Ultrasoft, Zval =  6.0
     Generated by new atomic code, or converted to UPF format
     Using radial grid of  737 points,  4 beta functions with: 
                l(1) =   0
                l(2) =   0
                l(3) =   1
                l(4) =   1
     Q(r) pseudized with  8 coefficients,  rinner =    0.800   0.800   0.800


     atomic species   valence    mass     pseudopotential
     H                 1.00     1.00800     H ( 1.00)
     O                 6.00    16.00000     O ( 1.00)

      4 Sym. Ops., with inversion, found



   Cartesian axes

     site n.     atom                  positions (alat units)
         1        O      tau(   1) = (   0.0000000   0.2500000   0.8781106  )
         2        O      tau(   2) = (   0.0000000   0.7500000   0.5640866  )
         3        O      tau(   3) = (   0.5000000   0.7500000   0.1570120  )
         4        O      tau(   4) = (   0.5000000   0.2500000   1.2851851  )
         5        O      tau(   5) = (   0.0000000   0.7500000   1.2386599  )
         6        O      tau(   6) = (   0.0000000   0.2500000   0.2035373  )
         7        O      tau(   7) = (   0.5000000   0.2500000   0.5175613  )
         8        O      tau(   8) = (   0.5000000   0.7500000   0.9246358  )
         9        H      tau(   9) = (   0.0000000   0.4142500   1.0027885  )
        10        H      tau(  10) = (   0.0000000   0.5857500   0.4394086  )
        11        H      tau(  11) = (   0.5000000   0.5857500   0.2816900  )
        12        H      tau(  12) = (   0.5000000   0.4142500   1.1605072  )
        13        H      tau(  13) = (   0.8357500   0.7500000   1.3633378  )
        14        H      tau(  14) = (   0.1642500   0.2500000   0.0788593  )
        15        H      tau(  15) = (   0.6642500   0.2500000   0.6422392  )
        16        H      tau(  16) = (   0.3357500   0.7500000   0.7999579  )
        17        H      tau(  17) = (   0.6642500   0.7500000   0.7999579  )
        18        H      tau(  18) = (   0.3357500   0.2500000   0.6422392  )
        19        H      tau(  19) = (   0.8357500   0.2500000   0.0788593  )
        20        H      tau(  20) = (   0.1642500   0.7500000   1.3633378  )
        21        H      tau(  21) = (   0.5000000   0.9142500   0.2816900  )
        22        H      tau(  22) = (   0.5000000   0.0857500   1.1605072  )
        23        H      tau(  23) = (   0.0000000   0.0857500   1.0027885  )
        24        H      tau(  24) = (   0.0000000   0.9142500   0.4394086  )

     number of k points=   144

     Number of k-points >= 100: set verbosity='high' to print them.

     Dense  grid:   139419 G-vectors     FFT dimensions: (  60,  60,  90)

     Estimated max dynamical RAM per process >      15.87 MB

     Estimated total dynamical RAM >       1.88 GB

     Initial potential from superposition of free atoms

     starting charge      63.9998, renormalised to      64.0000
     Starting wfcs are   48 randomized atomic wfcs

     total cpu time spent up to now is        1.8 secs

     per-process dynamical memory:    22.0 Mb

     Self-consistent Calculation

     iteration #  1     ecut=    90.00 Ry     beta= 0.70
     Davidson diagonalization with overlap
     ethr =  1.00E-02,  avg # of iterations =  2.0

     total cpu time spent up to now is        3.9 secs

     total energy              =    -274.77610841 Ry
     estimated scf accuracy    <       2.54759596 Ry

     iteration #  2     ecut=    90.00 Ry     beta= 0.70
     Davidson diagonalization with overlap
     ethr =  3.98E-03,  avg # of iterations =  3.0

     total cpu time spent up to now is        6.6 secs

     total energy              =    -275.56933593 Ry
     estimated scf accuracy    <       1.86974114 Ry

     iteration #  3     ecut=    90.00 Ry     beta= 0.70
     Davidson diagonalization with overlap
     ethr =  2.92E-03,  avg # of iterations =  2.0

     total cpu time spent up to now is        8.7 secs

     total energy              =    -275.79543370 Ry
     estimated scf accuracy    <       0.08662282 Ry

     iteration #  4     ecut=    90.00 Ry     beta= 0.70
     Davidson diagonalization with overlap
     ethr =  1.35E-04,  avg # of iterations =  4.0

     total cpu time spent up to now is       11.8 secs

     total energy              =    -275.86651262 Ry
     estimated scf accuracy    <       0.10678556 Ry

     iteration #  5     ecut=    90.00 Ry     beta= 0.70
     Davidson diagonalization with overlap
     ethr =  1.35E-04,  avg # of iterations =  1.6

     total cpu time spent up to now is       13.5 secs

     total energy              =    -275.86533132 Ry
     estimated scf accuracy    <       0.01969688 Ry

     iteration #  6     ecut=    90.00 Ry     beta= 0.70
     Davidson diagonalization with overlap
     ethr =  3.08E-05,  avg # of iterations =  2.0

     total cpu time spent up to now is       15.8 secs

     total energy              =    -275.86929151 Ry
     estimated scf accuracy    <       0.00057194 Ry

     iteration #  7     ecut=    90.00 Ry     beta= 0.70
     Davidson diagonalization with overlap
     ethr =  8.94E-07,  avg # of iterations =  2.9

     total cpu time spent up to now is       18.2 secs

     total energy              =    -275.86961416 Ry
     estimated scf accuracy    <       0.00010650 Ry

     iteration #  8     ecut=    90.00 Ry     beta= 0.70
     Davidson diagonalization with overlap
     ethr =  1.66E-07,  avg # of iterations =  3.0

     total cpu time spent up to now is       20.7 secs

     total energy              =    -275.86954102 Ry
     estimated scf accuracy    <       0.00029745 Ry

     iteration #  9     ecut=    90.00 Ry     beta= 0.70
     Davidson diagonalization with overlap
     ethr =  1.66E-07,  avg # of iterations =  2.0

     total cpu time spent up to now is       22.9 secs

     total energy              =    -275.86954282 Ry
     estimated scf accuracy    <       0.00005753 Ry

     iteration # 10     ecut=    90.00 Ry     beta= 0.70
     Davidson diagonalization with overlap
     ethr =  8.99E-08,  avg # of iterations =  2.0

     total cpu time spent up to now is       24.8 secs

     total energy              =    -275.86954420 Ry
     estimated scf accuracy    <       0.00001064 Ry

     iteration # 11     ecut=    90.00 Ry     beta= 0.70
     Davidson diagonalization with overlap
     ethr =  1.66E-08,  avg # of iterations =  3.5

     total cpu time spent up to now is       27.6 secs

     total energy              =    -275.86954993 Ry
     estimated scf accuracy    <       0.00000187 Ry

     iteration # 12     ecut=    90.00 Ry     beta= 0.70
     Davidson diagonalization with overlap
     ethr =  2.92E-09,  avg # of iterations =  2.0

     total cpu time spent up to now is       29.5 secs

     total energy              =    -275.86954971 Ry
     estimated scf accuracy    <       0.00000110 Ry

     iteration # 13     ecut=    90.00 Ry     beta= 0.70
     Davidson diagonalization with overlap
     ethr =  1.72E-09,  avg # of iterations =  2.0

     total cpu time spent up to now is       31.4 secs

     total energy              =    -275.86954972 Ry
     estimated scf accuracy    <       0.00000016 Ry

     iteration # 14     ecut=    90.00 Ry     beta= 0.70
     Davidson diagonalization with overlap
     ethr =  2.53E-10,  avg # of iterations =  3.0

     total cpu time spent up to now is       33.9 secs

     End of self-consistent calculation

     Number of k-points >= 100: set verbosity='high' to print the bands.

     highest occupied level (ev):    -1.3645

!    total energy              =    -275.86954978 Ry
     estimated scf accuracy    <       0.00000003 Ry

     The total energy is the sum of the following terms:
     one-electron contribution =    -144.69025376 Ry
     hartree contribution      =      97.05026879 Ry
     xc contribution           =     -67.02552620 Ry
     ewald contribution        =    -161.20403862 Ry

     convergence has been achieved in  14 iterations

     Forces acting on atoms (cartesian axes, Ry/au):

     atom    1 type  2   force =     0.00000000   -0.00000000    0.06020364
     atom    2 type  2   force =     0.00000000    0.00000000   -0.06020364
     atom    3 type  2   force =     0.00000000    0.00000000    0.06020375
     atom    4 type  2   force =     0.00000000   -0.00000000   -0.06020375
     atom    5 type  2   force =     0.00000000   -0.00000003    0.06023883
     atom    6 type  2   force =     0.00000000    0.00000003   -0.06023883
     atom    7 type  2   force =     0.00000000   -0.00000001    0.06023863
     atom    8 type  2   force =     0.00000000    0.00000001   -0.06023863
     atom    9 type  1   force =     0.00000000   -0.04650932   -0.03043497
     atom   10 type  1   force =     0.00000000    0.04650932    0.03043497
     atom   11 type  1   force =     0.00000000    0.04650929   -0.03043493
     atom   12 type  1   force =     0.00000000   -0.04650929    0.03043493
     atom   13 type  1   force =     0.04650716   -0.00000001   -0.03043418
     atom   14 type  1   force =    -0.04650716    0.00000001    0.03043418
     atom   15 type  1   force =    -0.04650718   -0.00000001   -0.03043422
     atom   16 type  1   force =     0.04650718    0.00000001    0.03043422
     atom   17 type  1   force =    -0.04650718    0.00000001    0.03043422
     atom   18 type  1   force =     0.04650718   -0.00000001   -0.03043422
     atom   19 type  1   force =     0.04650716    0.00000001    0.03043418
     atom   20 type  1   force =    -0.04650716   -0.00000001   -0.03043418
     atom   21 type  1   force =     0.00000000   -0.04650930   -0.03043494
     atom   22 type  1   force =     0.00000000    0.04650930    0.03043494
     atom   23 type  1   force =     0.00000000    0.04650931   -0.03043496
     atom   24 type  1   force =     0.00000000   -0.04650931    0.03043496

     Total force =     0.280074     Total SCF correction =     0.000201


     Computing stress (Cartesian axis) and pressure

          total   stress  (Ry/bohr**3)                   (kbar)     P=      -92.12
  -0.00062206   0.00000000   0.00000000          -91.51        0.00        0.00
   0.00000000  -0.00062203  -0.00000000            0.00      -91.50       -0.00
   0.00000000  -0.00000000  -0.00063452            0.00       -0.00      -93.34


     Writing all to output data dir ./iceVIII/iceVIII.save/ :
     XML data file, charge density, pseudopotentials, collected wavefunctions

     init_run     :      1.48s CPU      1.53s WALL (       1 calls)
     electrons    :     31.55s CPU     32.20s WALL (       1 calls)
     forces       :      0.15s CPU      0.16s WALL (       1 calls)
     stress       :      1.92s CPU      1.94s WALL (       1 calls)

     Called by init_run:
     wfcinit      :      0.95s CPU      0.98s WALL (       1 calls)
     potinit      :      0.03s CPU      0.04s WALL (       1 calls)
     hinit0       :      0.42s CPU      0.43s WALL (       1 calls)

     Called by electrons:
     c_bands      :     27.83s CPU     28.37s WALL (      14 calls)
     sum_band     :      3.53s CPU      3.58s WALL (      14 calls)
     v_of_rho     :      0.13s CPU      0.13s WALL (      15 calls)
     newd         :      0.03s CPU      0.03s WALL (      15 calls)
     mix_rho      :      0.03s CPU      0.03s WALL (      14 calls)

     Called by c_bands:
     init_us_2    :      0.41s CPU      0.43s WALL (    1116 calls)
     cegterg      :     26.72s CPU     27.04s WALL (     504 calls)

     Called by *egterg:
     cdiaghg      :      2.87s CPU      2.89s WALL (    1767 calls)
     h_psi        :     20.43s CPU     20.71s WALL (    1803 calls)
     s_psi        :      0.84s CPU      0.85s WALL (    1803 calls)
     g_psi        :      0.07s CPU      0.07s WALL (    1263 calls)

     Called by h_psi:
     h_psi:calbec :      1.18s CPU      1.19s WALL (    1803 calls)
     vloc_psi     :     18.25s CPU     18.51s WALL (    1803 calls)
     add_vuspsi   :      0.88s CPU      0.89s WALL (    1803 calls)

     General routines
     calbec       :      1.61s CPU      1.63s WALL (    2487 calls)
     fft          :      0.48s CPU      0.48s WALL (     173 calls)
     ffts         :      0.01s CPU      0.01s WALL (      14 calls)
     fftw         :     19.36s CPU     19.62s WALL (  113564 calls)

     Parallel routines

     PWSCF        :     35.89s CPU     37.83s WALL


   This run was terminated on:  21:34:27  21Mar2026            

=------------------------------------------------------------------------------=
   JOB DONE.
=------------------------------------------------------------------------------=
