
     Program PWSCF v.7.3.1 starts on 24Mar2026 at 19:46:32 

     This program is part of the open-source Quantum ESPRESSO suite
     for quantum simulation of materials; please cite
         "P. Giannozzi et al., J. Phys.:Condens. Matter 21 395502 (2009);
         "P. Giannozzi et al., J. Phys.:Condens. Matter 29 465901 (2017);
         "P. Giannozzi et al., J. Chem. Phys. 152 154105 (2020);
          URL http://www.quantum-espresso.org", 
     in publications or presentations arising from this work. More details at
     http://www.quantum-espresso.org/quote

     Parallel version (MPI), running on   128 processors

     MPI processes distributed on     1 nodes
     241733 MiB available memory on the printing compute node when the environment starts

     Waiting for input...
     Reading input from standard input

     Current dimensions of program PWSCF are:
     Max number of different atomic species (ntypx) = 10
     Max number of k-points (npk) =  40000
     Max angular momentum in pseudopotentials (lmaxx) =  4
     Found identity + ( -0.5000 -0.5000  0.5000) symmetry
     This is a supercell, fractional translations are disabled

     K-points division:     npool     =       4
     R & G space division:  proc/nbgrp/npool/nimage =      32
     Subspace diagonalization in iterative solution of the eigenvalue problem:
     a serial algorithm will be used


     Parallelization info
     --------------------
     sticks:   dense  smooth     PW     G-vecs:    dense   smooth      PW
     Min          80      80     21                 4354     4354     623
     Max          81      81     22                 4360     4360     630
     Sum        2561    2561    697               139419   139419   20059

     Using Slab Decomposition



     bravais-lattice index     =            6
     lattice parameter (alat)  =       9.4264  a.u.
     unit-cell volume          =    1207.9706 (a.u.)^3
     number of atoms/cell      =           24
     number of atomic types    =            2
     number of electrons       =        64.00
     number of Kohn-Sham states=           32
     kinetic-energy cutoff     =      90.0000  Ry
     charge density cutoff     =     360.0000  Ry
     scf convergence threshold =      1.0E-07
     mixing beta               =       0.7000
     number of iterations used =            8  plain     mixing
     Exchange-correlation=  SLA  PW   PBE  PBE
                           (   1   4   3   4   0   0   0)

     celldm(1)=   9.426358  celldm(2)=   0.000000  celldm(3)=   1.442197
     celldm(4)=   0.000000  celldm(5)=   0.000000  celldm(6)=   0.000000

     crystal axes: (cart. coord. in units of alat)
               a(1) = (   1.000000   0.000000   0.000000 )  
               a(2) = (   0.000000   1.000000   0.000000 )  
               a(3) = (   0.000000   0.000000   1.442197 )  

     reciprocal axes: (cart. coord. in units 2 pi/alat)
               b(1) = (  1.000000  0.000000  0.000000 )  
               b(2) = (  0.000000  1.000000  0.000000 )  
               b(3) = (  0.000000  0.000000  0.693386 )  


     PseudoPot. # 1 for H  read from file:
     ./H.pbe-van_ak.UPF
     MD5 check sum: 077eb6d537518a38cb46c6de387227b7
     Pseudo is Ultrasoft, Zval =  1.0
     Generated by new atomic code, or converted to UPF format
     Using radial grid of  615 points,  1 beta functions with: 
                l(1) =   0
     Q(r) pseudized with  8 coefficients,  rinner =    0.800

     PseudoPot. # 2 for O  read from file:
     ./O.pbe-van_ak.UPF
     MD5 check sum: 78c19812648e8988a0fe644b0f25305e
     Pseudo is Ultrasoft, Zval =  6.0
     Generated by new atomic code, or converted to UPF format
     Using radial grid of  737 points,  4 beta functions with: 
                l(1) =   0
                l(2) =   0
                l(3) =   1
                l(4) =   1
     Q(r) pseudized with  8 coefficients,  rinner =    0.800   0.800   0.800


     atomic species   valence    mass     pseudopotential
     H                 1.00     1.00800     H ( 1.00)
     O                 6.00    16.00000     O ( 1.00)

      4 Sym. Ops., with inversion, found



   Cartesian axes

     site n.     atom                  positions (alat units)
         1        O      tau(   1) = (   0.0000000   0.2500000   0.8766577  )
         2        O      tau(   2) = (   0.0000000   0.7500000   0.5655395  )
         3        O      tau(   3) = (   0.5000000   0.7500000   0.1555590  )
         4        O      tau(   4) = (   0.5000000   0.2500000   1.2866381  )
         5        O      tau(   5) = (   0.0000000   0.7500000   1.2372108  )
         6        O      tau(   6) = (   0.0000000   0.2500000   0.2049863  )
         7        O      tau(   7) = (   0.5000000   0.2500000   0.5161123  )
         8        O      tau(   8) = (   0.5000000   0.7500000   0.9260848  )
         9        H      tau(   9) = (   0.0000000   0.4186701   1.0041518  )
        10        H      tau(  10) = (   0.0000000   0.5813299   0.4380453  )
        11        H      tau(  11) = (   0.5000000   0.5813299   0.2830532  )
        12        H      tau(  12) = (   0.5000000   0.4186701   1.1591439  )
        13        H      tau(  13) = (   0.8313288   0.7500000   1.3647034  )
        14        H      tau(  14) = (   0.1686712   0.2500000   0.0774938  )
        15        H      tau(  15) = (   0.6686712   0.2500000   0.6436049  )
        16        H      tau(  16) = (   0.3313288   0.7500000   0.7985923  )
        17        H      tau(  17) = (   0.6686712   0.7500000   0.7985923  )
        18        H      tau(  18) = (   0.3313288   0.2500000   0.6436049  )
        19        H      tau(  19) = (   0.8313288   0.2500000   0.0774938  )
        20        H      tau(  20) = (   0.1686712   0.7500000   1.3647034  )
        21        H      tau(  21) = (   0.5000000   0.9186701   0.2830532  )
        22        H      tau(  22) = (   0.5000000   0.0813299   1.1591439  )
        23        H      tau(  23) = (   0.0000000   0.0813299   1.0041518  )
        24        H      tau(  24) = (   0.0000000   0.9186701   0.4380454  )

     number of k points=   144

     Number of k-points >= 100: set verbosity='high' to print them.

     Dense  grid:   139419 G-vectors     FFT dimensions: (  60,  60,  90)

     Estimated max dynamical RAM per process >      15.87 MB

     Estimated total dynamical RAM >       1.88 GB

     Initial potential from superposition of free atoms

     starting charge      63.9998, renormalised to      64.0000
     Starting wfcs are   48 randomized atomic wfcs

     total cpu time spent up to now is        1.8 secs

     per-process dynamical memory:    22.0 Mb

     Self-consistent Calculation

     iteration #  1     ecut=    90.00 Ry     beta= 0.70
     Davidson diagonalization with overlap
     ethr =  1.00E-02,  avg # of iterations =  2.0

     total cpu time spent up to now is        3.9 secs

     total energy              =    -274.76104884 Ry
     estimated scf accuracy    <       2.42819108 Ry

     iteration #  2     ecut=    90.00 Ry     beta= 0.70
     Davidson diagonalization with overlap
     ethr =  3.79E-03,  avg # of iterations =  3.0

     total cpu time spent up to now is        6.7 secs

     total energy              =    -275.51745900 Ry
     estimated scf accuracy    <       1.86914380 Ry

     iteration #  3     ecut=    90.00 Ry     beta= 0.70
     Davidson diagonalization with overlap
     ethr =  2.92E-03,  avg # of iterations =  2.0

     total cpu time spent up to now is        8.8 secs

     total energy              =    -275.73827734 Ry
     estimated scf accuracy    <       0.09083909 Ry

     iteration #  4     ecut=    90.00 Ry     beta= 0.70
     Davidson diagonalization with overlap
     ethr =  1.42E-04,  avg # of iterations =  4.0

     total cpu time spent up to now is       12.0 secs

     total energy              =    -275.81177387 Ry
     estimated scf accuracy    <       0.10539920 Ry

     iteration #  5     ecut=    90.00 Ry     beta= 0.70
     Davidson diagonalization with overlap
     ethr =  1.42E-04,  avg # of iterations =  1.2

     total cpu time spent up to now is       13.7 secs

     total energy              =    -275.81038215 Ry
     estimated scf accuracy    <       0.01971462 Ry

     iteration #  6     ecut=    90.00 Ry     beta= 0.70
     Davidson diagonalization with overlap
     ethr =  3.08E-05,  avg # of iterations =  2.0

     total cpu time spent up to now is       15.8 secs

     total energy              =    -275.81457577 Ry
     estimated scf accuracy    <       0.00038913 Ry

     iteration #  7     ecut=    90.00 Ry     beta= 0.70
     Davidson diagonalization with overlap
     ethr =  6.08E-07,  avg # of iterations =  2.9

     total cpu time spent up to now is       18.3 secs

     total energy              =    -275.81483080 Ry
     estimated scf accuracy    <       0.00013875 Ry

     iteration #  8     ecut=    90.00 Ry     beta= 0.70
     Davidson diagonalization with overlap
     ethr =  2.17E-07,  avg # of iterations =  2.0

     total cpu time spent up to now is       20.3 secs

     total energy              =    -275.81476349 Ry
     estimated scf accuracy    <       0.00021770 Ry

     iteration #  9     ecut=    90.00 Ry     beta= 0.70
     Davidson diagonalization with overlap
     ethr =  2.17E-07,  avg # of iterations =  2.0

     total cpu time spent up to now is       22.1 secs

     total energy              =    -275.81476746 Ry
     estimated scf accuracy    <       0.00003500 Ry

     iteration # 10     ecut=    90.00 Ry     beta= 0.70
     Davidson diagonalization with overlap
     ethr =  5.47E-08,  avg # of iterations =  2.0

     total cpu time spent up to now is       24.2 secs

     total energy              =    -275.81476856 Ry
     estimated scf accuracy    <       0.00000783 Ry

     iteration # 11     ecut=    90.00 Ry     beta= 0.70
     Davidson diagonalization with overlap
     ethr =  1.22E-08,  avg # of iterations =  3.0

     total cpu time spent up to now is       26.7 secs

     total energy              =    -275.81477179 Ry
     estimated scf accuracy    <       0.00000054 Ry

     iteration # 12     ecut=    90.00 Ry     beta= 0.70
     Davidson diagonalization with overlap
     ethr =  8.39E-10,  avg # of iterations =  2.1

     total cpu time spent up to now is       28.8 secs

     End of self-consistent calculation

     Number of k-points >= 100: set verbosity='high' to print the bands.

     highest occupied level (ev):    -1.3194

!    total energy              =    -275.81477185 Ry
     estimated scf accuracy    <       0.00000008 Ry

     The total energy is the sum of the following terms:
     one-electron contribution =    -141.79047805 Ry
     hartree contribution      =      95.75320824 Ry
     xc contribution           =     -66.72258324 Ry
     ewald contribution        =    -163.05491880 Ry

     convergence has been achieved in  12 iterations

     Forces acting on atoms (cartesian axes, Ry/au):

     atom    1 type  2   force =     0.00000000    0.00000020    0.08841280
     atom    2 type  2   force =     0.00000000   -0.00000020   -0.08841280
     atom    3 type  2   force =     0.00000000    0.00000007    0.08841139
     atom    4 type  2   force =     0.00000000   -0.00000007   -0.08841139
     atom    5 type  2   force =     0.00000000   -0.00000017    0.08841088
     atom    6 type  2   force =     0.00000000    0.00000017   -0.08841088
     atom    7 type  2   force =     0.00000000   -0.00000007    0.08840896
     atom    8 type  2   force =     0.00000000    0.00000007   -0.08840896
     atom    9 type  1   force =     0.00000000   -0.06905520   -0.04435783
     atom   10 type  1   force =     0.00000000    0.06905520    0.04435783
     atom   11 type  1   force =     0.00000000    0.06905550   -0.04435818
     atom   12 type  1   force =     0.00000000   -0.06905550    0.04435818
     atom   13 type  1   force =     0.06905799   -0.00000001   -0.04435826
     atom   14 type  1   force =    -0.06905799    0.00000001    0.04435826
     atom   15 type  1   force =    -0.06905803    0.00000001   -0.04435846
     atom   16 type  1   force =     0.06905803   -0.00000001    0.04435846
     atom   17 type  1   force =    -0.06905803   -0.00000001    0.04435846
     atom   18 type  1   force =     0.06905803    0.00000001   -0.04435846
     atom   19 type  1   force =     0.06905799    0.00000001    0.04435826
     atom   20 type  1   force =    -0.06905799   -0.00000001   -0.04435826
     atom   21 type  1   force =     0.00000000   -0.06905553   -0.04435819
     atom   22 type  1   force =     0.00000000    0.06905553    0.04435819
     atom   23 type  1   force =     0.00000000    0.06905513   -0.04435778
     atom   24 type  1   force =     0.00000000   -0.06905513    0.04435778

     Total force =     0.412693     Total SCF correction =     0.000093


     Computing stress (Cartesian axis) and pressure

          total   stress  (Ry/bohr**3)                   (kbar)     P=     -133.21
  -0.00090076   0.00000000   0.00000000         -132.51        0.00        0.00
   0.00000000  -0.00090072  -0.00000000            0.00     -132.50       -0.00
   0.00000000  -0.00000000  -0.00091511            0.00       -0.00     -134.62


     Writing all to output data dir ./iceVIII/iceVIII.save/ :
     XML data file, charge density, pseudopotentials, collected wavefunctions

     init_run     :      1.49s CPU      1.54s WALL (       1 calls)
     electrons    :     26.59s CPU     27.12s WALL (       1 calls)
     forces       :      0.16s CPU      0.17s WALL (       1 calls)
     stress       :      1.92s CPU      1.94s WALL (       1 calls)

     Called by init_run:
     wfcinit      :      0.97s CPU      0.98s WALL (       1 calls)
     potinit      :      0.02s CPU      0.03s WALL (       1 calls)
     hinit0       :      0.42s CPU      0.44s WALL (       1 calls)

     Called by electrons:
     c_bands      :     23.37s CPU     23.79s WALL (      12 calls)
     sum_band     :      3.05s CPU      3.11s WALL (      12 calls)
     v_of_rho     :      0.11s CPU      0.12s WALL (      13 calls)
     newd         :      0.03s CPU      0.03s WALL (      13 calls)
     mix_rho      :      0.02s CPU      0.03s WALL (      12 calls)

     Called by c_bands:
     init_us_2    :      0.36s CPU      0.38s WALL (     972 calls)
     cegterg      :     22.51s CPU     22.74s WALL (     432 calls)

     Called by *egterg:
     cdiaghg      :      2.40s CPU      2.41s WALL (    1469 calls)
     h_psi        :     17.40s CPU     17.62s WALL (    1505 calls)
     s_psi        :      0.71s CPU      0.71s WALL (    1505 calls)
     g_psi        :      0.06s CPU      0.06s WALL (    1037 calls)

     Called by h_psi:
     h_psi:calbec :      1.00s CPU      1.01s WALL (    1505 calls)
     vloc_psi     :     15.55s CPU     15.75s WALL (    1505 calls)
     add_vuspsi   :      0.75s CPU      0.75s WALL (    1505 calls)

     General routines
     calbec       :      1.40s CPU      1.42s WALL (    2117 calls)
     fft          :      0.46s CPU      0.47s WALL (     151 calls)
     ffts         :      0.00s CPU      0.00s WALL (      12 calls)
     fftw         :     16.52s CPU     16.74s WALL (   95874 calls)

     Parallel routines

     PWSCF        :     31.01s CPU     32.62s WALL


   This run was terminated on:  19:47: 5  24Mar2026            

=------------------------------------------------------------------------------=
   JOB DONE.
=------------------------------------------------------------------------------=
