
     Program PWSCF v.7.3.1 starts on 31Mar2026 at 19:59: 3 

     This program is part of the open-source Quantum ESPRESSO suite
     for quantum simulation of materials; please cite
         "P. Giannozzi et al., J. Phys.:Condens. Matter 21 395502 (2009);
         "P. Giannozzi et al., J. Phys.:Condens. Matter 29 465901 (2017);
         "P. Giannozzi et al., J. Chem. Phys. 152 154105 (2020);
          URL http://www.quantum-espresso.org", 
     in publications or presentations arising from this work. More details at
     http://www.quantum-espresso.org/quote

     Parallel version (MPI), running on   128 processors

     MPI processes distributed on     1 nodes
     499499 MiB available memory on the printing compute node when the environment starts

     Waiting for input...
     Reading input from standard input

     Current dimensions of program PWSCF are:
     Max number of different atomic species (ntypx) = 10
     Max number of k-points (npk) =  40000
     Max angular momentum in pseudopotentials (lmaxx) =  4
     Found identity + ( -0.5000 -0.5000  0.5000) symmetry
     This is a supercell, fractional translations are disabled

     K-points division:     npool     =       4
     R & G space division:  proc/nbgrp/npool/nimage =      32
     Subspace diagonalization in iterative solution of the eigenvalue problem:
     a serial algorithm will be used


     Parallelization info
     --------------------
     sticks:   dense  smooth     PW     G-vecs:    dense   smooth      PW
     Min          80      80     21                 4400     4400     631
     Max          81      81     22                 4407     4407     640
     Sum        2561    2561    697               140883   140883   20315

     Using Slab Decomposition



     bravais-lattice index     =            6
     lattice parameter (alat)  =       9.4619  a.u.
     unit-cell volume          =    1221.6715 (a.u.)^3
     number of atoms/cell      =           24
     number of atomic types    =            2
     number of electrons       =        64.00
     number of Kohn-Sham states=           32
     kinetic-energy cutoff     =      90.0000  Ry
     charge density cutoff     =     360.0000  Ry
     scf convergence threshold =      1.0E-07
     mixing beta               =       0.7000
     number of iterations used =            8  plain     mixing
     energy convergence thresh.=      1.0E-04
     force convergence thresh. =      1.0E-04
     Exchange-correlation=  SLA  PW   PBE  PBE
                           (   1   4   3   4   0   0   0)
     nstep                     =           50


     celldm(1)=   9.461862  celldm(2)=   0.000000  celldm(3)=   1.442197
     celldm(4)=   0.000000  celldm(5)=   0.000000  celldm(6)=   0.000000

     crystal axes: (cart. coord. in units of alat)
               a(1) = (   1.000000   0.000000   0.000000 )  
               a(2) = (   0.000000   1.000000   0.000000 )  
               a(3) = (   0.000000   0.000000   1.442197 )  

     reciprocal axes: (cart. coord. in units 2 pi/alat)
               b(1) = (  1.000000  0.000000  0.000000 )  
               b(2) = (  0.000000  1.000000  0.000000 )  
               b(3) = (  0.000000  0.000000  0.693386 )  


     PseudoPot. # 1 for H  read from file:
     ./H.pbe-van_ak.UPF
     MD5 check sum: 077eb6d537518a38cb46c6de387227b7
     Pseudo is Ultrasoft, Zval =  1.0
     Generated by new atomic code, or converted to UPF format
     Using radial grid of  615 points,  1 beta functions with: 
                l(1) =   0
     Q(r) pseudized with  8 coefficients,  rinner =    0.800

     PseudoPot. # 2 for O  read from file:
     ./O.pbe-van_ak.UPF
     MD5 check sum: 78c19812648e8988a0fe644b0f25305e
     Pseudo is Ultrasoft, Zval =  6.0
     Generated by new atomic code, or converted to UPF format
     Using radial grid of  737 points,  4 beta functions with: 
                l(1) =   0
                l(2) =   0
                l(3) =   1
                l(4) =   1
     Q(r) pseudized with  8 coefficients,  rinner =    0.800   0.800   0.800


     atomic species   valence    mass     pseudopotential
     H                 1.00     1.00800     H ( 1.00)
     O                 6.00    16.00000     O ( 1.00)

      4 Sym. Ops., with inversion, found



   Cartesian axes

     site n.     atom                  positions (alat units)
         1        O      tau(   1) = (   0.0000000   0.2500000   0.8781106  )
         2        O      tau(   2) = (   0.0000000   0.7500000   0.5640866  )
         3        O      tau(   3) = (   0.5000000   0.7500000   0.1570120  )
         4        O      tau(   4) = (   0.5000000   0.2500000   1.2851851  )
         5        O      tau(   5) = (   0.0000000   0.7500000   1.2386599  )
         6        O      tau(   6) = (   0.0000000   0.2500000   0.2035373  )
         7        O      tau(   7) = (   0.5000000   0.2500000   0.5175613  )
         8        O      tau(   8) = (   0.5000000   0.7500000   0.9246358  )
         9        H      tau(   9) = (   0.0000000   0.4142500   1.0027885  )
        10        H      tau(  10) = (   0.0000000   0.5857500   0.4394086  )
        11        H      tau(  11) = (   0.5000000   0.5857500   0.2816900  )
        12        H      tau(  12) = (   0.5000000   0.4142500   1.1605072  )
        13        H      tau(  13) = (   0.8357500   0.7500000   1.3633378  )
        14        H      tau(  14) = (   0.1642500   0.2500000   0.0788593  )
        15        H      tau(  15) = (   0.6642500   0.2500000   0.6422392  )
        16        H      tau(  16) = (   0.3357500   0.7500000   0.7999579  )
        17        H      tau(  17) = (   0.6642500   0.7500000   0.7999579  )
        18        H      tau(  18) = (   0.3357500   0.2500000   0.6422392  )
        19        H      tau(  19) = (   0.8357500   0.2500000   0.0788593  )
        20        H      tau(  20) = (   0.1642500   0.7500000   1.3633378  )
        21        H      tau(  21) = (   0.5000000   0.9142500   0.2816900  )
        22        H      tau(  22) = (   0.5000000   0.0857500   1.1605072  )
        23        H      tau(  23) = (   0.0000000   0.0857500   1.0027885  )
        24        H      tau(  24) = (   0.0000000   0.9142500   0.4394086  )

     number of k points=   144

     Number of k-points >= 100: set verbosity='high' to print them.

     Dense  grid:   140883 G-vectors     FFT dimensions: (  60,  60,  90)

     Estimated max dynamical RAM per process >      16.02 MB

     Estimated total dynamical RAM >       1.90 GB

     Initial potential from superposition of free atoms

     starting charge      63.9998, renormalised to      64.0000
     Starting wfcs are   48 randomized atomic wfcs

     total cpu time spent up to now is        1.7 secs

     per-process dynamical memory:    22.4 Mb

     Self-consistent Calculation

     iteration #  1     ecut=    90.00 Ry     beta= 0.70
     Davidson diagonalization with overlap
     ethr =  1.00E-02,  avg # of iterations =  2.0

     total cpu time spent up to now is        4.0 secs

     total energy              =    -274.76582240 Ry
     estimated scf accuracy    <       2.54347579 Ry

     iteration #  2     ecut=    90.00 Ry     beta= 0.70
     Davidson diagonalization with overlap
     ethr =  3.97E-03,  avg # of iterations =  3.0

     total cpu time spent up to now is        6.7 secs

     total energy              =    -275.55656960 Ry
     estimated scf accuracy    <       1.89732838 Ry

     iteration #  3     ecut=    90.00 Ry     beta= 0.70
     Davidson diagonalization with overlap
     ethr =  2.96E-03,  avg # of iterations =  2.0

     total cpu time spent up to now is        8.8 secs

     total energy              =    -275.78517255 Ry
     estimated scf accuracy    <       0.08874404 Ry

     iteration #  4     ecut=    90.00 Ry     beta= 0.70
     Davidson diagonalization with overlap
     ethr =  1.39E-04,  avg # of iterations =  4.0

     total cpu time spent up to now is       12.0 secs

     total energy              =    -275.85802315 Ry
     estimated scf accuracy    <       0.10870378 Ry

     iteration #  5     ecut=    90.00 Ry     beta= 0.70
     Davidson diagonalization with overlap
     ethr =  1.39E-04,  avg # of iterations =  1.5

     total cpu time spent up to now is       13.7 secs

     total energy              =    -275.85674629 Ry
     estimated scf accuracy    <       0.02017618 Ry

     iteration #  6     ecut=    90.00 Ry     beta= 0.70
     Davidson diagonalization with overlap
     ethr =  3.15E-05,  avg # of iterations =  2.0

     total cpu time spent up to now is       15.8 secs

     total energy              =    -275.86079141 Ry
     estimated scf accuracy    <       0.00057239 Ry

     iteration #  7     ecut=    90.00 Ry     beta= 0.70
     Davidson diagonalization with overlap
     ethr =  8.94E-07,  avg # of iterations =  2.8

     total cpu time spent up to now is       18.3 secs

     total energy              =    -275.86111556 Ry
     estimated scf accuracy    <       0.00011263 Ry

     iteration #  8     ecut=    90.00 Ry     beta= 0.70
     Davidson diagonalization with overlap
     ethr =  1.76E-07,  avg # of iterations =  3.0

     total cpu time spent up to now is       20.8 secs

     total energy              =    -275.86104371 Ry
     estimated scf accuracy    <       0.00029443 Ry

     iteration #  9     ecut=    90.00 Ry     beta= 0.70
     Davidson diagonalization with overlap
     ethr =  1.76E-07,  avg # of iterations =  2.0

     total cpu time spent up to now is       22.9 secs

     total energy              =    -275.86104451 Ry
     estimated scf accuracy    <       0.00005920 Ry

     iteration # 10     ecut=    90.00 Ry     beta= 0.70
     Davidson diagonalization with overlap
     ethr =  9.25E-08,  avg # of iterations =  2.0

     total cpu time spent up to now is       24.8 secs

     total energy              =    -275.86104391 Ry
     estimated scf accuracy    <       0.00001245 Ry

     iteration # 11     ecut=    90.00 Ry     beta= 0.70
     Davidson diagonalization with overlap
     ethr =  1.95E-08,  avg # of iterations =  3.9

     total cpu time spent up to now is       27.6 secs

     total energy              =    -275.86105095 Ry
     estimated scf accuracy    <       0.00000345 Ry

     iteration # 12     ecut=    90.00 Ry     beta= 0.70
     Davidson diagonalization with overlap
     ethr =  5.39E-09,  avg # of iterations =  2.0

     total cpu time spent up to now is       29.4 secs

     total energy              =    -275.86105047 Ry
     estimated scf accuracy    <       0.00000185 Ry

     iteration # 13     ecut=    90.00 Ry     beta= 0.70
     Davidson diagonalization with overlap
     ethr =  2.89E-09,  avg # of iterations =  2.0

     total cpu time spent up to now is       31.3 secs

     total energy              =    -275.86105053 Ry
     estimated scf accuracy    <       0.00000022 Ry

     iteration # 14     ecut=    90.00 Ry     beta= 0.70
     Davidson diagonalization with overlap
     ethr =  3.43E-10,  avg # of iterations =  3.0

     total cpu time spent up to now is       33.9 secs

     End of self-consistent calculation

     Number of k-points >= 100: set verbosity='high' to print the bands.

     highest occupied level (ev):    -1.4260

!    total energy              =    -275.86105061 Ry
     estimated scf accuracy    <       0.00000010 Ry

     The total energy is the sum of the following terms:
     one-electron contribution =    -145.74126137 Ry
     hartree contribution      =      97.44175459 Ry
     xc contribution           =     -66.96239842 Ry
     ewald contribution        =    -160.59914541 Ry

     convergence has been achieved in  14 iterations

     Forces acting on atoms (cartesian axes, Ry/au):

     atom    1 type  2   force =    -0.00000000    0.00000004    0.06551653
     atom    2 type  2   force =    -0.00000000   -0.00000004   -0.06551653
     atom    3 type  2   force =     0.00000000    0.00000002    0.06551581
     atom    4 type  2   force =     0.00000000   -0.00000002   -0.06551581
     atom    5 type  2   force =    -0.00000000    0.00000001    0.06557485
     atom    6 type  2   force =    -0.00000000   -0.00000001   -0.06557485
     atom    7 type  2   force =     0.00000000    0.00000002    0.06557484
     atom    8 type  2   force =     0.00000000   -0.00000002   -0.06557484
     atom    9 type  1   force =     0.00000000   -0.05065560   -0.03312781
     atom   10 type  1   force =     0.00000000    0.05065560    0.03312781
     atom   11 type  1   force =     0.00000000    0.05065572   -0.03312789
     atom   12 type  1   force =     0.00000000   -0.05065572    0.03312789
     atom   13 type  1   force =     0.05065445   -0.00000001   -0.03312698
     atom   14 type  1   force =    -0.05065445    0.00000001    0.03312698
     atom   15 type  1   force =    -0.05065439   -0.00000001   -0.03312694
     atom   16 type  1   force =     0.05065439    0.00000001    0.03312694
     atom   17 type  1   force =    -0.05065439    0.00000001    0.03312694
     atom   18 type  1   force =     0.05065439   -0.00000001   -0.03312694
     atom   19 type  1   force =     0.05065445    0.00000001    0.03312698
     atom   20 type  1   force =    -0.05065445   -0.00000001   -0.03312698
     atom   21 type  1   force =     0.00000000   -0.05065573   -0.03312789
     atom   22 type  1   force =     0.00000000    0.05065573    0.03312789
     atom   23 type  1   force =     0.00000000    0.05065560   -0.03312780
     atom   24 type  1   force =     0.00000000   -0.05065560    0.03312780

     Total force =     0.304932     Total SCF correction =     0.000354


     Computing stress (Cartesian axis) and pressure

          total   stress  (Ry/bohr**3)                   (kbar)     P=      -99.59
  -0.00067262   0.00000000   0.00000000          -98.95        0.00        0.00
   0.00000000  -0.00067258  -0.00000000            0.00      -98.94       -0.00
   0.00000000  -0.00000000  -0.00068573            0.00       -0.00     -100.88


     BFGS Geometry Optimization
     Energy error            =      0.0E+00 Ry
     Gradient error          =      6.6E-02 Ry/Bohr

     number of scf cycles    =   1
     number of bfgs steps    =   0

     energy             new  =    -275.8610506096 Ry

     new trust radius        =       0.0655748463 bohr
     new conv_thr            =       0.0000001000 Ry


ATOMIC_POSITIONS (crystal)
O               -0.0000000000        0.2500000045        0.6136712271
O               -0.0000000000        0.7499999955        0.3863288019
O                0.5000000000        0.7500000020        0.1136711453
O                0.5000000000        0.2499999980        0.8863288257
O               -0.0000000000        0.7500000014        0.8636755010
O               -0.0000000000        0.2499999986        0.1363245280
O                0.5000000000        0.2500000022        0.3636754714
O                0.5000000000        0.7499999978        0.6363244996
H                0.0000000000        0.4088963248        0.6928923298
H                0.0000000000        0.5911036452        0.3071076702
H                0.5000000000        0.5911036576        0.1928923238
H                0.5000000000        0.4088963124        0.8071076762
H                0.8411035233        0.7499999992        0.9428923908
H                0.1588964467        0.2500000008        0.0571076092
H                0.6588964830        0.2499999991        0.4428923937
H                0.3411035470        0.7500000009        0.5571076063
H                0.6588964830        0.7500000009        0.5571076063
H                0.3411035470        0.2499999991        0.4428923937
H                0.8411035233        0.2500000008        0.0571076092
H                0.1588964467        0.7499999992        0.9428923908
H                0.5000000000        0.9088963418        0.1928923237
H                0.5000000000        0.0911036882        0.8071076763
H                0.0000000000        0.0911036746        0.6928923302
H                0.0000000000        0.9088963554        0.3071076698



     Writing config-only to output data dir ./iceVIII/iceVIII.save/ :
     XML data file
     NEW-OLD atomic charge density approx. for the potential

     total cpu time spent up to now is       36.1 secs

     per-process dynamical memory:    26.1 Mb

     Self-consistent Calculation

     iteration #  1     ecut=    90.00 Ry     beta= 0.70
     Davidson diagonalization with overlap
     ethr =  1.00E-06,  avg # of iterations =  8.9

     total cpu time spent up to now is       41.7 secs

     total energy              =    -275.88523464 Ry
     estimated scf accuracy    <       0.03634602 Ry

     iteration #  2     ecut=    90.00 Ry     beta= 0.70
     Davidson diagonalization with overlap
     ethr =  5.68E-05,  avg # of iterations =  3.0

     total cpu time spent up to now is       44.5 secs

     total energy              =    -275.89590376 Ry
     estimated scf accuracy    <       0.01873165 Ry

     iteration #  3     ecut=    90.00 Ry     beta= 0.70
     Davidson diagonalization with overlap
     ethr =  2.93E-05,  avg # of iterations =  2.0

     total cpu time spent up to now is       46.6 secs

     total energy              =    -275.89864870 Ry
     estimated scf accuracy    <       0.00051250 Ry

     iteration #  4     ecut=    90.00 Ry     beta= 0.70
     Davidson diagonalization with overlap
     ethr =  8.01E-07,  avg # of iterations =  4.0

     total cpu time spent up to now is       49.8 secs

     total energy              =    -275.89905338 Ry
     estimated scf accuracy    <       0.00062847 Ry

     iteration #  5     ecut=    90.00 Ry     beta= 0.70
     Davidson diagonalization with overlap
     ethr =  8.01E-07,  avg # of iterations =  2.0

     total cpu time spent up to now is       52.1 secs

     total energy              =    -275.89914280 Ry
     estimated scf accuracy    <       0.00001238 Ry

     iteration #  6     ecut=    90.00 Ry     beta= 0.70
     Davidson diagonalization with overlap
     ethr =  1.93E-08,  avg # of iterations =  4.0

     total cpu time spent up to now is       55.5 secs

     total energy              =    -275.89915198 Ry
     estimated scf accuracy    <       0.00002720 Ry

     iteration #  7     ecut=    90.00 Ry     beta= 0.70
     Davidson diagonalization with overlap
     ethr =  1.93E-08,  avg # of iterations =  2.0

     total cpu time spent up to now is       57.8 secs

     total energy              =    -275.89915550 Ry
     estimated scf accuracy    <       0.00000081 Ry

     iteration #  8     ecut=    90.00 Ry     beta= 0.70
     Davidson diagonalization with overlap
     ethr =  1.27E-09,  avg # of iterations =  4.0

     total cpu time spent up to now is       61.0 secs

     total energy              =    -275.89915623 Ry
     estimated scf accuracy    <       0.00000055 Ry

     iteration #  9     ecut=    90.00 Ry     beta= 0.70
     Davidson diagonalization with overlap
     ethr =  8.64E-10,  avg # of iterations =  1.4

     total cpu time spent up to now is       62.7 secs

     total energy              =    -275.89915621 Ry
     estimated scf accuracy    <       0.00000018 Ry

     iteration # 10     ecut=    90.00 Ry     beta= 0.70
     Davidson diagonalization with overlap
     ethr =  2.82E-10,  avg # of iterations =  1.9

     total cpu time spent up to now is       64.5 secs

     End of self-consistent calculation

     Number of k-points >= 100: set verbosity='high' to print the bands.

     highest occupied level (ev):    -1.5069

!    total energy              =    -275.89915618 Ry
     estimated scf accuracy    <       0.00000005 Ry

     The total energy is the sum of the following terms:
     one-electron contribution =    -152.09283701 Ry
     hartree contribution      =     100.31691474 Ry
     xc contribution           =     -67.62758246 Ry
     ewald contribution        =    -156.49565145 Ry

     convergence has been achieved in  10 iterations

     Forces acting on atoms (cartesian axes, Ry/au):

     atom    1 type  2   force =     0.00000000   -0.00000006   -0.02851684
     atom    2 type  2   force =     0.00000000    0.00000006    0.02851684
     atom    3 type  2   force =     0.00000000   -0.00000003   -0.02851654
     atom    4 type  2   force =     0.00000000    0.00000003    0.02851654
     atom    5 type  2   force =     0.00000000   -0.00000000   -0.02847332
     atom    6 type  2   force =     0.00000000    0.00000000    0.02847332
     atom    7 type  2   force =     0.00000000   -0.00000000   -0.02847326
     atom    8 type  2   force =     0.00000000    0.00000000    0.02847326
     atom    9 type  1   force =     0.00000000    0.00323685    0.01305799
     atom   10 type  1   force =     0.00000000   -0.00323685   -0.01305799
     atom   11 type  1   force =     0.00000000   -0.00323665    0.01305773
     atom   12 type  1   force =     0.00000000    0.00323665   -0.01305773
     atom   13 type  1   force =    -0.00325947    0.00000000    0.01307966
     atom   14 type  1   force =     0.00325947   -0.00000000   -0.01307966
     atom   15 type  1   force =     0.00325941    0.00000000    0.01307962
     atom   16 type  1   force =    -0.00325941   -0.00000000   -0.01307962
     atom   17 type  1   force =     0.00325941   -0.00000000   -0.01307962
     atom   18 type  1   force =    -0.00325941    0.00000000    0.01307962
     atom   19 type  1   force =    -0.00325947   -0.00000000   -0.01307966
     atom   20 type  1   force =     0.00325947    0.00000000    0.01307966
     atom   21 type  1   force =     0.00000000    0.00323668    0.01305775
     atom   22 type  1   force =     0.00000000   -0.00323668   -0.01305775
     atom   23 type  1   force =     0.00000000   -0.00323679    0.01305794
     atom   24 type  1   force =     0.00000000    0.00323679   -0.01305794

     Total force =     0.096939     Total SCF correction =     0.000201


     Computing stress (Cartesian axis) and pressure

          total   stress  (Ry/bohr**3)                   (kbar)     P=       -2.53
  -0.00006076   0.00000000   0.00000000           -8.94        0.00        0.00
   0.00000000  -0.00006089   0.00000000            0.00       -8.96        0.00
   0.00000000   0.00000000   0.00007003            0.00        0.00       10.30

     Energy error            =      3.8E-02 Ry
     Gradient error          =      2.9E-02 Ry/Bohr

     number of scf cycles    =   2
     number of bfgs steps    =   1

     energy             old  =    -275.8610506096 Ry
     energy             new  =    -275.8991561795 Ry

     CASE: energy            _new < energy            _old

     new trust radius        =       0.0212716136 bohr
     new conv_thr            =       0.0000001000 Ry


ATOMIC_POSITIONS (crystal)
O               -0.0000000000        0.2499999993        0.6121123955
O               -0.0000000000        0.7500000007        0.3878876335
O                0.5000000000        0.7499999996        0.1121123302
O                0.5000000000        0.2500000004        0.8878876408
O               -0.0000000000        0.7500000015        0.8621192782
O               -0.0000000000        0.2499999985        0.1378807508
O                0.5000000000        0.2500000022        0.3621192524
O                0.5000000000        0.7499999978        0.6378807186
H                0.0000000000        0.4090610025        0.6936015845
H                0.0000000000        0.5909389675        0.3063984155
H                0.5000000000        0.5909389967        0.1936015636
H                0.5000000000        0.4090609733        0.8063984364
H                0.8409369507        0.7499999993        0.9436029037
H                0.1590630193        0.2500000007        0.0563970963
H                0.6590630503        0.2499999992        0.4436029044
H                0.3409369797        0.7500000008        0.5563970956
H                0.6590630503        0.7500000008        0.5563970956
H                0.3409369797        0.2499999992        0.4436029044
H                0.8409369507        0.2500000007        0.0563970963
H                0.1590630193        0.7499999993        0.9436029037
H                0.5000000000        0.9090610051        0.1936015646
H                0.5000000000        0.0909390249        0.8063984354
H                0.0000000000        0.0909390018        0.6936015825
H                0.0000000000        0.9090610282        0.3063984175



     Writing config-only to output data dir ./iceVIII/iceVIII.save/ :
     XML data file
     NEW-OLD atomic charge density approx. for the potential

     total cpu time spent up to now is       66.6 secs

     per-process dynamical memory:    26.7 Mb

     Self-consistent Calculation

     iteration #  1     ecut=    90.00 Ry     beta= 0.70
     Davidson diagonalization with overlap
     ethr =  1.00E-06,  avg # of iterations =  5.0

     total cpu time spent up to now is       70.4 secs

     total energy              =    -275.90220962 Ry
     estimated scf accuracy    <       0.00194155 Ry

     iteration #  2     ecut=    90.00 Ry     beta= 0.70
     Davidson diagonalization with overlap
     ethr =  3.03E-06,  avg # of iterations =  3.0

     total cpu time spent up to now is       73.1 secs

     total energy              =    -275.90275956 Ry
     estimated scf accuracy    <       0.00085798 Ry

     iteration #  3     ecut=    90.00 Ry     beta= 0.70
     Davidson diagonalization with overlap
     ethr =  1.34E-06,  avg # of iterations =  2.0

     total cpu time spent up to now is       75.2 secs

     total energy              =    -275.90288819 Ry
     estimated scf accuracy    <       0.00002098 Ry

     iteration #  4     ecut=    90.00 Ry     beta= 0.70
     Davidson diagonalization with overlap
     ethr =  3.28E-08,  avg # of iterations =  4.2

     total cpu time spent up to now is       78.5 secs

     total energy              =    -275.90290409 Ry
     estimated scf accuracy    <       0.00002840 Ry

     iteration #  5     ecut=    90.00 Ry     beta= 0.70
     Davidson diagonalization with overlap
     ethr =  3.28E-08,  avg # of iterations =  2.2

     total cpu time spent up to now is       80.9 secs

     End of self-consistent calculation

     Number of k-points >= 100: set verbosity='high' to print the bands.

     highest occupied level (ev):    -1.4975

!    total energy              =    -275.90290993 Ry
     estimated scf accuracy    <       0.00000010 Ry

     The total energy is the sum of the following terms:
     one-electron contribution =    -150.79854938 Ry
     hartree contribution      =      99.72032851 Ry
     xc contribution           =     -67.49071168 Ry
     ewald contribution        =    -157.33397737 Ry

     convergence has been achieved in   5 iterations

     Forces acting on atoms (cartesian axes, Ry/au):

     atom    1 type  2   force =    -0.00000000    0.00000004   -0.00348437
     atom    2 type  2   force =    -0.00000000   -0.00000004    0.00348437
     atom    3 type  2   force =     0.00000000    0.00000002   -0.00348435
     atom    4 type  2   force =     0.00000000   -0.00000002    0.00348435
     atom    5 type  2   force =     0.00000000   -0.00000000   -0.00344961
     atom    6 type  2   force =     0.00000000    0.00000000    0.00344961
     atom    7 type  2   force =     0.00000000   -0.00000000   -0.00344963
     atom    8 type  2   force =     0.00000000    0.00000000    0.00344963
     atom    9 type  1   force =     0.00000000   -0.00743090    0.00100937
     atom   10 type  1   force =     0.00000000    0.00743090   -0.00100937
     atom   11 type  1   force =     0.00000000    0.00743078    0.00100939
     atom   12 type  1   force =     0.00000000   -0.00743078   -0.00100939
     atom   13 type  1   force =     0.00741705    0.00000000    0.00103208
     atom   14 type  1   force =    -0.00741705   -0.00000000   -0.00103208
     atom   15 type  1   force =    -0.00741705    0.00000000    0.00103209
     atom   16 type  1   force =     0.00741705   -0.00000000   -0.00103209
     atom   17 type  1   force =    -0.00741705   -0.00000000   -0.00103209
     atom   18 type  1   force =     0.00741705    0.00000000    0.00103209
     atom   19 type  1   force =     0.00741705   -0.00000000   -0.00103208
     atom   20 type  1   force =    -0.00741705    0.00000000    0.00103208
     atom   21 type  1   force =     0.00000000   -0.00743080    0.00100937
     atom   22 type  1   force =     0.00000000    0.00743080   -0.00100937
     atom   23 type  1   force =     0.00000000    0.00743086    0.00100940
     atom   24 type  1   force =     0.00000000   -0.00743086   -0.00100940

     Total force =     0.031538     Total SCF correction =     0.000273


     Computing stress (Cartesian axis) and pressure

          total   stress  (Ry/bohr**3)                   (kbar)     P=      -23.37
  -0.00018440   0.00000000   0.00000000          -27.13        0.00        0.00
   0.00000000  -0.00018446  -0.00000000            0.00      -27.14       -0.00
   0.00000000  -0.00000000  -0.00010777            0.00       -0.00      -15.85

     Energy error            =      3.8E-03 Ry
     Gradient error          =      7.4E-03 Ry/Bohr

     number of scf cycles    =   3
     number of bfgs steps    =   2

     energy             old  =    -275.8991561795 Ry
     energy             new  =    -275.9029099271 Ry

     CASE: energy            _new < energy            _old

     new trust radius        =       0.0089101455 bohr
     new conv_thr            =       0.0000000375 Ry


ATOMIC_POSITIONS (crystal)
O               -0.0000000000        0.2500000031        0.6115673763
O               -0.0000000000        0.7499999969        0.3884326527
O                0.5000000000        0.7500000014        0.1115673158
O                0.5000000000        0.2499999986        0.8884326552
O                0.0000000000        0.7500000012        0.8615776574
O                0.0000000000        0.2499999988        0.1384223716
O                0.5000000000        0.2500000019        0.3615776315
O                0.5000000000        0.7499999981        0.6384223395
H                0.0000000000        0.4081638802        0.6938000827
H                0.0000000000        0.5918360898        0.3061999173
H                0.5000000000        0.5918361094        0.1938000598
H                0.5000000000        0.4081638606        0.8061999402
H                0.8418320679        0.7499999993        0.9438034859
H                0.1581679021        0.2500000007        0.0561965141
H                0.6581679317        0.2499999993        0.4438034871
H                0.3418320983        0.7500000007        0.5561965129
H                0.6581679317        0.7500000007        0.5561965129
H                0.3418320983        0.2499999993        0.4438034871
H                0.8418320679        0.2500000007        0.0561965141
H                0.1581679021        0.7499999993        0.9438034859
H                0.5000000000        0.9081638906        0.1938000598
H                0.5000000000        0.0918361394        0.8061999402
H                0.0000000000        0.0918361205        0.6938000826
H                0.0000000000        0.9081639095        0.3061999174



     Writing config-only to output data dir ./iceVIII/iceVIII.save/ :
     XML data file
     NEW-OLD atomic charge density approx. for the potential

     total cpu time spent up to now is       83.1 secs

     per-process dynamical memory:    26.7 Mb

     Self-consistent Calculation

     iteration #  1     ecut=    90.00 Ry     beta= 0.70
     Davidson diagonalization with overlap
     ethr =  1.00E-06,  avg # of iterations =  3.0

     Threshold (ethr) on eigenvalues was too large:
     Diagonalizing with lowered threshold

     Davidson diagonalization with overlap
     ethr =  8.94E-08,  avg # of iterations =  2.1

     total cpu time spent up to now is       87.9 secs

     total energy              =    -275.90389956 Ry
     estimated scf accuracy    <       0.00006275 Ry

     iteration #  2     ecut=    90.00 Ry     beta= 0.70
     Davidson diagonalization with overlap
     ethr =  9.80E-08,  avg # of iterations =  2.0

     total cpu time spent up to now is       89.8 secs

     total energy              =    -275.90390725 Ry
     estimated scf accuracy    <       0.00000362 Ry

     iteration #  3     ecut=    90.00 Ry     beta= 0.70
     Davidson diagonalization with overlap
     ethr =  5.65E-09,  avg # of iterations =  2.9

     total cpu time spent up to now is       92.2 secs

     total energy              =    -275.90390799 Ry
     estimated scf accuracy    <       0.00000084 Ry

     iteration #  4     ecut=    90.00 Ry     beta= 0.70
     Davidson diagonalization with overlap
     ethr =  1.31E-09,  avg # of iterations =  2.0

     total cpu time spent up to now is       94.2 secs

     End of self-consistent calculation

     Number of k-points >= 100: set verbosity='high' to print the bands.

     highest occupied level (ev):    -1.5035

!    total energy              =    -275.90390816 Ry
     estimated scf accuracy    <       0.00000003 Ry

     The total energy is the sum of the following terms:
     one-electron contribution =    -150.88330999 Ry
     hartree contribution      =      99.75561798 Ry
     xc contribution           =     -67.49733588 Ry
     ewald contribution        =    -157.27888027 Ry

     convergence has been achieved in   4 iterations

     Forces acting on atoms (cartesian axes, Ry/au):

     atom    1 type  2   force =     0.00000000   -0.00000003   -0.00103395
     atom    2 type  2   force =     0.00000000    0.00000003    0.00103395
     atom    3 type  2   force =     0.00000000   -0.00000002   -0.00103397
     atom    4 type  2   force =     0.00000000    0.00000002    0.00103397
     atom    5 type  2   force =     0.00000000   -0.00000000   -0.00100300
     atom    6 type  2   force =     0.00000000    0.00000000    0.00100300
     atom    7 type  2   force =     0.00000000   -0.00000000   -0.00100303
     atom    8 type  2   force =     0.00000000    0.00000000    0.00100303
     atom    9 type  1   force =     0.00000000   -0.00494251   -0.00030338
     atom   10 type  1   force =     0.00000000    0.00494251    0.00030338
     atom   11 type  1   force =     0.00000000    0.00494246   -0.00030338
     atom   12 type  1   force =     0.00000000   -0.00494246    0.00030338
     atom   13 type  1   force =     0.00493617    0.00000000   -0.00027929
     atom   14 type  1   force =    -0.00493617   -0.00000000    0.00027929
     atom   15 type  1   force =    -0.00493617    0.00000000   -0.00027928
     atom   16 type  1   force =     0.00493617   -0.00000000    0.00027928
     atom   17 type  1   force =    -0.00493617   -0.00000000    0.00027928
     atom   18 type  1   force =     0.00493617    0.00000000   -0.00027928
     atom   19 type  1   force =     0.00493617   -0.00000000    0.00027929
     atom   20 type  1   force =    -0.00493617    0.00000000   -0.00027929
     atom   21 type  1   force =     0.00000000   -0.00494244   -0.00030337
     atom   22 type  1   force =     0.00000000    0.00494244    0.00030337
     atom   23 type  1   force =     0.00000000    0.00494254   -0.00030340
     atom   24 type  1   force =     0.00000000   -0.00494254    0.00030340

     Total force =     0.020000     Total SCF correction =     0.000430


     Computing stress (Cartesian axis) and pressure

          total   stress  (Ry/bohr**3)                   (kbar)     P=      -21.18
  -0.00015833   0.00000000   0.00000000          -23.29        0.00        0.00
   0.00000000  -0.00015834   0.00000000            0.00      -23.29        0.00
   0.00000000   0.00000000  -0.00011533            0.00        0.00      -16.97

     Energy error            =      1.0E-03 Ry
     Gradient error          =      4.9E-03 Ry/Bohr

     number of scf cycles    =   4
     number of bfgs steps    =   3

     energy             old  =    -275.9029099271 Ry
     energy             new  =    -275.9039081567 Ry

     CASE: energy            _new < energy            _old

     new trust radius        =       0.0098011600 bohr
     new conv_thr            =       0.0000000100 Ry


ATOMIC_POSITIONS (crystal)
O               -0.0000000000        0.2499999960        0.6110645616
O               -0.0000000000        0.7500000040        0.3889354674
O                0.5000000000        0.7499999980        0.1110645017
O                0.5000000000        0.2500000020        0.8889354693
O                0.0000000000        0.7500000011        0.8610798404
O                0.0000000000        0.2499999989        0.1389201886
O                0.5000000000        0.2500000015        0.3610798127
O                0.5000000000        0.7499999985        0.6389201583
H                0.0000000000        0.4071427780        0.6939208660
H                0.0000000000        0.5928571920        0.3060791340
H                0.5000000000        0.5928572047        0.1939208391
H                0.5000000000        0.4071427653        0.8060791609
H                0.8428513604        0.7499999995        0.9439278855
H                0.1571486096        0.2500000005        0.0560721145
H                0.6571486387        0.2499999996        0.4439278877
H                0.3428513913        0.7500000004        0.5560721123
H                0.6571486387        0.7500000004        0.5560721123
H                0.3428513913        0.2499999996        0.4439278877
H                0.8428513604        0.2500000005        0.0560721145
H                0.1571486096        0.7499999995        0.9439278855
H                0.5000000000        0.9071427984        0.1939208407
H                0.5000000000        0.0928572316        0.8060791593
H                0.0000000000        0.0928572293        0.6939208627
H                0.0000000000        0.9071428007        0.3060791373



     Writing config-only to output data dir ./iceVIII/iceVIII.save/ :
     XML data file
     NEW-OLD atomic charge density approx. for the potential

     total cpu time spent up to now is       96.4 secs

     per-process dynamical memory:    26.7 Mb

     Self-consistent Calculation

     iteration #  1     ecut=    90.00 Ry     beta= 0.70
     Davidson diagonalization with overlap
     ethr =  1.00E-06,  avg # of iterations =  3.0

     Threshold (ethr) on eigenvalues was too large:
     Diagonalizing with lowered threshold

     Davidson diagonalization with overlap
     ethr =  8.73E-08,  avg # of iterations =  3.2

     total cpu time spent up to now is      101.2 secs

     total energy              =    -275.90439649 Ry
     estimated scf accuracy    <       0.00006193 Ry

     iteration #  2     ecut=    90.00 Ry     beta= 0.70
     Davidson diagonalization with overlap
     ethr =  9.68E-08,  avg # of iterations =  2.0

     total cpu time spent up to now is      103.0 secs

     total energy              =    -275.90440370 Ry
     estimated scf accuracy    <       0.00000311 Ry

     iteration #  3     ecut=    90.00 Ry     beta= 0.70
     Davidson diagonalization with overlap
     ethr =  4.86E-09,  avg # of iterations =  2.0

     total cpu time spent up to now is      105.0 secs

     total energy              =    -275.90440415 Ry
     estimated scf accuracy    <       0.00000015 Ry

     iteration #  4     ecut=    90.00 Ry     beta= 0.70
     Davidson diagonalization with overlap
     ethr =  2.40E-10,  avg # of iterations =  3.0

     total cpu time spent up to now is      107.4 secs

     total energy              =    -275.90440420 Ry
     estimated scf accuracy    <       0.00000001 Ry

     iteration #  5     ecut=    90.00 Ry     beta= 0.70
     Davidson diagonalization with overlap
     ethr =  2.33E-11,  avg # of iterations =  3.0

     total cpu time spent up to now is      110.0 secs

     End of self-consistent calculation

     Number of k-points >= 100: set verbosity='high' to print the bands.

     highest occupied level (ev):    -1.5122

!    total energy              =    -275.90440420 Ry
     estimated scf accuracy    <          8.6E-10 Ry

     The total energy is the sum of the following terms:
     one-electron contribution =    -151.09078320 Ry
     hartree contribution      =      99.84406716 Ry
     xc contribution           =     -67.51586351 Ry
     ewald contribution        =    -157.14182464 Ry

     convergence has been achieved in   5 iterations

     Forces acting on atoms (cartesian axes, Ry/au):

     atom    1 type  2   force =     0.00000000    0.00000010   -0.00025589
     atom    2 type  2   force =     0.00000000   -0.00000010    0.00025589
     atom    3 type  2   force =     0.00000000    0.00000005   -0.00025586
     atom    4 type  2   force =     0.00000000   -0.00000005    0.00025586
     atom    5 type  2   force =     0.00000000   -0.00000000   -0.00023369
     atom    6 type  2   force =     0.00000000    0.00000000    0.00023369
     atom    7 type  2   force =     0.00000000   -0.00000000   -0.00023369
     atom    8 type  2   force =     0.00000000    0.00000000    0.00023369
     atom    9 type  1   force =     0.00000000   -0.00117842   -0.00062057
     atom   10 type  1   force =     0.00000000    0.00117842    0.00062057
     atom   11 type  1   force =     0.00000000    0.00117833   -0.00062052
     atom   12 type  1   force =     0.00000000   -0.00117833    0.00062052
     atom   13 type  1   force =     0.00117758   -0.00000000   -0.00059413
     atom   14 type  1   force =    -0.00117758    0.00000000    0.00059413
     atom   15 type  1   force =    -0.00117759   -0.00000000   -0.00059414
     atom   16 type  1   force =     0.00117759    0.00000000    0.00059414
     atom   17 type  1   force =    -0.00117759    0.00000000    0.00059414
     atom   18 type  1   force =     0.00117759   -0.00000000   -0.00059414
     atom   19 type  1   force =     0.00117758    0.00000000    0.00059413
     atom   20 type  1   force =    -0.00117758   -0.00000000   -0.00059413
     atom   21 type  1   force =     0.00000000   -0.00117838   -0.00062055
     atom   22 type  1   force =     0.00000000    0.00117838    0.00062055
     atom   23 type  1   force =     0.00000000    0.00117832   -0.00062049
     atom   24 type  1   force =     0.00000000   -0.00117832    0.00062049

     Total force =     0.005347     Total SCF correction =     0.000048


     Computing stress (Cartesian axis) and pressure

          total   stress  (Ry/bohr**3)                   (kbar)     P=      -17.36
  -0.00012186   0.00000000   0.00000000          -17.93        0.00        0.00
   0.00000000  -0.00012181  -0.00000000            0.00      -17.92       -0.00
   0.00000000  -0.00000000  -0.00011038            0.00       -0.00      -16.24

     Energy error            =      5.0E-04 Ry
     Gradient error          =      1.2E-03 Ry/Bohr

     number of scf cycles    =   5
     number of bfgs steps    =   4

     energy             old  =    -275.9039081567 Ry
     energy             new  =    -275.9044042014 Ry

     CASE: energy            _new < energy            _old

     new trust radius        =       0.0027818024 bohr
     new conv_thr            =       0.0000000050 Ry


ATOMIC_POSITIONS (crystal)
O                0.0000000000        0.2500000091        0.6109102962
O                0.0000000000        0.7499999909        0.3890897328
O                0.5000000000        0.7500000042        0.1109102397
O                0.5000000000        0.2499999958        0.8890897313
O                0.0000000000        0.7500000007        0.8609284273
O                0.0000000000        0.2499999993        0.1390716017
O                0.5000000000        0.2500000012        0.3609284000
O                0.5000000000        0.7499999988        0.6390715710
H                0.0000000000        0.4068493780        0.6939078312
H                0.0000000000        0.5931505920        0.3060921688
H                0.5000000000        0.5931505927        0.1939078075
H                0.5000000000        0.4068493773        0.8060921925
H                0.8431443201        0.7499999996        0.9439178508
H                0.1568556499        0.2500000004        0.0560821492
H                0.6568556781        0.2499999996        0.4439178528
H                0.3431443519        0.7500000004        0.5560821472
H                0.6568556781        0.7500000004        0.5560821472
H                0.3431443519        0.2499999996        0.4439178528
H                0.8431443201        0.2500000004        0.0560821492
H                0.1568556499        0.7499999996        0.9439178508
H                0.5000000000        0.9068494046        0.1939078059
H                0.5000000000        0.0931506254        0.8060921941
H                0.0000000000        0.0931506167        0.6939078345
H                0.0000000000        0.9068494133        0.3060921655



     Writing config-only to output data dir ./iceVIII/iceVIII.save/ :
     XML data file
     NEW-OLD atomic charge density approx. for the potential

     total cpu time spent up to now is      112.2 secs

     per-process dynamical memory:    26.7 Mb

     Self-consistent Calculation

     iteration #  1     ecut=    90.00 Ry     beta= 0.70
     Davidson diagonalization with overlap
     ethr =  1.00E-06,  avg # of iterations =  2.0

     Threshold (ethr) on eigenvalues was too large:
     Diagonalizing with lowered threshold

     Davidson diagonalization with overlap
     ethr =  7.37E-09,  avg # of iterations =  4.4

     total cpu time spent up to now is      117.0 secs

     total energy              =    -275.90443496 Ry
     estimated scf accuracy    <       0.00000626 Ry

     iteration #  2     ecut=    90.00 Ry     beta= 0.70
     Davidson diagonalization with overlap
     ethr =  9.77E-09,  avg # of iterations =  2.0

     total cpu time spent up to now is      119.1 secs

     total energy              =    -275.90443575 Ry
     estimated scf accuracy    <       0.00000065 Ry

     iteration #  3     ecut=    90.00 Ry     beta= 0.70
     Davidson diagonalization with overlap
     ethr =  1.01E-09,  avg # of iterations =  2.0

     total cpu time spent up to now is      121.4 secs

     total energy              =    -275.90443592 Ry
     estimated scf accuracy    <       0.00000007 Ry

     iteration #  4     ecut=    90.00 Ry     beta= 0.70
     Davidson diagonalization with overlap
     ethr =  1.11E-10,  avg # of iterations =  2.0

     total cpu time spent up to now is      123.2 secs

     End of self-consistent calculation

     Number of k-points >= 100: set verbosity='high' to print the bands.

     highest occupied level (ev):    -1.5150

!    total energy              =    -275.90443592 Ry
     estimated scf accuracy    <          3.2E-09 Ry

     The total energy is the sum of the following terms:
     one-electron contribution =    -151.17251128 Ry
     hartree contribution      =      99.87994087 Ry
     xc contribution           =     -67.52330769 Ry
     ewald contribution        =    -157.08855783 Ry

     convergence has been achieved in   4 iterations

     Forces acting on atoms (cartesian axes, Ry/au):

     atom    1 type  2   force =     0.00000000   -0.00000015   -0.00043483
     atom    2 type  2   force =     0.00000000    0.00000015    0.00043483
     atom    3 type  2   force =     0.00000000   -0.00000007   -0.00043484
     atom    4 type  2   force =     0.00000000    0.00000007    0.00043484
     atom    5 type  2   force =    -0.00000000    0.00000000   -0.00040951
     atom    6 type  2   force =    -0.00000000   -0.00000000    0.00040951
     atom    7 type  2   force =     0.00000000   -0.00000000   -0.00040952
     atom    8 type  2   force =     0.00000000    0.00000000    0.00040952
     atom    9 type  1   force =     0.00000000    0.00006218   -0.00051300
     atom   10 type  1   force =     0.00000000   -0.00006218    0.00051300
     atom   11 type  1   force =     0.00000000   -0.00006209   -0.00051307
     atom   12 type  1   force =     0.00000000    0.00006209    0.00051307
     atom   13 type  1   force =    -0.00005957    0.00000000   -0.00048876
     atom   14 type  1   force =     0.00005957   -0.00000000    0.00048876
     atom   15 type  1   force =     0.00005958    0.00000000   -0.00048876
     atom   16 type  1   force =    -0.00005958   -0.00000000    0.00048876
     atom   17 type  1   force =     0.00005958   -0.00000000    0.00048876
     atom   18 type  1   force =    -0.00005958    0.00000000   -0.00048876
     atom   19 type  1   force =    -0.00005957   -0.00000000    0.00048876
     atom   20 type  1   force =     0.00005957    0.00000000   -0.00048876
     atom   21 type  1   force =     0.00000000    0.00006216   -0.00051302
     atom   22 type  1   force =     0.00000000   -0.00006216    0.00051302
     atom   23 type  1   force =     0.00000000   -0.00006203   -0.00051311
     atom   24 type  1   force =     0.00000000    0.00006203    0.00051311

     Total force =     0.002346     Total SCF correction =     0.000019


     Computing stress (Cartesian axis) and pressure

          total   stress  (Ry/bohr**3)                   (kbar)     P=      -15.92
  -0.00010943   0.00000000   0.00000000          -16.10        0.00        0.00
   0.00000000  -0.00010938   0.00000000            0.00      -16.09        0.00
   0.00000000   0.00000000  -0.00010587            0.00        0.00      -15.57

     Energy error            =      3.2E-05 Ry
     Gradient error          =      5.1E-04 Ry/Bohr

     number of scf cycles    =   6
     number of bfgs steps    =   5

     energy             old  =    -275.9044042014 Ry
     energy             new  =    -275.9044359245 Ry

     CASE: energy            _new < energy            _old

     new trust radius        =       0.0007471449 bohr
     new conv_thr            =       0.0000000010 Ry


ATOMIC_POSITIONS (crystal)
O                0.0000000000        0.2499999925        0.6108555443
O                0.0000000000        0.7500000075        0.3891444847
O                0.5000000000        0.7499999964        0.1108554873
O                0.5000000000        0.2500000036        0.8891444837
O                0.0000000000        0.7500000009        0.8608760555
O                0.0000000000        0.2499999991        0.1391239735
O                0.5000000000        0.2500000010        0.3608760276
O                0.5000000000        0.7499999990        0.6391239434
H                0.0000000000        0.4068191130        0.6938658711
H                0.0000000000        0.5931808570        0.3061341289
H                0.5000000000        0.5931808665        0.1938658422
H                0.5000000000        0.4068191035        0.8061341578
H                0.8431748305        0.7499999997        0.9438781900
H                0.1568251395        0.2500000003        0.0561218100
H                0.6568251683        0.2499999999        0.4438781923
H                0.3431748617        0.7500000001        0.5561218077
H                0.6568251683        0.7500000001        0.5561218077
H                0.3431748617        0.2499999999        0.4438781923
H                0.8431748305        0.2500000003        0.0561218100
H                0.1568251395        0.7499999997        0.9438781900
H                0.5000000000        0.9068191381        0.1938658444
H                0.5000000000        0.0931808919        0.8061341556
H                0.0000000000        0.0931808974        0.6938658664
H                0.0000000000        0.9068191326        0.3061341336



     Writing config-only to output data dir ./iceVIII/iceVIII.save/ :
     XML data file
     NEW-OLD atomic charge density approx. for the potential

     total cpu time spent up to now is      125.4 secs

     per-process dynamical memory:    26.7 Mb

     Self-consistent Calculation

     iteration #  1     ecut=    90.00 Ry     beta= 0.70
     Davidson diagonalization with overlap
     ethr =  1.00E-06,  avg # of iterations =  2.0

     Threshold (ethr) on eigenvalues was too large:
     Diagonalizing with lowered threshold

     Davidson diagonalization with overlap
     ethr =  4.98E-10,  avg # of iterations =  4.2

     total cpu time spent up to now is      130.8 secs

     total energy              =    -275.90444210 Ry
     estimated scf accuracy    <       0.00000055 Ry

     iteration #  2     ecut=    90.00 Ry     beta= 0.70
     Davidson diagonalization with overlap
     ethr =  8.53E-10,  avg # of iterations =  2.0

     total cpu time spent up to now is      132.8 secs

     total energy              =    -275.90444218 Ry
     estimated scf accuracy    <       0.00000003 Ry

     iteration #  3     ecut=    90.00 Ry     beta= 0.70
     Davidson diagonalization with overlap
     ethr =  4.34E-11,  avg # of iterations =  2.0

     total cpu time spent up to now is      134.9 secs

     total energy              =    -275.90444218 Ry
     estimated scf accuracy    <          2.7E-09 Ry

     iteration #  4     ecut=    90.00 Ry     beta= 0.70
     Davidson diagonalization with overlap
     ethr =  4.28E-12,  avg # of iterations =  2.2

     total cpu time spent up to now is      137.2 secs

     End of self-consistent calculation

     Number of k-points >= 100: set verbosity='high' to print the bands.

     highest occupied level (ev):    -1.5154

!    total energy              =    -275.90444218 Ry
     estimated scf accuracy    <          2.7E-10 Ry

     The total energy is the sum of the following terms:
     one-electron contribution =    -151.18419162 Ry
     hartree contribution      =      99.88477951 Ry
     xc contribution           =     -67.52401522 Ry
     ewald contribution        =    -157.08101485 Ry

     convergence has been achieved in   4 iterations

     Forces acting on atoms (cartesian axes, Ry/au):

     atom    1 type  2   force =     0.00000000    0.00000017   -0.00045409
     atom    2 type  2   force =     0.00000000   -0.00000017    0.00045409
     atom    3 type  2   force =    -0.00000000    0.00000008   -0.00045407
     atom    4 type  2   force =    -0.00000000   -0.00000008    0.00045407
     atom    5 type  2   force =     0.00000000   -0.00000000   -0.00043138
     atom    6 type  2   force =     0.00000000    0.00000000    0.00043138
     atom    7 type  2   force =    -0.00000000   -0.00000000   -0.00043138
     atom    8 type  2   force =    -0.00000000    0.00000000    0.00043138
     atom    9 type  1   force =     0.00000000    0.00020054   -0.00048791
     atom   10 type  1   force =     0.00000000   -0.00020054    0.00048791
     atom   11 type  1   force =     0.00000000   -0.00020066   -0.00048782
     atom   12 type  1   force =     0.00000000    0.00020066    0.00048782
     atom   13 type  1   force =    -0.00020020   -0.00000000   -0.00046259
     atom   14 type  1   force =     0.00020020    0.00000000    0.00046259
     atom   15 type  1   force =     0.00020020   -0.00000000   -0.00046259
     atom   16 type  1   force =    -0.00020020    0.00000000    0.00046259
     atom   17 type  1   force =     0.00020020    0.00000000    0.00046259
     atom   18 type  1   force =    -0.00020020   -0.00000000   -0.00046259
     atom   19 type  1   force =    -0.00020020    0.00000000    0.00046259
     atom   20 type  1   force =     0.00020020   -0.00000000   -0.00046259
     atom   21 type  1   force =     0.00000000    0.00020058   -0.00048788
     atom   22 type  1   force =     0.00000000   -0.00020058    0.00048788
     atom   23 type  1   force =     0.00000000   -0.00020070   -0.00048778
     atom   24 type  1   force =     0.00000000    0.00020070    0.00048778

     Total force =     0.002414     Total SCF correction =     0.000011


     Computing stress (Cartesian axis) and pressure

          total   stress  (Ry/bohr**3)                   (kbar)     P=      -15.84
  -0.00010866   0.00000000   0.00000000          -15.98        0.00        0.00
   0.00000000  -0.00010863  -0.00000000            0.00      -15.98       -0.00
   0.00000000  -0.00000000  -0.00010585            0.00       -0.00      -15.57

     Energy error            =      6.3E-06 Ry
     Gradient error          =      4.9E-04 Ry/Bohr

     number of scf cycles    =   7
     number of bfgs steps    =   6

     energy             old  =    -275.9044359245 Ry
     energy             new  =    -275.9044421812 Ry

     CASE: energy            _new < energy            _old


     WARNING: bfgs curvature condition failed, Theta= 0.902
     new trust radius        =       0.0008218594 bohr
     new conv_thr            =       0.0000000010 Ry


ATOMIC_POSITIONS (crystal)
O                0.0000000000        0.2499999962        0.6107953166
O                0.0000000000        0.7500000038        0.3892047124
O                0.5000000000        0.7499999981        0.1107952603
O                0.5000000000        0.2500000019        0.8892047107
O               -0.0000000000        0.7500000008        0.8608186084
O               -0.0000000000        0.2499999992        0.1391814206
O                0.5000000000        0.2500000009        0.3608185804
O                0.5000000000        0.7499999991        0.6391813906
H                0.0000000000        0.4068024409        0.6938117393
H                0.0000000000        0.5931975291        0.3061882607
H                0.5000000000        0.5931975345        0.1938117120
H                0.5000000000        0.4068024355        0.8061882880
H                0.8431916635        0.7499999998        0.9438269439
H                0.1568083065        0.2500000002        0.0561730561
H                0.6568083353        0.2499999999        0.4438269462
H                0.3431916947        0.7500000001        0.5561730538
H                0.6568083353        0.7500000001        0.5561730538
H                0.3431916947        0.2499999999        0.4438269462
H                0.8431916635        0.2500000002        0.0561730561
H                0.1568083065        0.7499999998        0.9438269439
H                0.5000000000        0.9068024685        0.1938117133
H                0.5000000000        0.0931975615        0.8061882867
H                0.0000000000        0.0931975659        0.6938117366
H                0.0000000000        0.9068024641        0.3061882634



     Writing config-only to output data dir ./iceVIII/iceVIII.save/ :
     XML data file
     NEW-OLD atomic charge density approx. for the potential

     total cpu time spent up to now is      139.4 secs

     per-process dynamical memory:    26.7 Mb

     Self-consistent Calculation

     iteration #  1     ecut=    90.00 Ry     beta= 0.70
     Davidson diagonalization with overlap
     ethr =  1.00E-06,  avg # of iterations =  2.0

     Threshold (ethr) on eigenvalues was too large:
     Diagonalizing with lowered threshold

     Davidson diagonalization with overlap
     ethr =  6.41E-10,  avg # of iterations =  4.0

     total cpu time spent up to now is      144.7 secs

     total energy              =    -275.90444973 Ry
     estimated scf accuracy    <       0.00000069 Ry

     iteration #  2     ecut=    90.00 Ry     beta= 0.70
     Davidson diagonalization with overlap
     ethr =  1.08E-09,  avg # of iterations =  2.0

     total cpu time spent up to now is      146.8 secs

     total energy              =    -275.90444983 Ry
     estimated scf accuracy    <       0.00000004 Ry

     iteration #  3     ecut=    90.00 Ry     beta= 0.70
     Davidson diagonalization with overlap
     ethr =  6.37E-11,  avg # of iterations =  2.0

     total cpu time spent up to now is      148.9 secs

     total energy              =    -275.90444984 Ry
     estimated scf accuracy    <          4.9E-09 Ry

     iteration #  4     ecut=    90.00 Ry     beta= 0.70
     Davidson diagonalization with overlap
     ethr =  7.65E-12,  avg # of iterations =  2.0

     total cpu time spent up to now is      151.1 secs

     End of self-consistent calculation

     Number of k-points >= 100: set verbosity='high' to print the bands.

     highest occupied level (ev):    -1.5158

!    total energy              =    -275.90444984 Ry
     estimated scf accuracy    <          2.8E-10 Ry

     The total energy is the sum of the following terms:
     one-electron contribution =    -151.19360762 Ry
     hartree contribution      =      99.88919719 Ry
     xc contribution           =     -67.52454840 Ry
     ewald contribution        =    -157.07549100 Ry

     convergence has been achieved in   4 iterations

     Forces acting on atoms (cartesian axes, Ry/au):

     atom    1 type  2   force =    -0.00000000    0.00000010   -0.00046566
     atom    2 type  2   force =    -0.00000000   -0.00000010    0.00046566
     atom    3 type  2   force =    -0.00000000    0.00000005   -0.00046564
     atom    4 type  2   force =    -0.00000000   -0.00000005    0.00046564
     atom    5 type  2   force =     0.00000000   -0.00000000   -0.00044532
     atom    6 type  2   force =     0.00000000    0.00000000    0.00044532
     atom    7 type  2   force =     0.00000000   -0.00000000   -0.00044531
     atom    8 type  2   force =     0.00000000    0.00000000    0.00044531
     atom    9 type  1   force =     0.00000000    0.00027911   -0.00047031
     atom   10 type  1   force =     0.00000000   -0.00027911    0.00047031
     atom   11 type  1   force =     0.00000000   -0.00027917   -0.00047027
     atom   12 type  1   force =     0.00000000    0.00027917    0.00047027
     atom   13 type  1   force =    -0.00027933   -0.00000000   -0.00044544
     atom   14 type  1   force =     0.00027933    0.00000000    0.00044544
     atom   15 type  1   force =     0.00027933   -0.00000000   -0.00044545
     atom   16 type  1   force =    -0.00027933    0.00000000    0.00044545
     atom   17 type  1   force =     0.00027933    0.00000000    0.00044545
     atom   18 type  1   force =    -0.00027933   -0.00000000   -0.00044545
     atom   19 type  1   force =    -0.00027933    0.00000000    0.00044544
     atom   20 type  1   force =     0.00027933   -0.00000000   -0.00044544
     atom   21 type  1   force =     0.00000000    0.00027912   -0.00047030
     atom   22 type  1   force =     0.00000000   -0.00027912    0.00047030
     atom   23 type  1   force =     0.00000000   -0.00027920   -0.00047024
     atom   24 type  1   force =     0.00000000    0.00027920    0.00047024

     Total force =     0.002503     Total SCF correction =     0.000006


     Computing stress (Cartesian axis) and pressure

          total   stress  (Ry/bohr**3)                   (kbar)     P=      -15.74
  -0.00010782   0.00000000   0.00000000          -15.86        0.00        0.00
   0.00000000  -0.00010781  -0.00000000            0.00      -15.86       -0.00
   0.00000000  -0.00000000  -0.00010544            0.00       -0.00      -15.51

     Energy error            =      7.7E-06 Ry
     Gradient error          =      4.7E-04 Ry/Bohr

     number of scf cycles    =   8
     number of bfgs steps    =   7

     energy             old  =    -275.9044421812 Ry
     energy             new  =    -275.9044498370 Ry

     CASE: energy            _new < energy            _old

     new trust radius        =       0.0012327891 bohr
     new conv_thr            =       0.0000000010 Ry


ATOMIC_POSITIONS (crystal)
O                0.0000000000        0.2499999853        0.6107049751
O                0.0000000000        0.7500000147        0.3892950539
O                0.5000000000        0.7499999931        0.1107049199
O                0.5000000000        0.2500000069        0.8892950511
O                0.0000000000        0.7500000010        0.8607324732
O                0.0000000000        0.2499999990        0.1392675558
O                0.5000000000        0.2500000006        0.3607324450
O                0.5000000000        0.7499999994        0.6392675260
H                0.0000000000        0.4067891416        0.6937252450
H                0.0000000000        0.5932108284        0.3062747550
H                0.5000000000        0.5932108390        0.1937252144
H                0.5000000000        0.4067891310        0.8062747856
H                0.8432052153        0.7500000000        0.9437449368
H                0.1567947547        0.2500000000        0.0562550632
H                0.6567947838        0.2500000002        0.4437449392
H                0.3432052462        0.7499999998        0.5562550608
H                0.6567947838        0.7499999998        0.5562550608
H                0.3432052462        0.2500000002        0.4437449392
H                0.8432052153        0.2500000000        0.0562550632
H                0.1567947547        0.7500000000        0.9437449368
H                0.5000000000        0.9067891687        0.1937252180
H                0.5000000000        0.0932108613        0.8062747820
H                0.0000000000        0.0932108752        0.6937252371
H                0.0000000000        0.9067891548        0.3062747629



     Writing config-only to output data dir ./iceVIII/iceVIII.save/ :
     XML data file
     NEW-OLD atomic charge density approx. for the potential

     total cpu time spent up to now is      153.3 secs

     per-process dynamical memory:    26.7 Mb

     Self-consistent Calculation

     iteration #  1     ecut=    90.00 Ry     beta= 0.70
     Davidson diagonalization with overlap
     ethr =  1.00E-06,  avg # of iterations =  2.0

     Threshold (ethr) on eigenvalues was too large:
     Diagonalizing with lowered threshold

     Davidson diagonalization with overlap
     ethr =  1.48E-09,  avg # of iterations =  4.0

     total cpu time spent up to now is      158.5 secs

     total energy              =    -275.90446164 Ry
     estimated scf accuracy    <       0.00000158 Ry

     iteration #  2     ecut=    90.00 Ry     beta= 0.70
     Davidson diagonalization with overlap
     ethr =  2.47E-09,  avg # of iterations =  2.0

     total cpu time spent up to now is      160.5 secs

     total energy              =    -275.90446186 Ry
     estimated scf accuracy    <       0.00000008 Ry

     iteration #  3     ecut=    90.00 Ry     beta= 0.70
     Davidson diagonalization with overlap
     ethr =  1.29E-10,  avg # of iterations =  2.0

     total cpu time spent up to now is      162.7 secs

     total energy              =    -275.90446187 Ry
     estimated scf accuracy    <          7.4E-09 Ry

     iteration #  4     ecut=    90.00 Ry     beta= 0.70
     Davidson diagonalization with overlap
     ethr =  1.16E-11,  avg # of iterations =  2.1

     total cpu time spent up to now is      164.9 secs

     End of self-consistent calculation

     Number of k-points >= 100: set verbosity='high' to print the bands.

     highest occupied level (ev):    -1.5162

!    total energy              =    -275.90446188 Ry
     estimated scf accuracy    <          7.6E-10 Ry

     The total energy is the sum of the following terms:
     one-electron contribution =    -151.20462318 Ry
     hartree contribution      =      99.89439428 Ry
     xc contribution           =     -67.52499769 Ry
     ewald contribution        =    -157.06923528 Ry

     convergence has been achieved in   4 iterations

     Forces acting on atoms (cartesian axes, Ry/au):

     atom    1 type  2   force =    -0.00000000    0.00000031   -0.00047111
     atom    2 type  2   force =    -0.00000000   -0.00000031    0.00047111
     atom    3 type  2   force =     0.00000000    0.00000014   -0.00047108
     atom    4 type  2   force =     0.00000000   -0.00000014    0.00047108
     atom    5 type  2   force =    -0.00000000   -0.00000001   -0.00045041
     atom    6 type  2   force =    -0.00000000    0.00000001    0.00045041
     atom    7 type  2   force =     0.00000000   -0.00000000   -0.00045040
     atom    8 type  2   force =     0.00000000    0.00000000    0.00045040
     atom    9 type  1   force =     0.00000000    0.00034605   -0.00044991
     atom   10 type  1   force =     0.00000000   -0.00034605    0.00044991
     atom   11 type  1   force =     0.00000000   -0.00034625   -0.00044976
     atom   12 type  1   force =     0.00000000    0.00034625    0.00044976
     atom   13 type  1   force =    -0.00034717   -0.00000000   -0.00042605
     atom   14 type  1   force =     0.00034717    0.00000000    0.00042605
     atom   15 type  1   force =     0.00034717   -0.00000000   -0.00042605
     atom   16 type  1   force =    -0.00034717    0.00000000    0.00042605
     atom   17 type  1   force =     0.00034717    0.00000000    0.00042605
     atom   18 type  1   force =    -0.00034717   -0.00000000   -0.00042605
     atom   19 type  1   force =    -0.00034717    0.00000000    0.00042605
     atom   20 type  1   force =     0.00034717   -0.00000000   -0.00042605
     atom   21 type  1   force =     0.00000000    0.00034611   -0.00044986
     atom   22 type  1   force =     0.00000000   -0.00034611    0.00044986
     atom   23 type  1   force =     0.00000000   -0.00034634   -0.00044969
     atom   24 type  1   force =     0.00000000    0.00034634    0.00044969

     Total force =     0.002587     Total SCF correction =     0.000018


     Computing stress (Cartesian axis) and pressure

          total   stress  (Ry/bohr**3)                   (kbar)     P=      -15.67
  -0.00010722   0.00000000   0.00000000          -15.77        0.00        0.00
   0.00000000  -0.00010721  -0.00000000            0.00      -15.77       -0.00
   0.00000000  -0.00000000  -0.00010517            0.00       -0.00      -15.47

     Energy error            =      1.2E-05 Ry
     Gradient error          =      4.7E-04 Ry/Bohr

     number of scf cycles    =   9
     number of bfgs steps    =   8

     energy             old  =    -275.9044498370 Ry
     energy             new  =    -275.9044618753 Ry

     CASE: energy            _new < energy            _old

     new trust radius        =       0.0018491836 bohr
     new conv_thr            =       0.0000000010 Ry


ATOMIC_POSITIONS (crystal)
O                0.0000000000        0.2499999960        0.6105694627
O                0.0000000000        0.7500000040        0.3894305663
O                0.5000000000        0.7499999979        0.1105694093
O                0.5000000000        0.2500000021        0.8894305617
O               -0.0000000000        0.7500000006        0.8606035720
O               -0.0000000000        0.2499999994        0.1393964570
O                0.5000000000        0.2500000000        0.3606035436
O                0.5000000000        0.7500000000        0.6393964274
H                0.0000000000        0.4067788340        0.6935911142
H                0.0000000000        0.5932211360        0.3064088858
H                0.5000000000        0.5932211365        0.1935910883
H                0.5000000000        0.4067788335        0.8064089117
H                0.8432158545        0.7500000001        0.9436176332
H                0.1567841155        0.2499999999        0.0563823668
H                0.6567841448        0.2500000003        0.4436176354
H                0.3432158852        0.7499999997        0.5563823646
H                0.6567841448        0.7499999997        0.5563823646
H                0.3432158852        0.2500000003        0.4436176354
H                0.8432158545        0.2499999999        0.0563823668
H                0.1567841155        0.7500000001        0.9436176332
H                0.5000000000        0.9067788665        0.1935910894
H                0.5000000000        0.0932211635        0.8064089106
H                0.0000000000        0.0932211723        0.6935911120
H                0.0000000000        0.9067788577        0.3064088880



     Writing config-only to output data dir ./iceVIII/iceVIII.save/ :
     XML data file
     NEW-OLD atomic charge density approx. for the potential

     total cpu time spent up to now is      167.1 secs

     per-process dynamical memory:    26.7 Mb

     Self-consistent Calculation

     iteration #  1     ecut=    90.00 Ry     beta= 0.70
     Davidson diagonalization with overlap
     ethr =  1.00E-06,  avg # of iterations =  2.0

     Threshold (ethr) on eigenvalues was too large:
     Diagonalizing with lowered threshold

     Davidson diagonalization with overlap
     ethr =  3.42E-09,  avg # of iterations =  4.0

     total cpu time spent up to now is      172.3 secs

     total energy              =    -275.90447957 Ry
     estimated scf accuracy    <       0.00000361 Ry

     iteration #  2     ecut=    90.00 Ry     beta= 0.70
     Davidson diagonalization with overlap
     ethr =  5.63E-09,  avg # of iterations =  2.0

     total cpu time spent up to now is      174.3 secs

     total energy              =    -275.90448008 Ry
     estimated scf accuracy    <       0.00000019 Ry

     iteration #  3     ecut=    90.00 Ry     beta= 0.70
     Davidson diagonalization with overlap
     ethr =  2.90E-10,  avg # of iterations =  2.0

     total cpu time spent up to now is      176.3 secs

     total energy              =    -275.90448010 Ry
     estimated scf accuracy    <       0.00000001 Ry

     iteration #  4     ecut=    90.00 Ry     beta= 0.70
     Davidson diagonalization with overlap
     ethr =  2.33E-11,  avg # of iterations =  2.7

     total cpu time spent up to now is      178.7 secs

     total energy              =    -275.90448011 Ry
     estimated scf accuracy    <          1.9E-09 Ry

     iteration #  5     ecut=    90.00 Ry     beta= 0.70
     Davidson diagonalization with overlap
     ethr =  3.01E-12,  avg # of iterations =  2.1

     total cpu time spent up to now is      180.9 secs

     End of self-consistent calculation

     Number of k-points >= 100: set verbosity='high' to print the bands.

     highest occupied level (ev):    -1.5170

!    total energy              =    -275.90448011 Ry
     estimated scf accuracy    <          4.4E-11 Ry

     The total energy is the sum of the following terms:
     one-electron contribution =    -151.21907375 Ry
     hartree contribution      =      99.90150358 Ry
     xc contribution           =     -67.52548252 Ry
     ewald contribution        =    -157.06142742 Ry

     convergence has been achieved in   5 iterations

     Forces acting on atoms (cartesian axes, Ry/au):

     atom    1 type  2   force =     0.00000000    0.00000009   -0.00046600
     atom    2 type  2   force =     0.00000000   -0.00000009    0.00046600
     atom    3 type  2   force =    -0.00000000    0.00000005   -0.00046597
     atom    4 type  2   force =    -0.00000000   -0.00000005    0.00046597
     atom    5 type  2   force =     0.00000000   -0.00000000   -0.00045147
     atom    6 type  2   force =     0.00000000    0.00000000    0.00045147
     atom    7 type  2   force =     0.00000000   -0.00000000   -0.00045146
     atom    8 type  2   force =     0.00000000    0.00000000    0.00045146
     atom    9 type  1   force =     0.00000000    0.00040494   -0.00042449
     atom   10 type  1   force =     0.00000000   -0.00040494    0.00042449
     atom   11 type  1   force =     0.00000000   -0.00040498   -0.00042445
     atom   12 type  1   force =     0.00000000    0.00040498    0.00042445
     atom   13 type  1   force =    -0.00040765   -0.00000000   -0.00040142
     atom   14 type  1   force =     0.00040765    0.00000000    0.00040142
     atom   15 type  1   force =     0.00040764   -0.00000000   -0.00040143
     atom   16 type  1   force =    -0.00040764    0.00000000    0.00040143
     atom   17 type  1   force =     0.00040764    0.00000000    0.00040143
     atom   18 type  1   force =    -0.00040764   -0.00000000   -0.00040143
     atom   19 type  1   force =    -0.00040765    0.00000000    0.00040142
     atom   20 type  1   force =     0.00040765   -0.00000000   -0.00040142
     atom   21 type  1   force =     0.00000000    0.00040494   -0.00042449
     atom   22 type  1   force =     0.00000000   -0.00040494    0.00042449
     atom   23 type  1   force =     0.00000000   -0.00040503   -0.00042443
     atom   24 type  1   force =     0.00000000    0.00040503    0.00042443

     Total force =     0.002656     Total SCF correction =     0.000010


     Computing stress (Cartesian axis) and pressure

          total   stress  (Ry/bohr**3)                   (kbar)     P=      -15.57
  -0.00010643   0.00000000   0.00000000          -15.66        0.00        0.00
   0.00000000  -0.00010643  -0.00000000            0.00      -15.66       -0.00
   0.00000000  -0.00000000  -0.00010464            0.00       -0.00      -15.39

     Energy error            =      1.8E-05 Ry
     Gradient error          =      4.7E-04 Ry/Bohr

     number of scf cycles    =  10
     number of bfgs steps    =   9

     energy             old  =    -275.9044618753 Ry
     energy             new  =    -275.9044801091 Ry

     CASE: energy            _new < energy            _old

     new trust radius        =       0.0027737754 bohr
     new conv_thr            =       0.0000000010 Ry


ATOMIC_POSITIONS (crystal)
O                0.0000000000        0.2499999729        0.6103687972
O                0.0000000000        0.7500000271        0.3896312318
O                0.5000000000        0.7499999876        0.1103687463
O                0.5000000000        0.2500000124        0.8896312247
O               -0.0000000000        0.7500000008        0.8604123252
O               -0.0000000000        0.2499999992        0.1395877038
O                0.5000000000        0.2499999994        0.3604122966
O                0.5000000000        0.7500000006        0.6395876744
H                0.0000000000        0.4067726293        0.6933879025
H                0.0000000000        0.5932273407        0.3066120975
H                0.5000000000        0.5932273540        0.1933878696
H                0.5000000000        0.4067726160        0.8066121304
H                0.8432223912        0.7500000005        0.9434246969
H                0.1567775788        0.2499999995        0.0565753031
H                0.6567776084        0.2500000007        0.4434246991
H                0.3432224216        0.7499999993        0.5565753009
H                0.6567776084        0.7499999993        0.5565753009
H                0.3432224216        0.2500000007        0.4434246991
H                0.8432223912        0.2499999995        0.0565753031
H                0.1567775788        0.7500000005        0.9434246969
H                0.5000000000        0.9067726588        0.1933878756
H                0.5000000000        0.0932273712        0.8066121244
H                0.0000000000        0.0932273983        0.6933878893
H                0.0000000000        0.9067726317        0.3066121107



     Writing config-only to output data dir ./iceVIII/iceVIII.save/ :
     XML data file
     NEW-OLD atomic charge density approx. for the potential

     total cpu time spent up to now is      183.1 secs

     per-process dynamical memory:    26.7 Mb

     Self-consistent Calculation

     iteration #  1     ecut=    90.00 Ry     beta= 0.70
     Davidson diagonalization with overlap
     ethr =  1.00E-06,  avg # of iterations =  2.5

     Threshold (ethr) on eigenvalues was too large:
     Diagonalizing with lowered threshold

     Davidson diagonalization with overlap
     ethr =  7.68E-09,  avg # of iterations =  4.0

     total cpu time spent up to now is      188.4 secs

     total energy              =    -275.90450547 Ry
     estimated scf accuracy    <       0.00000798 Ry

     iteration #  2     ecut=    90.00 Ry     beta= 0.70
     Davidson diagonalization with overlap
     ethr =  1.25E-08,  avg # of iterations =  2.0

[...]
     atom   18 type  1   force =    -0.00034232   -0.00000004   -0.00009105
     atom   19 type  1   force =    -0.00034233    0.00000003    0.00009104
     atom   20 type  1   force =     0.00034233   -0.00000003   -0.00009104
     atom   21 type  1   force =     0.00000000    0.00034137   -0.00007185
     atom   22 type  1   force =     0.00000000   -0.00034137    0.00007185
     atom   23 type  1   force =     0.00000000   -0.00034432   -0.00006970
     atom   24 type  1   force =     0.00000000    0.00034432    0.00006970

     Total force =     0.001498     Total SCF correction =     0.000006


     Computing stress (Cartesian axis) and pressure

          total   stress  (Ry/bohr**3)                   (kbar)     P=      -15.26
  -0.00010516   0.00000000   0.00000000          -15.47        0.00        0.00
   0.00000000  -0.00010524  -0.00000001            0.00      -15.48       -0.00
   0.00000000  -0.00000001  -0.00010072            0.00       -0.00      -14.82

     Energy error            =      5.9E-05 Ry
     Gradient error          =      3.4E-04 Ry/Bohr

     number of scf cycles    =  15
     number of bfgs steps    =  14

     energy             old  =    -275.9046539925 Ry
     energy             new  =    -275.9047126763 Ry

     CASE: energy            _new < energy            _old

     new trust radius        =       0.0140920828 bohr
     new conv_thr            =       0.0000000010 Ry


ATOMIC_POSITIONS (crystal)
O                0.0000000000        0.2500005150        0.6070153931
O                0.0000000000        0.7499994850        0.3929846359
O                0.5000000000        0.7500002297        0.1070153729
O                0.5000000000        0.2499997703        0.8929845981
O               -0.0000000000        0.7499999902        0.8572128599
O               -0.0000000000        0.2500000098        0.1427871691
O                0.5000000000        0.2499999902        0.3572128284
O                0.5000000000        0.7500000098        0.6427871426
H                0.0000000000        0.4069262432        0.6898800221
H                0.0000000000        0.5930737268        0.3101199779
H                0.5000000000        0.5930733542        0.1898802103
H                0.5000000000        0.4069266158        0.8101197897
H                0.8430747209        0.7500000006        0.9400800243
H                0.1569252491        0.2499999994        0.0599199757
H                0.6569252800        0.2499999978        0.4400800219
H                0.3430747500        0.7500000022        0.5599199781
H                0.6569252800        0.7500000022        0.5599199781
H                0.3430747500        0.2499999978        0.4400800219
H                0.8430747209        0.2499999994        0.0599199757
H                0.1569252491        0.7500000006        0.9400800243
H                0.5000000000        0.9069264264        0.1898800958
H                0.5000000000        0.0930736036        0.8101199042
H                0.0000000000        0.0930732561        0.6898802823
H                0.0000000000        0.9069267739        0.3101197177



     Writing config-only to output data dir ./iceVIII/iceVIII.save/ :
     XML data file
     NEW-OLD atomic charge density approx. for the potential

     total cpu time spent up to now is      277.7 secs

     per-process dynamical memory:    27.2 Mb

     Self-consistent Calculation

     iteration #  1     ecut=    90.00 Ry     beta= 0.70
     Davidson diagonalization with overlap
     ethr =  1.00E-06,  avg # of iterations =  4.0

     total cpu time spent up to now is      281.1 secs

     total energy              =    -275.90470925 Ry
     estimated scf accuracy    <       0.00016821 Ry

     iteration #  2     ecut=    90.00 Ry     beta= 0.70
     Davidson diagonalization with overlap
     ethr =  2.63E-07,  avg # of iterations =  2.0

     total cpu time spent up to now is      282.9 secs

     total energy              =    -275.90473058 Ry
     estimated scf accuracy    <       0.00001146 Ry

     iteration #  3     ecut=    90.00 Ry     beta= 0.70
     Davidson diagonalization with overlap
     ethr =  1.79E-08,  avg # of iterations =  2.2

     total cpu time spent up to now is      285.2 secs

     total energy              =    -275.90473290 Ry
     estimated scf accuracy    <       0.00000094 Ry

     iteration #  4     ecut=    90.00 Ry     beta= 0.70
     Davidson diagonalization with overlap
     ethr =  1.47E-09,  avg # of iterations =  3.0

     total cpu time spent up to now is      287.7 secs

     total energy              =    -275.90473321 Ry
     estimated scf accuracy    <       0.00000028 Ry

     iteration #  5     ecut=    90.00 Ry     beta= 0.70
     Davidson diagonalization with overlap
     ethr =  4.45E-10,  avg # of iterations =  2.1

     total cpu time spent up to now is      289.8 secs

     total energy              =    -275.90473325 Ry
     estimated scf accuracy    <       0.00000002 Ry

     iteration #  6     ecut=    90.00 Ry     beta= 0.70
     Davidson diagonalization with overlap
     ethr =  3.16E-11,  avg # of iterations =  3.0

     total cpu time spent up to now is      292.5 secs

     total energy              =    -275.90473326 Ry
     estimated scf accuracy    <          7.7E-09 Ry

     iteration #  7     ecut=    90.00 Ry     beta= 0.70
     Davidson diagonalization with overlap
     ethr =  1.21E-11,  avg # of iterations =  2.0

     total cpu time spent up to now is      294.3 secs

     total energy              =    -275.90473326 Ry
     estimated scf accuracy    <          2.4E-09 Ry

     iteration #  8     ecut=    90.00 Ry     beta= 0.70
     Davidson diagonalization with overlap
     ethr =  3.72E-12,  avg # of iterations =  2.1

     total cpu time spent up to now is      296.6 secs

     End of self-consistent calculation

     Number of k-points >= 100: set verbosity='high' to print the bands.

     highest occupied level (ev):    -1.5297

!    total energy              =    -275.90473326 Ry
     estimated scf accuracy    <          6.3E-11 Ry

     The total energy is the sum of the following terms:
     one-electron contribution =    -151.55439548 Ry
     hartree contribution      =     100.07255522 Ry
     xc contribution           =     -67.52687683 Ry
     ewald contribution        =    -156.89601617 Ry

     convergence has been achieved in   8 iterations

     Forces acting on atoms (cartesian axes, Ry/au):

     atom    1 type  2   force =     0.00000000   -0.00001019   -0.00001508
     atom    2 type  2   force =     0.00000000    0.00001019    0.00001508
     atom    3 type  2   force =     0.00000000   -0.00000451   -0.00001509
     atom    4 type  2   force =     0.00000000    0.00000451    0.00001509
     atom    5 type  2   force =     0.00000000    0.00000017   -0.00005621
     atom    6 type  2   force =     0.00000000   -0.00000017    0.00005621
     atom    7 type  2   force =     0.00000000    0.00000002   -0.00005621
     atom    8 type  2   force =     0.00000000   -0.00000002    0.00005621
     atom    9 type  1   force =     0.00000000    0.00014238    0.00003494
     atom   10 type  1   force =     0.00000000   -0.00014238   -0.00003494
     atom   11 type  1   force =     0.00000000   -0.00013532    0.00002973
     atom   12 type  1   force =     0.00000000    0.00013532   -0.00002973
     atom   13 type  1   force =    -0.00014593    0.00000006    0.00000526
     atom   14 type  1   force =     0.00014593   -0.00000006   -0.00000526
     atom   15 type  1   force =     0.00014592    0.00000008    0.00000525
     atom   16 type  1   force =    -0.00014592   -0.00000008   -0.00000525
     atom   17 type  1   force =     0.00014592   -0.00000008   -0.00000525
     atom   18 type  1   force =    -0.00014592    0.00000008    0.00000525
     atom   19 type  1   force =    -0.00014593   -0.00000006   -0.00000526
     atom   20 type  1   force =     0.00014593    0.00000006    0.00000526
     atom   21 type  1   force =     0.00000000    0.00013962    0.00003292
     atom   22 type  1   force =     0.00000000   -0.00013962   -0.00003292
     atom   23 type  1   force =     0.00000000   -0.00013265    0.00002771
     atom   24 type  1   force =     0.00000000    0.00013265   -0.00002771

     Total force =     0.000586     Total SCF correction =     0.000004


     Computing stress (Cartesian axis) and pressure

          total   stress  (Ry/bohr**3)                   (kbar)     P=      -15.32
  -0.00010630   0.00000000   0.00000000          -15.64        0.00        0.00
   0.00000000  -0.00010651   0.00000003            0.00      -15.67        0.00
   0.00000000   0.00000003  -0.00009970            0.00        0.00      -14.67

     Energy error            =      2.1E-05 Ry
     Gradient error          =      1.5E-04 Ry/Bohr

     number of scf cycles    =  16
     number of bfgs steps    =  15

     energy             old  =    -275.9047126763 Ry
     energy             new  =    -275.9047332585 Ry

     CASE: energy            _new < energy            _old

     new trust radius        =       0.0003092340 bohr
     new conv_thr            =       0.0000000010 Ry


ATOMIC_POSITIONS (crystal)
O                0.0000000000        0.2499994109        0.6070020353
O                0.0000000000        0.7500005891        0.3929979937
O                0.5000000000        0.7499997409        0.1070020139
O                0.5000000000        0.2500002591        0.8929979571
O               -0.0000000000        0.7500000090        0.8571973294
O               -0.0000000000        0.2499999910        0.1428026996
O                0.5000000000        0.2499999928        0.3571972980
O                0.5000000000        0.7500000072        0.6428026730
H                0.0000000000        0.4069389998        0.6898606102
H                0.0000000000        0.5930609702        0.3101393898
H                0.5000000000        0.5930613613        0.1898604075
H                0.5000000000        0.4069386087        0.8101395925
H                0.8430617340        0.7500000067        0.9400592289
H                0.1569382360        0.2499999933        0.0599407711
H                0.6569382667        0.2500000066        0.4400592264
H                0.3430617633        0.7499999934        0.5599407736
H                0.6569382667        0.7499999934        0.5599407736
H                0.3430617633        0.2500000066        0.4400592264
H                0.8430617340        0.2499999933        0.0599407711
H                0.1569382360        0.7500000067        0.9400592289
H                0.5000000000        0.9069388861        0.1898605332
H                0.5000000000        0.0930611439        0.8101394668
H                0.0000000000        0.0930615532        0.6898603272
H                0.0000000000        0.9069384768        0.3101396728



     Writing config-only to output data dir ./iceVIII/iceVIII.save/ :
     XML data file
     NEW-OLD atomic charge density approx. for the potential

     total cpu time spent up to now is      298.8 secs

     per-process dynamical memory:    27.2 Mb

     Self-consistent Calculation

     iteration #  1     ecut=    90.00 Ry     beta= 0.70
     Davidson diagonalization with overlap
     ethr =  1.00E-06,  avg # of iterations =  2.0

     Threshold (ethr) on eigenvalues was too large:
     Diagonalizing with lowered threshold

     Davidson diagonalization with overlap
     ethr =  6.69E-11,  avg # of iterations =  3.7

     total cpu time spent up to now is      303.9 secs

     total energy              =    -275.90473345 Ry
     estimated scf accuracy    <       0.00000006 Ry

     iteration #  2     ecut=    90.00 Ry     beta= 0.70
     Davidson diagonalization with overlap
     ethr =  9.76E-11,  avg # of iterations =  2.0

     total cpu time spent up to now is      305.9 secs

     total energy              =    -275.90473346 Ry
     estimated scf accuracy    <          5.9E-09 Ry

     iteration #  3     ecut=    90.00 Ry     beta= 0.70
     Davidson diagonalization with overlap
     ethr =  9.20E-12,  avg # of iterations =  2.5

     total cpu time spent up to now is      308.4 secs

     total energy              =    -275.90473346 Ry
     estimated scf accuracy    <          1.0E-09 Ry

     iteration #  4     ecut=    90.00 Ry     beta= 0.70
     Davidson diagonalization with overlap
     ethr =  1.64E-12,  avg # of iterations =  2.1

     total cpu time spent up to now is      310.3 secs

     End of self-consistent calculation

     Number of k-points >= 100: set verbosity='high' to print the bands.

     highest occupied level (ev):    -1.5297

!    total energy              =    -275.90473346 Ry
     estimated scf accuracy    <          3.3E-11 Ry

     The total energy is the sum of the following terms:
     one-electron contribution =    -151.55288466 Ry
     hartree contribution      =     100.07203199 Ry
     xc contribution           =     -67.52654584 Ry
     ewald contribution        =    -156.89733494 Ry

     convergence has been achieved in   4 iterations

     Forces acting on atoms (cartesian axes, Ry/au):

     atom    1 type  2   force =     0.00000000    0.00001141   -0.00000913
     atom    2 type  2   force =     0.00000000   -0.00001141    0.00000913
     atom    3 type  2   force =    -0.00000000    0.00000499   -0.00000915
     atom    4 type  2   force =    -0.00000000   -0.00000499    0.00000915
     atom    5 type  2   force =    -0.00000000   -0.00000025   -0.00002979
     atom    6 type  2   force =    -0.00000000    0.00000025    0.00002979
     atom    7 type  2   force =     0.00000000    0.00000002   -0.00002979
     atom    8 type  2   force =     0.00000000   -0.00000002    0.00002979
     atom    9 type  1   force =     0.00000000    0.00008248    0.00002536
     atom   10 type  1   force =     0.00000000   -0.00008248   -0.00002536
     atom   11 type  1   force =     0.00000000   -0.00009036    0.00003122
     atom   12 type  1   force =     0.00000000    0.00009036   -0.00003122
     atom   13 type  1   force =    -0.00008715   -0.00000007   -0.00000380
     atom   14 type  1   force =     0.00008715    0.00000007    0.00000380
     atom   15 type  1   force =     0.00008715   -0.00000010   -0.00000380
     atom   16 type  1   force =    -0.00008715    0.00000010    0.00000380
     atom   17 type  1   force =     0.00008715    0.00000010    0.00000380
     atom   18 type  1   force =    -0.00008715   -0.00000010   -0.00000380
     atom   19 type  1   force =    -0.00008715    0.00000007    0.00000380
     atom   20 type  1   force =     0.00008715   -0.00000007   -0.00000380
     atom   21 type  1   force =     0.00000000    0.00008550    0.00002764
     atom   22 type  1   force =     0.00000000   -0.00008550   -0.00002764
     atom   23 type  1   force =     0.00000000   -0.00009344    0.00003350
     atom   24 type  1   force =     0.00000000    0.00009344   -0.00003350

     Total force =     0.000366     Total SCF correction =     0.000013


     Computing stress (Cartesian axis) and pressure

          total   stress  (Ry/bohr**3)                   (kbar)     P=      -15.38
  -0.00010686   0.00000000   0.00000000          -15.72        0.00        0.00
   0.00000000  -0.00010698  -0.00000003            0.00      -15.74       -0.00
   0.00000000  -0.00000003  -0.00009989            0.00       -0.00      -14.69

     Energy error            =      2.0E-07 Ry
     Gradient error          =      9.3E-05 Ry/Bohr

     bfgs converged in  17 scf cycles and  16 bfgs steps
     (criteria: energy <  1.0E-04 Ry, force <  1.0E-04 Ry/Bohr)

     End of BFGS Geometry Optimization

     Final energy             =    -275.9047334573 Ry

     File ./iceVIII/iceVIII.bfgs deleted, as requested
Begin final coordinates

ATOMIC_POSITIONS (crystal)
O                0.0000000000        0.2499994109        0.6070020353
O                0.0000000000        0.7500005891        0.3929979937
O                0.5000000000        0.7499997409        0.1070020139
O                0.5000000000        0.2500002591        0.8929979571
O               -0.0000000000        0.7500000090        0.8571973294
O               -0.0000000000        0.2499999910        0.1428026996
O                0.5000000000        0.2499999928        0.3571972980
O                0.5000000000        0.7500000072        0.6428026730
H                0.0000000000        0.4069389998        0.6898606102
H                0.0000000000        0.5930609702        0.3101393898
H                0.5000000000        0.5930613613        0.1898604075
H                0.5000000000        0.4069386087        0.8101395925
H                0.8430617340        0.7500000067        0.9400592289
H                0.1569382360        0.2499999933        0.0599407711
H                0.6569382667        0.2500000066        0.4400592264
H                0.3430617633        0.7499999934        0.5599407736
H                0.6569382667        0.7499999934        0.5599407736
H                0.3430617633        0.2500000066        0.4400592264
H                0.8430617340        0.2499999933        0.0599407711
H                0.1569382360        0.7500000067        0.9400592289
H                0.5000000000        0.9069388861        0.1898605332
H                0.5000000000        0.0930611439        0.8101394668
H                0.0000000000        0.0930615532        0.6898603272
H                0.0000000000        0.9069384768        0.3101396728
End final coordinates



     Writing all to output data dir ./iceVIII/iceVIII.save/ :
     XML data file, charge density, pseudopotentials, collected wavefunctions

     init_run     :      1.47s CPU      1.53s WALL (       1 calls)
     electrons    :    267.92s CPU    273.67s WALL (      17 calls)
     update_pot   :      0.16s CPU      0.18s WALL (      16 calls)
     forces       :      2.58s CPU      2.62s WALL (      17 calls)
     stress       :     33.18s CPU     33.23s WALL (      17 calls)

     Called by init_run:
     wfcinit      :      0.96s CPU      0.98s WALL (       1 calls)
     potinit      :      0.03s CPU      0.03s WALL (       1 calls)
     hinit0       :      0.43s CPU      0.44s WALL (       1 calls)

     Called by electrons:
     c_bands      :    237.23s CPU    242.33s WALL (     115 calls)
     sum_band     :     29.27s CPU     29.62s WALL (     115 calls)
     v_of_rho     :      0.96s CPU      0.97s WALL (     121 calls)
     newd         :      0.19s CPU      0.20s WALL (     121 calls)
     mix_rho      :      0.13s CPU      0.14s WALL (     115 calls)

     Called by c_bands:
     init_us_2    :      3.58s CPU      3.74s WALL (    9540 calls)
     cegterg      :    228.97s CPU    231.88s WALL (    4140 calls)

     Called by *egterg:
     cdiaghg      :     24.23s CPU     24.37s WALL (   14118 calls)
     h_psi        :    169.29s CPU    171.84s WALL (   15126 calls)
     s_psi        :      7.16s CPU      7.24s WALL (   15126 calls)
     g_psi        :      0.63s CPU      0.63s WALL (   10950 calls)

     Called by h_psi:
     h_psi:calbec :      9.97s CPU     10.10s WALL (   15126 calls)
     vloc_psi     :    150.71s CPU    153.02s WALL (   15126 calls)
     add_vuspsi   :      7.58s CPU      7.68s WALL (   15126 calls)

     General routines
     calbec       :     14.50s CPU     14.68s WALL (   22326 calls)
     fft          :      0.92s CPU      0.93s WALL (    1494 calls)
     ffts         :      0.04s CPU      0.04s WALL (     115 calls)
     fftw         :    159.14s CPU    161.48s WALL (  934264 calls)

     Parallel routines

     PWSCF        :   5m 7.10s CPU   5m14.90s WALL


   This run was terminated on:  20: 4:18  31Mar2026            

=------------------------------------------------------------------------------=
   JOB DONE.
=------------------------------------------------------------------------------=
