
     Program PWSCF v.7.3.1 starts on 21Mar2026 at 17:55:10 

     This program is part of the open-source Quantum ESPRESSO suite
     for quantum simulation of materials; please cite
         "P. Giannozzi et al., J. Phys.:Condens. Matter 21 395502 (2009);
         "P. Giannozzi et al., J. Phys.:Condens. Matter 29 465901 (2017);
         "P. Giannozzi et al., J. Chem. Phys. 152 154105 (2020);
          URL http://www.quantum-espresso.org", 
     in publications or presentations arising from this work. More details at
     http://www.quantum-espresso.org/quote

     Parallel version (MPI), running on   128 processors

     MPI processes distributed on     1 nodes
     242606 MiB available memory on the printing compute node when the environment starts

     Waiting for input...
     Reading input from standard input

     Current dimensions of program PWSCF are:
     Max number of different atomic species (ntypx) = 10
     Max number of k-points (npk) =  40000
     Max angular momentum in pseudopotentials (lmaxx) =  4
     Found identity + ( -0.5000 -0.5000  0.5000) symmetry
     This is a supercell, fractional translations are disabled

     K-points division:     npool     =       4
     R & G space division:  proc/nbgrp/npool/nimage =      32
     Subspace diagonalization in iterative solution of the eigenvalue problem:
     a serial algorithm will be used


     Parallelization info
     --------------------
     sticks:   dense  smooth     PW     G-vecs:    dense   smooth      PW
     Min          60      60     17                 2904     2904     425
     Max          61      61     18                 2909     2909     430
     Sum        1941    1941    545                93019    93019   13637

     Using Slab Decomposition



     bravais-lattice index     =            6
     lattice parameter (alat)  =       8.2370  a.u.
     unit-cell volume          =     805.9846 (a.u.)^3
     number of atoms/cell      =           24
     number of atomic types    =            2
     number of electrons       =        64.00
     number of Kohn-Sham states=           32
     kinetic-energy cutoff     =      90.0000  Ry
     charge density cutoff     =     360.0000  Ry
     scf convergence threshold =      1.0E-07
     mixing beta               =       0.7000
     number of iterations used =            8  plain     mixing
     Exchange-correlation=  SLA  PW   PBE  PBE
                           (   1   4   3   4   0   0   0)

     celldm(1)=   8.236968  celldm(2)=   0.000000  celldm(3)=   1.442197
     celldm(4)=   0.000000  celldm(5)=   0.000000  celldm(6)=   0.000000

     crystal axes: (cart. coord. in units of alat)
               a(1) = (   1.000000   0.000000   0.000000 )  
               a(2) = (   0.000000   1.000000   0.000000 )  
               a(3) = (   0.000000   0.000000   1.442197 )  

     reciprocal axes: (cart. coord. in units 2 pi/alat)
               b(1) = (  1.000000  0.000000  0.000000 )  
               b(2) = (  0.000000  1.000000  0.000000 )  
               b(3) = (  0.000000  0.000000  0.693386 )  


     PseudoPot. # 1 for H  read from file:
     ./H.pbe-van_ak.UPF
     MD5 check sum: 077eb6d537518a38cb46c6de387227b7
     Pseudo is Ultrasoft, Zval =  1.0
     Generated by new atomic code, or converted to UPF format
     Using radial grid of  615 points,  1 beta functions with: 
                l(1) =   0
     Q(r) pseudized with  8 coefficients,  rinner =    0.800

     PseudoPot. # 2 for O  read from file:
     ./O.pbe-van_ak.UPF
     MD5 check sum: 78c19812648e8988a0fe644b0f25305e
     Pseudo is Ultrasoft, Zval =  6.0
     Generated by new atomic code, or converted to UPF format
     Using radial grid of  737 points,  4 beta functions with: 
                l(1) =   0
                l(2) =   0
                l(3) =   1
                l(4) =   1
     Q(r) pseudized with  8 coefficients,  rinner =    0.800   0.800   0.800


     atomic species   valence    mass     pseudopotential
     H                 1.00     1.00800     H ( 1.00)
     O                 6.00    16.00000     O ( 1.00)

      4 Sym. Ops., with inversion, found



   Cartesian axes

     site n.     atom                  positions (alat units)
         1        O      tau(   1) = (   0.0000000   0.2500000   0.8781106  )
         2        O      tau(   2) = (   0.0000000   0.7500000   0.5640866  )
         3        O      tau(   3) = (   0.5000000   0.7500000   0.1570120  )
         4        O      tau(   4) = (   0.5000000   0.2500000   1.2851851  )
         5        O      tau(   5) = (   0.0000000   0.7500000   1.2386599  )
         6        O      tau(   6) = (   0.0000000   0.2500000   0.2035373  )
         7        O      tau(   7) = (   0.5000000   0.2500000   0.5175613  )
         8        O      tau(   8) = (   0.5000000   0.7500000   0.9246358  )
         9        H      tau(   9) = (   0.0000000   0.4142500   1.0027885  )
        10        H      tau(  10) = (   0.0000000   0.5857500   0.4394086  )
        11        H      tau(  11) = (   0.5000000   0.5857500   0.2816900  )
        12        H      tau(  12) = (   0.5000000   0.4142500   1.1605072  )
        13        H      tau(  13) = (   0.8357500   0.7500000   1.3633378  )
        14        H      tau(  14) = (   0.1642500   0.2500000   0.0788593  )
        15        H      tau(  15) = (   0.6642500   0.2500000   0.6422392  )
        16        H      tau(  16) = (   0.3357500   0.7500000   0.7999579  )
        17        H      tau(  17) = (   0.6642500   0.7500000   0.7999579  )
        18        H      tau(  18) = (   0.3357500   0.2500000   0.6422392  )
        19        H      tau(  19) = (   0.8357500   0.2500000   0.0788593  )
        20        H      tau(  20) = (   0.1642500   0.7500000   1.3633378  )
        21        H      tau(  21) = (   0.5000000   0.9142500   0.2816900  )
        22        H      tau(  22) = (   0.5000000   0.0857500   1.1605072  )
        23        H      tau(  23) = (   0.0000000   0.0857500   1.0027885  )
        24        H      tau(  24) = (   0.0000000   0.9142500   0.4394086  )

     number of k points=   144

     Number of k-points >= 100: set verbosity='high' to print them.

     Dense  grid:    93019 G-vectors     FFT dimensions: (  50,  50,  72)

     Estimated max dynamical RAM per process >      10.97 MB

     Estimated total dynamical RAM >       1.31 GB

     Initial potential from superposition of free atoms

     starting charge      63.9998, renormalised to      64.0000
     Starting wfcs are   48 randomized atomic wfcs

     total cpu time spent up to now is        1.4 secs

     per-process dynamical memory:    17.7 Mb

     Self-consistent Calculation

     iteration #  1     ecut=    90.00 Ry     beta= 0.70
     Davidson diagonalization with overlap
     ethr =  1.00E-02,  avg # of iterations =  2.0

     total cpu time spent up to now is        3.2 secs

     total energy              =    -274.43381566 Ry
     estimated scf accuracy    <       2.92772914 Ry

     iteration #  2     ecut=    90.00 Ry     beta= 0.70
     Davidson diagonalization with overlap
     ethr =  4.57E-03,  avg # of iterations =  3.0

     total cpu time spent up to now is        5.3 secs

     total energy              =    -275.38446579 Ry
     estimated scf accuracy    <       1.01124036 Ry

     iteration #  3     ecut=    90.00 Ry     beta= 0.70
     Davidson diagonalization with overlap
     ethr =  1.58E-03,  avg # of iterations =  2.0

     total cpu time spent up to now is        6.9 secs

     total energy              =    -275.48830512 Ry
     estimated scf accuracy    <       0.04503988 Ry

     iteration #  4     ecut=    90.00 Ry     beta= 0.70
     Davidson diagonalization with overlap
     ethr =  7.04E-05,  avg # of iterations =  4.0

     total cpu time spent up to now is        9.2 secs

     total energy              =    -275.51724253 Ry
     estimated scf accuracy    <       0.05427397 Ry

     iteration #  5     ecut=    90.00 Ry     beta= 0.70
     Davidson diagonalization with overlap
     ethr =  7.04E-05,  avg # of iterations =  2.0

     total cpu time spent up to now is       10.8 secs

     total energy              =    -275.51826571 Ry
     estimated scf accuracy    <       0.00815259 Ry

     iteration #  6     ecut=    90.00 Ry     beta= 0.70
     Davidson diagonalization with overlap
     ethr =  1.27E-05,  avg # of iterations =  2.7

     total cpu time spent up to now is       12.7 secs

     total energy              =    -275.52060188 Ry
     estimated scf accuracy    <       0.00006501 Ry

     iteration #  7     ecut=    90.00 Ry     beta= 0.70
     Davidson diagonalization with overlap
     ethr =  1.02E-07,  avg # of iterations =  5.9

     total cpu time spent up to now is       15.6 secs

     total energy              =    -275.52075708 Ry
     estimated scf accuracy    <       0.00019922 Ry

     iteration #  8     ecut=    90.00 Ry     beta= 0.70
     Davidson diagonalization with overlap
     ethr =  1.02E-07,  avg # of iterations =  2.0

     total cpu time spent up to now is       17.5 secs

     total energy              =    -275.52075776 Ry
     estimated scf accuracy    <       0.00002821 Ry

     iteration #  9     ecut=    90.00 Ry     beta= 0.70
     Davidson diagonalization with overlap
     ethr =  4.41E-08,  avg # of iterations =  3.0

     total cpu time spent up to now is       19.6 secs

     total energy              =    -275.52077086 Ry
     estimated scf accuracy    <       0.00000376 Ry

     iteration # 10     ecut=    90.00 Ry     beta= 0.70
     Davidson diagonalization with overlap
     ethr =  5.87E-09,  avg # of iterations =  2.0

     total cpu time spent up to now is       21.2 secs

     total energy              =    -275.52077058 Ry
     estimated scf accuracy    <       0.00000214 Ry

     iteration # 11     ecut=    90.00 Ry     beta= 0.70
     Davidson diagonalization with overlap
     ethr =  3.35E-09,  avg # of iterations =  1.0

     total cpu time spent up to now is       22.5 secs

     total energy              =    -275.52077029 Ry
     estimated scf accuracy    <       0.00000083 Ry

     iteration # 12     ecut=    90.00 Ry     beta= 0.70
     Davidson diagonalization with overlap
     ethr =  1.29E-09,  avg # of iterations =  2.0

     total cpu time spent up to now is       24.2 secs

     End of self-consistent calculation

     Number of k-points >= 100: set verbosity='high' to print the bands.

     highest occupied level (ev):     1.4753

!    total energy              =    -275.52077044 Ry
     estimated scf accuracy    <       0.00000002 Ry

     The total energy is the sum of the following terms:
     one-electron contribution =    -104.41860779 Ry
     hartree contribution      =      82.96848666 Ry
     xc contribution           =     -69.58930339 Ry
     ewald contribution        =    -184.48134592 Ry

     convergence has been achieved in  12 iterations

     Forces acting on atoms (cartesian axes, Ry/au):

     atom    1 type  2   force =     0.00000000    0.00000001   -0.23953784
     atom    2 type  2   force =     0.00000000   -0.00000001    0.23953784
     atom    3 type  2   force =     0.00000000    0.00000001   -0.23953728
     atom    4 type  2   force =     0.00000000   -0.00000001    0.23953728
     atom    5 type  2   force =    -0.00000000   -0.00000000   -0.23953324
     atom    6 type  2   force =    -0.00000000    0.00000000    0.23953324
     atom    7 type  2   force =    -0.00000000    0.00000000   -0.23953255
     atom    8 type  2   force =    -0.00000000   -0.00000000    0.23953255
     atom    9 type  1   force =     0.00000000    0.18026479    0.12198503
     atom   10 type  1   force =     0.00000000   -0.18026479   -0.12198503
     atom   11 type  1   force =     0.00000000   -0.18026485    0.12198521
     atom   12 type  1   force =     0.00000000    0.18026485   -0.12198521
     atom   13 type  1   force =    -0.18026552   -0.00000000    0.12198628
     atom   14 type  1   force =     0.18026552    0.00000000   -0.12198628
     atom   15 type  1   force =     0.18026568    0.00000000    0.12198648
     atom   16 type  1   force =    -0.18026568   -0.00000000   -0.12198648
     atom   17 type  1   force =     0.18026568   -0.00000000   -0.12198648
     atom   18 type  1   force =    -0.18026568    0.00000000    0.12198648
     atom   19 type  1   force =    -0.18026552    0.00000000   -0.12198628
     atom   20 type  1   force =     0.18026552   -0.00000000    0.12198628
     atom   21 type  1   force =     0.00000000    0.18026485    0.12198521
     atom   22 type  1   force =     0.00000000   -0.18026485   -0.12198521
     atom   23 type  1   force =     0.00000000   -0.18026479    0.12198502
     atom   24 type  1   force =     0.00000000    0.18026479   -0.12198502

     Total force =     1.103193     Total SCF correction =     0.000083


     Computing stress (Cartesian axis) and pressure

          total   stress  (Ry/bohr**3)                   (kbar)     P=      508.89
   0.00341043   0.00000000   0.00000000          501.69        0.00        0.00
   0.00000000   0.00341037   0.00000000            0.00      501.68        0.00
   0.00000000   0.00000000   0.00355734            0.00        0.00      523.30


     Writing all to output data dir ./iceVIII/iceVIII.save/ :
     XML data file, charge density, pseudopotentials, collected wavefunctions

     init_run     :      1.11s CPU      1.17s WALL (       1 calls)
     electrons    :     22.21s CPU     22.81s WALL (       1 calls)
     forces       :      0.12s CPU      0.12s WALL (       1 calls)
     stress       :      1.31s CPU      1.32s WALL (       1 calls)

     Called by init_run:
     wfcinit      :      0.75s CPU      0.78s WALL (       1 calls)
     potinit      :      0.01s CPU      0.03s WALL (       1 calls)
     hinit0       :      0.30s CPU      0.30s WALL (       1 calls)

     Called by electrons:
     c_bands      :     19.62s CPU     20.13s WALL (      12 calls)
     sum_band     :      2.47s CPU      2.50s WALL (      12 calls)
     v_of_rho     :      0.07s CPU      0.09s WALL (      13 calls)
     newd         :      0.01s CPU      0.02s WALL (      13 calls)
     mix_rho      :      0.02s CPU      0.02s WALL (      12 calls)

     Called by c_bands:
     init_us_2    :      0.24s CPU      0.26s WALL (     972 calls)
     cegterg      :     18.99s CPU     19.32s WALL (     432 calls)

     Called by *egterg:
     cdiaghg      :      2.62s CPU      2.65s WALL (    1571 calls)
     h_psi        :     14.41s CPU     14.70s WALL (    1607 calls)
     s_psi        :      0.53s CPU      0.54s WALL (    1607 calls)
     g_psi        :      0.04s CPU      0.04s WALL (    1139 calls)

     Called by h_psi:
     h_psi:calbec :      0.71s CPU      0.73s WALL (    1607 calls)
     vloc_psi     :     13.09s CPU     13.36s WALL (    1607 calls)
     add_vuspsi   :      0.55s CPU      0.56s WALL (    1607 calls)

     General routines
     calbec       :      1.01s CPU      1.03s WALL (    2219 calls)
     fft          :      0.32s CPU      0.32s WALL (     151 calls)
     ffts         :      0.01s CPU      0.01s WALL (      12 calls)
     fftw         :     14.12s CPU     14.38s WALL (  100484 calls)

     Parallel routines

     PWSCF        :     25.47s CPU     26.81s WALL


   This run was terminated on:  17:55:37  21Mar2026            

=------------------------------------------------------------------------------=
   JOB DONE.
=------------------------------------------------------------------------------=
