
     Program PWSCF v.7.3.1 starts on 23Mar2026 at 17:50: 5 

     This program is part of the open-source Quantum ESPRESSO suite
     for quantum simulation of materials; please cite
         "P. Giannozzi et al., J. Phys.:Condens. Matter 21 395502 (2009);
         "P. Giannozzi et al., J. Phys.:Condens. Matter 29 465901 (2017);
         "P. Giannozzi et al., J. Chem. Phys. 152 154105 (2020);
          URL http://www.quantum-espresso.org", 
     in publications or presentations arising from this work. More details at
     http://www.quantum-espresso.org/quote

     Parallel version (MPI), running on   128 processors

     MPI processes distributed on     1 nodes
     242513 MiB available memory on the printing compute node when the environment starts

     Waiting for input...
     Reading input from standard input

     Current dimensions of program PWSCF are:
     Max number of different atomic species (ntypx) = 10
     Max number of k-points (npk) =  40000
     Max angular momentum in pseudopotentials (lmaxx) =  4
     Found identity + ( -0.5000 -0.5000  0.5000) symmetry
     This is a supercell, fractional translations are disabled

     K-points division:     npool     =       4
     R & G space division:  proc/nbgrp/npool/nimage =      32
     Subspace diagonalization in iterative solution of the eigenvalue problem:
     a serial algorithm will be used


     Parallelization info
     --------------------
     sticks:   dense  smooth     PW     G-vecs:    dense   smooth      PW
     Min          60      60     17                 2936     2936     431
     Max          61      61     18                 2945     2945     436
     Sum        1941    1941    553                94117    94117   13847

     Using Slab Decomposition



     bravais-lattice index     =            6
     lattice parameter (alat)  =       8.2725  a.u.
     unit-cell volume          =     816.4518 (a.u.)^3
     number of atoms/cell      =           24
     number of atomic types    =            2
     number of electrons       =        64.00
     number of Kohn-Sham states=           32
     kinetic-energy cutoff     =      90.0000  Ry
     charge density cutoff     =     360.0000  Ry
     scf convergence threshold =      1.0E-07
     mixing beta               =       0.7000
     number of iterations used =            8  plain     mixing
     Exchange-correlation=  SLA  PW   PBE  PBE
                           (   1   4   3   4   0   0   0)

     celldm(1)=   8.272472  celldm(2)=   0.000000  celldm(3)=   1.442197
     celldm(4)=   0.000000  celldm(5)=   0.000000  celldm(6)=   0.000000

     crystal axes: (cart. coord. in units of alat)
               a(1) = (   1.000000   0.000000   0.000000 )  
               a(2) = (   0.000000   1.000000   0.000000 )  
               a(3) = (   0.000000   0.000000   1.442197 )  

     reciprocal axes: (cart. coord. in units 2 pi/alat)
               b(1) = (  1.000000  0.000000  0.000000 )  
               b(2) = (  0.000000  1.000000  0.000000 )  
               b(3) = (  0.000000  0.000000  0.693386 )  


     PseudoPot. # 1 for H  read from file:
     ./H.pbe-van_ak.UPF
     MD5 check sum: 077eb6d537518a38cb46c6de387227b7
     Pseudo is Ultrasoft, Zval =  1.0
     Generated by new atomic code, or converted to UPF format
     Using radial grid of  615 points,  1 beta functions with: 
                l(1) =   0
     Q(r) pseudized with  8 coefficients,  rinner =    0.800

     PseudoPot. # 2 for O  read from file:
     ./O.pbe-van_ak.UPF
     MD5 check sum: 78c19812648e8988a0fe644b0f25305e
     Pseudo is Ultrasoft, Zval =  6.0
     Generated by new atomic code, or converted to UPF format
     Using radial grid of  737 points,  4 beta functions with: 
                l(1) =   0
                l(2) =   0
                l(3) =   1
                l(4) =   1
     Q(r) pseudized with  8 coefficients,  rinner =    0.800   0.800   0.800


     atomic species   valence    mass     pseudopotential
     H                 1.00     1.00800     H ( 1.00)
     O                 6.00    16.00000     O ( 1.00)

      4 Sym. Ops., with inversion, found



   Cartesian axes

     site n.     atom                  positions (alat units)
         1        O      tau(   1) = (   0.0000000   0.2500000   0.8766577  )
         2        O      tau(   2) = (   0.0000000   0.7500000   0.5655395  )
         3        O      tau(   3) = (   0.5000000   0.7500000   0.1555590  )
         4        O      tau(   4) = (   0.5000000   0.2500000   1.2866381  )
         5        O      tau(   5) = (   0.0000000   0.7500000   1.2372108  )
         6        O      tau(   6) = (   0.0000000   0.2500000   0.2049863  )
         7        O      tau(   7) = (   0.5000000   0.2500000   0.5161123  )
         8        O      tau(   8) = (   0.5000000   0.7500000   0.9260848  )
         9        H      tau(   9) = (   0.0000000   0.4186701   1.0041518  )
        10        H      tau(  10) = (   0.0000000   0.5813299   0.4380453  )
        11        H      tau(  11) = (   0.5000000   0.5813299   0.2830532  )
        12        H      tau(  12) = (   0.5000000   0.4186701   1.1591439  )
        13        H      tau(  13) = (   0.8313288   0.7500000   1.3647034  )
        14        H      tau(  14) = (   0.1686712   0.2500000   0.0774938  )
        15        H      tau(  15) = (   0.6686712   0.2500000   0.6436049  )
        16        H      tau(  16) = (   0.3313288   0.7500000   0.7985923  )
        17        H      tau(  17) = (   0.6686712   0.7500000   0.7985923  )
        18        H      tau(  18) = (   0.3313288   0.2500000   0.6436049  )
        19        H      tau(  19) = (   0.8313288   0.2500000   0.0774938  )
        20        H      tau(  20) = (   0.1686712   0.7500000   1.3647034  )
        21        H      tau(  21) = (   0.5000000   0.9186701   0.2830532  )
        22        H      tau(  22) = (   0.5000000   0.0813299   1.1591439  )
        23        H      tau(  23) = (   0.0000000   0.0813299   1.0041518  )
        24        H      tau(  24) = (   0.0000000   0.9186701   0.4380454  )

     number of k points=   144

     Number of k-points >= 100: set verbosity='high' to print them.

     Dense  grid:    94117 G-vectors     FFT dimensions: (  50,  50,  75)

     Estimated max dynamical RAM per process >      11.08 MB

     Estimated total dynamical RAM >       1.32 GB

     Initial potential from superposition of free atoms

     starting charge      63.9998, renormalised to      64.0000
     Starting wfcs are   48 randomized atomic wfcs

     total cpu time spent up to now is        1.3 secs

     per-process dynamical memory:    17.5 Mb

     Self-consistent Calculation

     iteration #  1     ecut=    90.00 Ry     beta= 0.70
     Davidson diagonalization with overlap
     ethr =  1.00E-02,  avg # of iterations =  2.0

     total cpu time spent up to now is        3.1 secs

     total energy              =    -274.64945639 Ry
     estimated scf accuracy    <       2.71544655 Ry

     iteration #  2     ecut=    90.00 Ry     beta= 0.70
     Davidson diagonalization with overlap
     ethr =  4.24E-03,  avg # of iterations =  3.0

     total cpu time spent up to now is        5.3 secs

     total energy              =    -275.52917676 Ry
     estimated scf accuracy    <       1.03403172 Ry

     iteration #  3     ecut=    90.00 Ry     beta= 0.70
     Davidson diagonalization with overlap
     ethr =  1.62E-03,  avg # of iterations =  2.0

     total cpu time spent up to now is        6.9 secs

     total energy              =    -275.64219124 Ry
     estimated scf accuracy    <       0.04480934 Ry

     iteration #  4     ecut=    90.00 Ry     beta= 0.70
     Davidson diagonalization with overlap
     ethr =  7.00E-05,  avg # of iterations =  4.0

     total cpu time spent up to now is        9.3 secs

     total energy              =    -275.67156950 Ry
     estimated scf accuracy    <       0.05728260 Ry

     iteration #  5     ecut=    90.00 Ry     beta= 0.70
     Davidson diagonalization with overlap
     ethr =  7.00E-05,  avg # of iterations =  2.0

     total cpu time spent up to now is       10.9 secs

     total energy              =    -275.67296978 Ry
     estimated scf accuracy    <       0.00845365 Ry

     iteration #  6     ecut=    90.00 Ry     beta= 0.70
     Davidson diagonalization with overlap
     ethr =  1.32E-05,  avg # of iterations =  3.0

     total cpu time spent up to now is       12.8 secs

     total energy              =    -275.67535919 Ry
     estimated scf accuracy    <       0.00007330 Ry

     iteration #  7     ecut=    90.00 Ry     beta= 0.70
     Davidson diagonalization with overlap
     ethr =  1.15E-07,  avg # of iterations =  5.9

     total cpu time spent up to now is       15.9 secs

     total energy              =    -275.67553150 Ry
     estimated scf accuracy    <       0.00019917 Ry

     iteration #  8     ecut=    90.00 Ry     beta= 0.70
     Davidson diagonalization with overlap
     ethr =  1.15E-07,  avg # of iterations =  2.0

     total cpu time spent up to now is       17.7 secs

     total energy              =    -275.67553264 Ry
     estimated scf accuracy    <       0.00003066 Ry

     iteration #  9     ecut=    90.00 Ry     beta= 0.70
     Davidson diagonalization with overlap
     ethr =  4.79E-08,  avg # of iterations =  3.0

     total cpu time spent up to now is       19.8 secs

     total energy              =    -275.67554314 Ry
     estimated scf accuracy    <       0.00000019 Ry

     iteration # 10     ecut=    90.00 Ry     beta= 0.70
     Davidson diagonalization with overlap
     ethr =  3.02E-10,  avg # of iterations =  5.2

     total cpu time spent up to now is       22.9 secs

     total energy              =    -275.67554339 Ry
     estimated scf accuracy    <       0.00000148 Ry

     iteration # 11     ecut=    90.00 Ry     beta= 0.70
     Davidson diagonalization with overlap
     ethr =  3.02E-10,  avg # of iterations =  2.0

     total cpu time spent up to now is       24.7 secs

     total energy              =    -275.67554317 Ry
     estimated scf accuracy    <       0.00000067 Ry

     iteration # 12     ecut=    90.00 Ry     beta= 0.70
     Davidson diagonalization with overlap
     ethr =  3.02E-10,  avg # of iterations =  3.0

     total cpu time spent up to now is       26.8 secs

     End of self-consistent calculation

     Number of k-points >= 100: set verbosity='high' to print the bands.

     highest occupied level (ev):     1.4274

!    total energy              =    -275.67554320 Ry
     estimated scf accuracy    <       0.00000007 Ry

     The total energy is the sum of the following terms:
     one-electron contribution =    -102.85237501 Ry
     hartree contribution      =      82.15571923 Ry
     xc contribution           =     -69.18025677 Ry
     ewald contribution        =    -185.79863065 Ry

     convergence has been achieved in  12 iterations

     Forces acting on atoms (cartesian axes, Ry/au):

     atom    1 type  2   force =     0.00000000    0.00000029   -0.15378315
     atom    2 type  2   force =     0.00000000   -0.00000029    0.15378315
     atom    3 type  2   force =    -0.00000000    0.00000013   -0.15378574
     atom    4 type  2   force =    -0.00000000   -0.00000013    0.15378574
     atom    5 type  2   force =     0.00000000    0.00000000   -0.15378471
     atom    6 type  2   force =     0.00000000   -0.00000000    0.15378471
     atom    7 type  2   force =     0.00000000    0.00000000   -0.15378957
     atom    8 type  2   force =     0.00000000   -0.00000000    0.15378957
     atom    9 type  1   force =     0.00000000    0.11741385    0.07964092
     atom   10 type  1   force =     0.00000000   -0.11741385   -0.07964092
     atom   11 type  1   force =     0.00000000   -0.11740969    0.07964365
     atom   12 type  1   force =     0.00000000    0.11740969   -0.07964365
     atom   13 type  1   force =    -0.11741351   -0.00000000    0.07964514
     atom   14 type  1   force =     0.11741351    0.00000000   -0.07964514
     atom   15 type  1   force =     0.11741854   -0.00000001    0.07964419
     atom   16 type  1   force =    -0.11741854    0.00000001   -0.07964419
     atom   17 type  1   force =     0.11741854    0.00000001   -0.07964419
     atom   18 type  1   force =    -0.11741854   -0.00000001    0.07964419
     atom   19 type  1   force =    -0.11741351    0.00000000   -0.07964514
     atom   20 type  1   force =     0.11741351   -0.00000000    0.07964514
     atom   21 type  1   force =     0.00000000    0.11740959    0.07964358
     atom   22 type  1   force =     0.00000000   -0.11740959   -0.07964358
     atom   23 type  1   force =     0.00000000   -0.11741411    0.07964112
     atom   24 type  1   force =     0.00000000    0.11741411   -0.07964112

     Total force =     0.715029     Total SCF correction =     0.000316


     Computing stress (Cartesian axis) and pressure

          total   stress  (Ry/bohr**3)                   (kbar)     P=      374.54
   0.00251718   0.00000000   0.00000000          370.29        0.00        0.00
   0.00000000   0.00251694  -0.00000000            0.00      370.25       -0.00
   0.00000000  -0.00000000   0.00260419            0.00       -0.00      383.09


     Writing all to output data dir ./iceVIII/iceVIII.save/ :
     XML data file, charge density, pseudopotentials, collected wavefunctions

     init_run     :      1.01s CPU      1.07s WALL (       1 calls)
     electrons    :     25.03s CPU     25.52s WALL (       1 calls)
     forces       :      0.12s CPU      0.13s WALL (       1 calls)
     stress       :      1.32s CPU      1.34s WALL (       1 calls)

     Called by init_run:
     wfcinit      :      0.76s CPU      0.79s WALL (       1 calls)
     potinit      :      0.02s CPU      0.03s WALL (       1 calls)
     hinit0       :      0.18s CPU      0.19s WALL (       1 calls)

     Called by electrons:
     c_bands      :     22.42s CPU     22.84s WALL (      12 calls)
     sum_band     :      2.50s CPU      2.53s WALL (      12 calls)
     v_of_rho     :      0.08s CPU      0.09s WALL (      13 calls)
     newd         :      0.01s CPU      0.02s WALL (      13 calls)
     mix_rho      :      0.02s CPU      0.02s WALL (      12 calls)

     Called by c_bands:
     init_us_2    :      0.25s CPU      0.26s WALL (     972 calls)
     cegterg      :     21.60s CPU     21.87s WALL (     432 calls)

     Called by *egterg:
     cdiaghg      :      3.04s CPU      3.07s WALL (    1773 calls)
     h_psi        :     16.20s CPU     16.43s WALL (    1809 calls)
     s_psi        :      0.60s CPU      0.60s WALL (    1809 calls)
     g_psi        :      0.05s CPU      0.05s WALL (    1341 calls)

     Called by h_psi:
     h_psi:calbec :      0.80s CPU      0.81s WALL (    1809 calls)
     vloc_psi     :     14.72s CPU     14.93s WALL (    1809 calls)
     add_vuspsi   :      0.62s CPU      0.62s WALL (    1809 calls)

     General routines
     calbec       :      1.12s CPU      1.14s WALL (    2421 calls)
     fft          :      0.21s CPU      0.21s WALL (     151 calls)
     ffts         :      0.00s CPU      0.00s WALL (      12 calls)
     fftw         :     15.65s CPU     15.87s WALL (  109452 calls)

     Parallel routines

     PWSCF        :     28.19s CPU     29.41s WALL


   This run was terminated on:  17:50:35  23Mar2026            

=------------------------------------------------------------------------------=
   JOB DONE.
=------------------------------------------------------------------------------=
