
     Program PWSCF v.7.3.1 starts on 31Mar2026 at 17: 2: 1 

     This program is part of the open-source Quantum ESPRESSO suite
     for quantum simulation of materials; please cite
         "P. Giannozzi et al., J. Phys.:Condens. Matter 21 395502 (2009);
         "P. Giannozzi et al., J. Phys.:Condens. Matter 29 465901 (2017);
         "P. Giannozzi et al., J. Chem. Phys. 152 154105 (2020);
          URL http://www.quantum-espresso.org", 
     in publications or presentations arising from this work. More details at
     http://www.quantum-espresso.org/quote

     Parallel version (MPI), running on   128 processors

     MPI processes distributed on     1 nodes
     500063 MiB available memory on the printing compute node when the environment starts

     Waiting for input...
     Reading input from standard input

     Current dimensions of program PWSCF are:
     Max number of different atomic species (ntypx) = 10
     Max number of k-points (npk) =  40000
     Max angular momentum in pseudopotentials (lmaxx) =  4
     Found identity + ( -0.5000 -0.5000  0.5000) symmetry
     This is a supercell, fractional translations are disabled

     K-points division:     npool     =       4
     R & G space division:  proc/nbgrp/npool/nimage =      32
     Subspace diagonalization in iterative solution of the eigenvalue problem:
     a serial algorithm will be used


     Parallelization info
     --------------------
     sticks:   dense  smooth     PW     G-vecs:    dense   smooth      PW
     Min          61      61     17                 2958     2958     435
     Max          63      63     18                 2961     2961     440
     Sum        1969    1969    553                94721    94721   13943

     Using Slab Decomposition



     bravais-lattice index     =            6
     lattice parameter (alat)  =       8.2902  a.u.
     unit-cell volume          =     821.7192 (a.u.)^3
     number of atoms/cell      =           24
     number of atomic types    =            2
     number of electrons       =        64.00
     number of Kohn-Sham states=           32
     kinetic-energy cutoff     =      90.0000  Ry
     charge density cutoff     =     360.0000  Ry
     scf convergence threshold =      1.0E-07
     mixing beta               =       0.7000
     number of iterations used =            8  plain     mixing
     energy convergence thresh.=      1.0E-04
     force convergence thresh. =      1.0E-04
     Exchange-correlation=  SLA  PW   PBE  PBE
                           (   1   4   3   4   0   0   0)
     nstep                     =           50


     celldm(1)=   8.290224  celldm(2)=   0.000000  celldm(3)=   1.442197
     celldm(4)=   0.000000  celldm(5)=   0.000000  celldm(6)=   0.000000

     crystal axes: (cart. coord. in units of alat)
               a(1) = (   1.000000   0.000000   0.000000 )  
               a(2) = (   0.000000   1.000000   0.000000 )  
               a(3) = (   0.000000   0.000000   1.442197 )  

     reciprocal axes: (cart. coord. in units 2 pi/alat)
               b(1) = (  1.000000  0.000000  0.000000 )  
               b(2) = (  0.000000  1.000000  0.000000 )  
               b(3) = (  0.000000  0.000000  0.693386 )  


     PseudoPot. # 1 for H  read from file:
     ./H.pbe-van_ak.UPF
     MD5 check sum: 077eb6d537518a38cb46c6de387227b7
     Pseudo is Ultrasoft, Zval =  1.0
     Generated by new atomic code, or converted to UPF format
     Using radial grid of  615 points,  1 beta functions with: 
                l(1) =   0
     Q(r) pseudized with  8 coefficients,  rinner =    0.800

     PseudoPot. # 2 for O  read from file:
     ./O.pbe-van_ak.UPF
     MD5 check sum: 78c19812648e8988a0fe644b0f25305e
     Pseudo is Ultrasoft, Zval =  6.0
     Generated by new atomic code, or converted to UPF format
     Using radial grid of  737 points,  4 beta functions with: 
                l(1) =   0
                l(2) =   0
                l(3) =   1
                l(4) =   1
     Q(r) pseudized with  8 coefficients,  rinner =    0.800   0.800   0.800


     atomic species   valence    mass     pseudopotential
     H                 1.00     1.00800     H ( 1.00)
     O                 6.00    16.00000     O ( 1.00)

      4 Sym. Ops., with inversion, found



   Cartesian axes

     site n.     atom                  positions (alat units)
         1        O      tau(   1) = (   0.0000000   0.2500000   0.8781106  )
         2        O      tau(   2) = (   0.0000000   0.7500000   0.5640866  )
         3        O      tau(   3) = (   0.5000000   0.7500000   0.1570120  )
         4        O      tau(   4) = (   0.5000000   0.2500000   1.2851851  )
         5        O      tau(   5) = (   0.0000000   0.7500000   1.2386599  )
         6        O      tau(   6) = (   0.0000000   0.2500000   0.2035373  )
         7        O      tau(   7) = (   0.5000000   0.2500000   0.5175613  )
         8        O      tau(   8) = (   0.5000000   0.7500000   0.9246358  )
         9        H      tau(   9) = (   0.0000000   0.4142500   1.0027885  )
        10        H      tau(  10) = (   0.0000000   0.5857500   0.4394086  )
        11        H      tau(  11) = (   0.5000000   0.5857500   0.2816900  )
        12        H      tau(  12) = (   0.5000000   0.4142500   1.1605072  )
        13        H      tau(  13) = (   0.8357500   0.7500000   1.3633378  )
        14        H      tau(  14) = (   0.1642500   0.2500000   0.0788593  )
        15        H      tau(  15) = (   0.6642500   0.2500000   0.6422392  )
        16        H      tau(  16) = (   0.3357500   0.7500000   0.7999579  )
        17        H      tau(  17) = (   0.6642500   0.7500000   0.7999579  )
        18        H      tau(  18) = (   0.3357500   0.2500000   0.6422392  )
        19        H      tau(  19) = (   0.8357500   0.2500000   0.0788593  )
        20        H      tau(  20) = (   0.1642500   0.7500000   1.3633378  )
        21        H      tau(  21) = (   0.5000000   0.9142500   0.2816900  )
        22        H      tau(  22) = (   0.5000000   0.0857500   1.1605072  )
        23        H      tau(  23) = (   0.0000000   0.0857500   1.0027885  )
        24        H      tau(  24) = (   0.0000000   0.9142500   0.4394086  )

     number of k points=   144

     Number of k-points >= 100: set verbosity='high' to print them.

     Dense  grid:    94721 G-vectors     FFT dimensions: (  54,  54,  75)

     Estimated max dynamical RAM per process >      11.24 MB

     Estimated total dynamical RAM >       1.34 GB

     Initial potential from superposition of free atoms

     starting charge      63.9998, renormalised to      64.0000
     Starting wfcs are   48 randomized atomic wfcs

     total cpu time spent up to now is        1.4 secs

     per-process dynamical memory:    18.2 Mb

     Self-consistent Calculation

     iteration #  1     ecut=    90.00 Ry     beta= 0.70
     Davidson diagonalization with overlap
     ethr =  1.00E-02,  avg # of iterations =  2.0

     total cpu time spent up to now is        3.3 secs

     total energy              =    -274.48863147 Ry
     estimated scf accuracy    <       2.89818495 Ry

     iteration #  2     ecut=    90.00 Ry     beta= 0.70
     Davidson diagonalization with overlap
     ethr =  4.53E-03,  avg # of iterations =  3.0

     total cpu time spent up to now is        5.6 secs

     total energy              =    -275.42866987 Ry
     estimated scf accuracy    <       1.04743671 Ry

     iteration #  3     ecut=    90.00 Ry     beta= 0.70
     Davidson diagonalization with overlap
     ethr =  1.64E-03,  avg # of iterations =  2.0

     total cpu time spent up to now is        7.3 secs

     total energy              =    -275.53949077 Ry
     estimated scf accuracy    <       0.04579708 Ry

     iteration #  4     ecut=    90.00 Ry     beta= 0.70
     Davidson diagonalization with overlap
     ethr =  7.16E-05,  avg # of iterations =  4.0

     total cpu time spent up to now is        9.9 secs

     total energy              =    -275.56944049 Ry
     estimated scf accuracy    <       0.05697273 Ry

     iteration #  5     ecut=    90.00 Ry     beta= 0.70
     Davidson diagonalization with overlap
     ethr =  7.16E-05,  avg # of iterations =  2.0

     total cpu time spent up to now is       11.6 secs

     total energy              =    -275.57054940 Ry
     estimated scf accuracy    <       0.00857865 Ry

     iteration #  6     ecut=    90.00 Ry     beta= 0.70
     Davidson diagonalization with overlap
     ethr =  1.34E-05,  avg # of iterations =  2.9

     total cpu time spent up to now is       13.7 secs

     total energy              =    -275.57301648 Ry
     estimated scf accuracy    <       0.00006116 Ry

     iteration #  7     ecut=    90.00 Ry     beta= 0.70
     Davidson diagonalization with overlap
     ethr =  9.56E-08,  avg # of iterations =  6.0

     total cpu time spent up to now is       16.9 secs

     total energy              =    -275.57318401 Ry
     estimated scf accuracy    <       0.00021118 Ry

     iteration #  8     ecut=    90.00 Ry     beta= 0.70
     Davidson diagonalization with overlap
     ethr =  9.56E-08,  avg # of iterations =  2.0

     total cpu time spent up to now is       18.9 secs

     total energy              =    -275.57318294 Ry
     estimated scf accuracy    <       0.00003889 Ry

     iteration #  9     ecut=    90.00 Ry     beta= 0.70
     Davidson diagonalization with overlap
     ethr =  6.08E-08,  avg # of iterations =  2.0

     total cpu time spent up to now is       20.8 secs

     total energy              =    -275.57319105 Ry
     estimated scf accuracy    <       0.00000120 Ry

     iteration # 10     ecut=    90.00 Ry     beta= 0.70
     Davidson diagonalization with overlap
     ethr =  1.88E-09,  avg # of iterations =  4.0

     total cpu time spent up to now is       23.5 secs

     total energy              =    -275.57319282 Ry
     estimated scf accuracy    <       0.00000177 Ry

     iteration # 11     ecut=    90.00 Ry     beta= 0.70
     Davidson diagonalization with overlap
     ethr =  1.88E-09,  avg # of iterations =  1.0

     total cpu time spent up to now is       24.9 secs

     total energy              =    -275.57319243 Ry
     estimated scf accuracy    <       0.00000084 Ry

     iteration # 12     ecut=    90.00 Ry     beta= 0.70
     Davidson diagonalization with overlap
     ethr =  1.31E-09,  avg # of iterations =  2.0

     total cpu time spent up to now is       26.8 secs

     End of self-consistent calculation

     Number of k-points >= 100: set verbosity='high' to print the bands.

     highest occupied level (ev):     1.3083

!    total energy              =    -275.57319260 Ry
     estimated scf accuracy    <          5.8E-09 Ry

     The total energy is the sum of the following terms:
     one-electron contribution =    -106.46095990 Ry
     hartree contribution      =      83.63592779 Ry
     xc contribution           =     -69.45191958 Ry
     ewald contribution        =    -183.29624091 Ry

     convergence has been achieved in  12 iterations

     Forces acting on atoms (cartesian axes, Ry/au):

     atom    1 type  2   force =     0.00000000    0.00000002   -0.21939187
     atom    2 type  2   force =     0.00000000   -0.00000002    0.21939187
     atom    3 type  2   force =     0.00000000    0.00000001   -0.21944285
     atom    4 type  2   force =     0.00000000   -0.00000001    0.21944285
     atom    5 type  2   force =     0.00000000    0.00000002   -0.21940945
     atom    6 type  2   force =     0.00000000   -0.00000002    0.21940945
     atom    7 type  2   force =     0.00000000    0.00000004   -0.21941662
     atom    8 type  2   force =     0.00000000   -0.00000004    0.21941662
     atom    9 type  1   force =     0.00000000    0.16532833    0.11170989
     atom   10 type  1   force =     0.00000000   -0.16532833   -0.11170989
     atom   11 type  1   force =     0.00000000   -0.16532365    0.11171077
     atom   12 type  1   force =     0.00000000    0.16532365   -0.11171077
     atom   13 type  1   force =    -0.16532594    0.00000000    0.11170988
     atom   14 type  1   force =     0.16532594   -0.00000000   -0.11170988
     atom   15 type  1   force =     0.16532674    0.00000000    0.11171144
     atom   16 type  1   force =    -0.16532674   -0.00000000   -0.11171144
     atom   17 type  1   force =     0.16532674   -0.00000000   -0.11171144
     atom   18 type  1   force =    -0.16532674    0.00000000    0.11171144
     atom   19 type  1   force =    -0.16532594   -0.00000000   -0.11170988
     atom   20 type  1   force =     0.16532594    0.00000000    0.11170988
     atom   21 type  1   force =     0.00000000    0.16532365    0.11171076
     atom   22 type  1   force =     0.00000000   -0.16532365   -0.11171076
     atom   23 type  1   force =     0.00000000   -0.16532833    0.11170989
     atom   24 type  1   force =     0.00000000    0.16532833   -0.11170989

     Total force =     1.011007     Total SCF correction =     0.000079


     Computing stress (Cartesian axis) and pressure

          total   stress  (Ry/bohr**3)                   (kbar)     P=      458.76
   0.00307514   0.00000000   0.00000000          452.37        0.00        0.00
   0.00000000   0.00307530   0.00000000            0.00      452.39        0.00
   0.00000000   0.00000000   0.00320528            0.00        0.00      471.51


     BFGS Geometry Optimization
     Energy error            =      0.0E+00 Ry
     Gradient error          =      2.2E-01 Ry/Bohr

     number of scf cycles    =   1
     number of bfgs steps    =   0

     energy             new  =    -275.5731925955 Ry

     new trust radius        =       0.2194428476 bohr
     new conv_thr            =       0.0000001000 Ry


ATOMIC_POSITIONS (crystal)
O                0.0000000000        0.2500000030        0.5905203012
O                0.0000000000        0.7499999970        0.4094797278
O                0.5000000000        0.7500000015        0.0905160085
O                0.5000000000        0.2499999985        0.9094839625
O                0.0000000000        0.7500000027        0.8405188307
O                0.0000000000        0.2499999973        0.1594811983
O                0.5000000000        0.2500000052        0.3405182020
O                0.5000000000        0.7499999948        0.6594817690
H                0.0000000000        0.4341925509        0.7046633190
H                0.0000000000        0.5658074191        0.2953366810
H                0.5000000000        0.5658079842        0.2046633924
H                0.5000000000        0.4341919858        0.7953366076
H                0.8158077078        0.7500000002        0.9546633183
H                0.1841922622        0.2499999998        0.0453366817
H                0.6841923884        0.2500000004        0.4546634487
H                0.3158076416        0.7499999996        0.5453365513
H                0.6841923884        0.7499999996        0.5453365513
H                0.3158076416        0.2500000004        0.4546634487
H                0.8158077078        0.2499999998        0.0453366817
H                0.1841922622        0.7500000002        0.9546633183
H                0.5000000000        0.9341920157        0.2046633923
H                0.5000000000        0.0658080143        0.7953366077
H                0.0000000000        0.0658074489        0.7046633192
H                0.0000000000        0.9341925811        0.2953366808



     Writing config-only to output data dir ./iceVIII/iceVIII.save/ :
     XML data file
     NEW-OLD atomic charge density approx. for the potential

     total cpu time spent up to now is       28.5 secs

     per-process dynamical memory:    20.7 Mb

     Self-consistent Calculation

     iteration #  1     ecut=    90.00 Ry     beta= 0.70
     Davidson diagonalization with overlap
     ethr =  1.00E-06,  avg # of iterations = 12.0

     total cpu time spent up to now is       35.4 secs

     total energy              =    -275.58987480 Ry
     estimated scf accuracy    <       0.28773486 Ry

     iteration #  2     ecut=    90.00 Ry     beta= 0.70
     Davidson diagonalization with overlap
     ethr =  4.50E-04,  avg # of iterations =  2.2

     total cpu time spent up to now is       37.4 secs

     total energy              =    -275.67280491 Ry
     estimated scf accuracy    <       0.05099147 Ry

     iteration #  3     ecut=    90.00 Ry     beta= 0.70
     Davidson diagonalization with overlap
     ethr =  7.97E-05,  avg # of iterations =  2.0

     total cpu time spent up to now is       39.0 secs

     total energy              =    -275.67681731 Ry
     estimated scf accuracy    <       0.00232909 Ry

     iteration #  4     ecut=    90.00 Ry     beta= 0.70
     Davidson diagonalization with overlap
     ethr =  3.64E-06,  avg # of iterations =  3.5

     total cpu time spent up to now is       41.3 secs

     total energy              =    -275.67775203 Ry
     estimated scf accuracy    <       0.00079722 Ry

     iteration #  5     ecut=    90.00 Ry     beta= 0.70
     Davidson diagonalization with overlap
     ethr =  1.25E-06,  avg # of iterations =  3.0

     total cpu time spent up to now is       43.5 secs

     total energy              =    -275.67798012 Ry
     estimated scf accuracy    <       0.00013418 Ry

     iteration #  6     ecut=    90.00 Ry     beta= 0.70
     Davidson diagonalization with overlap
     ethr =  2.10E-07,  avg # of iterations =  2.0

     total cpu time spent up to now is       45.4 secs

     total energy              =    -275.67800647 Ry
     estimated scf accuracy    <       0.00000152 Ry

     iteration #  7     ecut=    90.00 Ry     beta= 0.70
     Davidson diagonalization with overlap
     ethr =  2.38E-09,  avg # of iterations =  4.9

     total cpu time spent up to now is       48.1 secs

     total energy              =    -275.67800719 Ry
     estimated scf accuracy    <       0.00000165 Ry

     iteration #  8     ecut=    90.00 Ry     beta= 0.70
     Davidson diagonalization with overlap
     ethr =  2.38E-09,  avg # of iterations =  2.0

     total cpu time spent up to now is       49.9 secs

     End of self-consistent calculation

     Number of k-points >= 100: set verbosity='high' to print the bands.

     highest occupied level (ev):     1.6767

!    total energy              =    -275.67800742 Ry
     estimated scf accuracy    <       0.00000005 Ry

     The total energy is the sum of the following terms:
     one-electron contribution =     -90.14036669 Ry
     hartree contribution      =      76.80741219 Ry
     xc contribution           =     -67.43579353 Ry
     ewald contribution        =    -194.90925939 Ry

     convergence has been achieved in   8 iterations

     Forces acting on atoms (cartesian axes, Ry/au):

     atom    1 type  2   force =     0.00000000   -0.00000002    0.14945744
     atom    2 type  2   force =     0.00000000    0.00000002   -0.14945744
     atom    3 type  2   force =    -0.00000000   -0.00000001    0.14947917
     atom    4 type  2   force =    -0.00000000    0.00000001   -0.14947917
     atom    5 type  2   force =     0.00000000   -0.00000000    0.14942466
     atom    6 type  2   force =     0.00000000    0.00000000   -0.14942466
     atom    7 type  2   force =    -0.00000000   -0.00000001    0.14950585
     atom    8 type  2   force =    -0.00000000    0.00000001   -0.14950585
     atom    9 type  1   force =     0.00000000   -0.03199444   -0.06092939
     atom   10 type  1   force =     0.00000000    0.03199444    0.06092939
     atom   11 type  1   force =     0.00000000    0.03199871   -0.06094484
     atom   12 type  1   force =     0.00000000   -0.03199871    0.06094484
     atom   13 type  1   force =     0.03199513    0.00000000   -0.06093538
     atom   14 type  1   force =    -0.03199513   -0.00000000    0.06093538
     atom   15 type  1   force =    -0.03199769    0.00000000   -0.06093775
     atom   16 type  1   force =     0.03199769   -0.00000000    0.06093775
     atom   17 type  1   force =    -0.03199769   -0.00000000    0.06093775
     atom   18 type  1   force =     0.03199769    0.00000000   -0.06093775
     atom   19 type  1   force =     0.03199513   -0.00000000    0.06093538
     atom   20 type  1   force =    -0.03199513    0.00000000   -0.06093538
     atom   21 type  1   force =     0.00000000   -0.03199871   -0.06094484
     atom   22 type  1   force =     0.00000000    0.03199871    0.06094484
     atom   23 type  1   force =     0.00000000    0.03199445   -0.06092939
     atom   24 type  1   force =     0.00000000   -0.03199445    0.06092939

     Total force =     0.504496     Total SCF correction =     0.000308


     Computing stress (Cartesian axis) and pressure

          total   stress  (Ry/bohr**3)                   (kbar)     P=      -36.92
   0.00005104   0.00000000   0.00000000            7.51        0.00        0.00
   0.00000000   0.00005105   0.00000000            0.00        7.51        0.00
   0.00000000   0.00000000  -0.00085506            0.00        0.00     -125.78

     Energy error            =      1.0E-01 Ry
     Gradient error          =      1.5E-01 Ry/Bohr

     number of scf cycles    =   2
     number of bfgs steps    =   1

     energy             old  =    -275.5731925955 Ry
     energy             new  =    -275.6780074220 Ry

     CASE: energy            _new < energy            _old

     new trust radius        =       0.0981378488 bohr
     new conv_thr            =       0.0000001000 Ry


ATOMIC_POSITIONS (crystal)
O                0.0000000000        0.2500000016        0.5987257070
O                0.0000000000        0.7499999984        0.4012743220
O                0.5000000000        0.7500000010        0.0987225693
O                0.5000000000        0.2499999990        0.9012774017
O                0.0000000000        0.7500000025        0.8487223055
O                0.0000000000        0.2499999975        0.1512777235
O                0.5000000000        0.2500000045        0.3487263585
O                0.5000000000        0.7499999955        0.6512736125
H                0.0000000000        0.4320010129        0.7013628006
H                0.0000000000        0.5679989571        0.2986371994
H                0.5000000000        0.5679998924        0.2013619820
H                0.5000000000        0.4320000776        0.7986380180
H                0.8179993105        0.7500000004        0.9513624528
H                0.1820006595        0.2499999996        0.0486375472
H                0.6820005742        0.2500000008        0.4513624494
H                0.3179994558        0.7499999992        0.5486375506
H                0.6820005742        0.7499999992        0.5486375506
H                0.3179994558        0.2500000008        0.4513624494
H                0.8179993105        0.2499999996        0.0486375472
H                0.1820006595        0.7500000004        0.9513624528
H                0.5000000000        0.9320001078        0.2013619819
H                0.5000000000        0.0679999222        0.7986380181
H                0.0000000000        0.0679989877        0.7013628005
H                0.0000000000        0.9320010423        0.2986371995



     Writing config-only to output data dir ./iceVIII/iceVIII.save/ :
     XML data file
     NEW-OLD atomic charge density approx. for the potential

     total cpu time spent up to now is       51.5 secs

     per-process dynamical memory:    21.3 Mb

     Self-consistent Calculation

     iteration #  1     ecut=    90.00 Ry     beta= 0.70
     Davidson diagonalization with overlap
     ethr =  1.00E-06,  avg # of iterations =  9.4

     total cpu time spent up to now is       56.9 secs

     total energy              =    -275.79243993 Ry
     estimated scf accuracy    <       0.02633140 Ry

     iteration #  2     ecut=    90.00 Ry     beta= 0.70
     Davidson diagonalization with overlap
     ethr =  4.11E-05,  avg # of iterations =  2.0

     total cpu time spent up to now is       58.9 secs

     total energy              =    -275.79957682 Ry
     estimated scf accuracy    <       0.00413528 Ry

     iteration #  3     ecut=    90.00 Ry     beta= 0.70
     Davidson diagonalization with overlap
     ethr =  6.46E-06,  avg # of iterations =  2.0

     total cpu time spent up to now is       60.6 secs

     total energy              =    -275.79995342 Ry
     estimated scf accuracy    <       0.00017181 Ry

     iteration #  4     ecut=    90.00 Ry     beta= 0.70
     Davidson diagonalization with overlap
     ethr =  2.68E-07,  avg # of iterations =  3.0

     total cpu time spent up to now is       62.7 secs

     total energy              =    -275.80001792 Ry
     estimated scf accuracy    <       0.00004311 Ry

     iteration #  5     ecut=    90.00 Ry     beta= 0.70
     Davidson diagonalization with overlap
     ethr =  6.74E-08,  avg # of iterations =  3.0

     total cpu time spent up to now is       64.9 secs

     total energy              =    -275.80002986 Ry
     estimated scf accuracy    <       0.00000510 Ry

     iteration #  6     ecut=    90.00 Ry     beta= 0.70
     Davidson diagonalization with overlap
     ethr =  7.96E-09,  avg # of iterations =  2.0

     total cpu time spent up to now is       66.7 secs

     End of self-consistent calculation

     Number of k-points >= 100: set verbosity='high' to print the bands.

     highest occupied level (ev):     1.5688

!    total energy              =    -275.80003068 Ry
     estimated scf accuracy    <       0.00000006 Ry

     The total energy is the sum of the following terms:
     one-electron contribution =     -93.49201076 Ry
     hartree contribution      =      78.12800905 Ry
     xc contribution           =     -67.94473523 Ry
     ewald contribution        =    -192.49129374 Ry

     convergence has been achieved in   6 iterations

     Forces acting on atoms (cartesian axes, Ry/au):

     atom    1 type  2   force =     0.00000000   -0.00000001    0.06749881
     atom    2 type  2   force =     0.00000000    0.00000001   -0.06749881
     atom    3 type  2   force =     0.00000000   -0.00000001    0.06750261
     atom    4 type  2   force =     0.00000000    0.00000001   -0.06750261
     atom    5 type  2   force =     0.00000000   -0.00000000    0.06755695
     atom    6 type  2   force =     0.00000000    0.00000000   -0.06755695
     atom    7 type  2   force =     0.00000000   -0.00000001    0.06743839
     atom    8 type  2   force =     0.00000000    0.00000001   -0.06743839
     atom    9 type  1   force =     0.00000000   -0.01416970   -0.02531877
     atom   10 type  1   force =     0.00000000    0.01416970    0.02531877
     atom   11 type  1   force =     0.00000000    0.01417241   -0.02531747
     atom   12 type  1   force =     0.00000000   -0.01417241    0.02531747
     atom   13 type  1   force =     0.01417728    0.00000000   -0.02532486
     atom   14 type  1   force =    -0.01417728   -0.00000000    0.02532486
     atom   15 type  1   force =    -0.01416675    0.00000000   -0.02531073
     atom   16 type  1   force =     0.01416675   -0.00000000    0.02531073
     atom   17 type  1   force =    -0.01416675   -0.00000000    0.02531073
     atom   18 type  1   force =     0.01416675    0.00000000   -0.02531073
     atom   19 type  1   force =     0.01417728   -0.00000000    0.02532486
     atom   20 type  1   force =    -0.01417728    0.00000000   -0.02532486
     atom   21 type  1   force =     0.00000000   -0.01417240   -0.02531747
     atom   22 type  1   force =     0.00000000    0.01417240    0.02531747
     atom   23 type  1   force =     0.00000000    0.01416971   -0.02531877
     atom   24 type  1   force =     0.00000000   -0.01416971    0.02531877

     Total force =     0.223424     Total SCF correction =     0.001197


     Computing stress (Cartesian axis) and pressure

          total   stress  (Ry/bohr**3)                   (kbar)     P=       56.09
   0.00049215   0.00000000   0.00000000           72.40        0.00        0.00
   0.00000000   0.00049220   0.00000000            0.00       72.40        0.00
   0.00000000   0.00000000   0.00015959            0.00        0.00       23.48

     Energy error            =      1.2E-01 Ry
     Gradient error          =      6.8E-02 Ry/Bohr

     number of scf cycles    =   3
     number of bfgs steps    =   2

     energy             old  =    -275.6780074220 Ry
     energy             new  =    -275.8000306784 Ry

     CASE: energy            _new < energy            _old

     new trust radius        =       0.0805860721 bohr
     new conv_thr            =       0.0000001000 Ry


ATOMIC_POSITIONS (crystal)
O                0.0000000000        0.2500000000        0.6054564858
O                0.0000000000        0.7500000000        0.3945435432
O                0.5000000000        0.7500000000        0.1054533928
O                0.5000000000        0.2500000000        0.8945465782
O                0.0000000000        0.7500000020        0.8554624481
O                0.0000000000        0.2499999980        0.1445375809
O                0.5000000000        0.2500000035        0.3554470422
O                0.5000000000        0.7499999965        0.6445529288
H                0.0000000000        0.4302601102        0.6989848833
H                0.0000000000        0.5697398598        0.3010151167
H                0.5000000000        0.5697412659        0.1989845761
H                0.5000000000        0.4302587041        0.8010154239
H                0.8197418381        0.7500000007        0.9489837435
H                0.1802581319        0.2499999993        0.0510162565
H                0.6802604019        0.2500000011        0.4489859116
H                0.3197396281        0.7499999989        0.5510140884
H                0.6802604019        0.7499999989        0.5510140884
H                0.3197396281        0.2500000011        0.4489859116
H                0.8197418381        0.2499999993        0.0510162565
H                0.1802581319        0.7500000007        0.9489837435
H                0.5000000000        0.9302587352        0.1989845762
H                0.5000000000        0.0697412948        0.8010154238
H                0.0000000000        0.0697398915        0.6989848828
H                0.0000000000        0.9302601385        0.3010151172



     Writing config-only to output data dir ./iceVIII/iceVIII.save/ :
     XML data file
     NEW-OLD atomic charge density approx. for the potential

     total cpu time spent up to now is       68.3 secs

     per-process dynamical memory:    21.3 Mb

     Self-consistent Calculation

     iteration #  1     ecut=    90.00 Ry     beta= 0.70
     Davidson diagonalization with overlap
     ethr =  1.00E-06,  avg # of iterations =  9.0

     total cpu time spent up to now is       73.3 secs

     total energy              =    -275.81467491 Ry
     estimated scf accuracy    <       0.02014713 Ry

     iteration #  2     ecut=    90.00 Ry     beta= 0.70
     Davidson diagonalization with overlap
     ethr =  3.15E-05,  avg # of iterations =  2.0

     total cpu time spent up to now is       75.3 secs

     total energy              =    -275.82037322 Ry
     estimated scf accuracy    <       0.00322721 Ry

     iteration #  3     ecut=    90.00 Ry     beta= 0.70
     Davidson diagonalization with overlap
     ethr =  5.04E-06,  avg # of iterations =  2.0

     total cpu time spent up to now is       76.9 secs

     total energy              =    -275.82064034 Ry
     estimated scf accuracy    <       0.00013723 Ry

     iteration #  4     ecut=    90.00 Ry     beta= 0.70
     Davidson diagonalization with overlap
     ethr =  2.14E-07,  avg # of iterations =  2.9

     total cpu time spent up to now is       79.0 secs

     total energy              =    -275.82069808 Ry
     estimated scf accuracy    <       0.00003336 Ry

     iteration #  5     ecut=    90.00 Ry     beta= 0.70
     Davidson diagonalization with overlap
     ethr =  5.21E-08,  avg # of iterations =  2.7

     total cpu time spent up to now is       81.1 secs

     total energy              =    -275.82070755 Ry
     estimated scf accuracy    <       0.00000351 Ry

     iteration #  6     ecut=    90.00 Ry     beta= 0.70
     Davidson diagonalization with overlap
     ethr =  5.48E-09,  avg # of iterations =  2.0

     total cpu time spent up to now is       83.0 secs

     End of self-consistent calculation

     Number of k-points >= 100: set verbosity='high' to print the bands.

     highest occupied level (ev):     1.5150

!    total energy              =    -275.82070804 Ry
     estimated scf accuracy    <       0.00000006 Ry

     The total energy is the sum of the following terms:
     one-electron contribution =     -96.78830600 Ry
     hartree contribution      =      79.48957250 Ry
     xc contribution           =     -68.38814589 Ry
     ewald contribution        =    -190.13382866 Ry

     convergence has been achieved in   6 iterations

     Forces acting on atoms (cartesian axes, Ry/au):

     atom    1 type  2   force =     0.00000000    0.00000001   -0.01667005
     atom    2 type  2   force =     0.00000000   -0.00000001    0.01667005
     atom    3 type  2   force =     0.00000000    0.00000001   -0.01659811
     atom    4 type  2   force =     0.00000000   -0.00000001    0.01659811
     atom    5 type  2   force =     0.00000000   -0.00000000   -0.01674187
     atom    6 type  2   force =     0.00000000    0.00000000    0.01674187
     atom    7 type  2   force =     0.00000000   -0.00000000   -0.01652509
     atom    8 type  2   force =     0.00000000    0.00000000    0.01652509
     atom    9 type  1   force =     0.00000000    0.01557357    0.01289040
     atom   10 type  1   force =     0.00000000   -0.01557357   -0.01289040
     atom   11 type  1   force =     0.00000000   -0.01556742    0.01287856
     atom   12 type  1   force =     0.00000000    0.01556742   -0.01287856
     atom   13 type  1   force =    -0.01560757    0.00000000    0.01292644
     atom   14 type  1   force =     0.01560757   -0.00000000   -0.01292644
     atom   15 type  1   force =     0.01552879    0.00000000    0.01284118
     atom   16 type  1   force =    -0.01552879   -0.00000000   -0.01284118
     atom   17 type  1   force =     0.01552879   -0.00000000   -0.01284118
     atom   18 type  1   force =    -0.01552879    0.00000000    0.01284118
     atom   19 type  1   force =    -0.01560757   -0.00000000   -0.01292644
     atom   20 type  1   force =     0.01560757    0.00000000    0.01292644
     atom   21 type  1   force =     0.00000000    0.01556741    0.01287856
     atom   22 type  1   force =     0.00000000   -0.01556741   -0.01287856
     atom   23 type  1   force =     0.00000000   -0.01557358    0.01289041
     atom   24 type  1   force =     0.00000000    0.01557358   -0.01289041

     Total force =     0.093531     Total SCF correction =     0.001145


     Computing stress (Cartesian axis) and pressure

          total   stress  (Ry/bohr**3)                   (kbar)     P=      152.07
   0.00102955   0.00000000   0.00000000          151.45        0.00        0.00
   0.00000000   0.00102967  -0.00000000            0.00      151.47       -0.00
   0.00000000  -0.00000000   0.00104197            0.00       -0.00      153.28

     Energy error            =      2.1E-02 Ry
     Gradient error          =      1.7E-02 Ry/Bohr

     number of scf cycles    =   4
     number of bfgs steps    =   3

     energy             old  =    -275.8000306784 Ry
     energy             new  =    -275.8207080380 Ry

     CASE: energy            _new < energy            _old

     new trust radius        =       0.0151363263 bohr
     new conv_thr            =       0.0000001000 Ry


ATOMIC_POSITIONS (crystal)
O                0.0000000000        0.2500000010        0.6043635194
O                0.0000000000        0.7499999990        0.3956365096
O                0.5000000000        0.7500000007        0.1043649696
O                0.5000000000        0.2499999993        0.8956350014
O                0.0000000000        0.7500000018        0.8543640319
O                0.0000000000        0.2499999982        0.1456359971
O                0.5000000000        0.2500000032        0.3543641920
O                0.5000000000        0.7499999968        0.6456357790
H                0.0000000000        0.4316750544        0.6997799776
H                0.0000000000        0.5683249156        0.3002200224
H                0.5000000000        0.5683268565        0.1997788265
H                0.5000000000        0.4316731135        0.8002211735
H                0.8183237043        0.7500000007        0.9497811252
H                0.1816762657        0.2499999993        0.0502188748
H                0.6816712480        0.2500000012        0.4497777887
H                0.3183287820        0.7499999988        0.5502222113
H                0.6816712480        0.7499999988        0.5502222113
H                0.3183287820        0.2500000012        0.4497777887
H                0.8183237043        0.2499999993        0.0502188748
H                0.1816762657        0.7500000007        0.9497811252
H                0.5000000000        0.9316731440        0.1997788263
H                0.5000000000        0.0683268860        0.8002211737
H                0.0000000000        0.0683249464        0.6997799776
H                0.0000000000        0.9316750836        0.3002200224



     Writing config-only to output data dir ./iceVIII/iceVIII.save/ :
     XML data file
     NEW-OLD atomic charge density approx. for the potential

     total cpu time spent up to now is       84.5 secs

     per-process dynamical memory:    21.5 Mb

     Self-consistent Calculation

     iteration #  1     ecut=    90.00 Ry     beta= 0.70
     Davidson diagonalization with overlap
     ethr =  1.00E-06,  avg # of iterations =  4.1

     total cpu time spent up to now is       87.5 secs

     total energy              =    -275.82372203 Ry
     estimated scf accuracy    <       0.00125773 Ry

     iteration #  2     ecut=    90.00 Ry     beta= 0.70
     Davidson diagonalization with overlap
     ethr =  1.97E-06,  avg # of iterations =  3.0

     total cpu time spent up to now is       89.7 secs

     total energy              =    -275.82407871 Ry
     estimated scf accuracy    <       0.00027680 Ry

     iteration #  3     ecut=    90.00 Ry     beta= 0.70
     Davidson diagonalization with overlap
     ethr =  4.32E-07,  avg # of iterations =  2.0

     total cpu time spent up to now is       91.4 secs

     total energy              =    -275.82410767 Ry
     estimated scf accuracy    <       0.00000918 Ry

     iteration #  4     ecut=    90.00 Ry     beta= 0.70
     Davidson diagonalization with overlap
     ethr =  1.43E-08,  avg # of iterations =  4.0

     total cpu time spent up to now is       93.9 secs

     total energy              =    -275.82411249 Ry
     estimated scf accuracy    <       0.00000784 Ry

     iteration #  5     ecut=    90.00 Ry     beta= 0.70
     Davidson diagonalization with overlap
     ethr =  1.23E-08,  avg # of iterations =  2.4

     total cpu time spent up to now is       95.9 secs

     total energy              =    -275.82411461 Ry
     estimated scf accuracy    <       0.00000011 Ry

     iteration #  6     ecut=    90.00 Ry     beta= 0.70
     Davidson diagonalization with overlap
     ethr =  1.73E-10,  avg # of iterations =  4.0

     total cpu time spent up to now is       98.3 secs

     total energy              =    -275.82411461 Ry
     estimated scf accuracy    <       0.00000013 Ry

     iteration #  7     ecut=    90.00 Ry     beta= 0.70
     Davidson diagonalization with overlap
     ethr =  1.73E-10,  avg # of iterations =  2.4

     total cpu time spent up to now is      100.4 secs

     End of self-consistent calculation

     Number of k-points >= 100: set verbosity='high' to print the bands.

     highest occupied level (ev):     1.5348

!    total energy              =    -275.82411464 Ry
     estimated scf accuracy    <          1.2E-09 Ry

     The total energy is the sum of the following terms:
     one-electron contribution =     -95.64661769 Ry
     hartree contribution      =      79.00616734 Ry
     xc contribution           =     -68.25306032 Ry
     ewald contribution        =    -190.93060398 Ry

     convergence has been achieved in   7 iterations

     Forces acting on atoms (cartesian axes, Ry/au):

     atom    1 type  2   force =     0.00000000   -0.00000001    0.00609305
     atom    2 type  2   force =     0.00000000    0.00000001   -0.00609305
     atom    3 type  2   force =    -0.00000000   -0.00000000    0.00612731
     atom    4 type  2   force =    -0.00000000    0.00000000   -0.00612731
     atom    5 type  2   force =     0.00000000   -0.00000000    0.00612874
     atom    6 type  2   force =     0.00000000    0.00000000   -0.00612874
     atom    7 type  2   force =    -0.00000000   -0.00000000    0.00608848
     atom    8 type  2   force =    -0.00000000    0.00000000   -0.00608848
     atom    9 type  1   force =     0.00000000    0.00330288    0.00221688
     atom   10 type  1   force =     0.00000000   -0.00330288   -0.00221688
     atom   11 type  1   force =     0.00000000   -0.00331985    0.00223703
     atom   12 type  1   force =     0.00000000    0.00331985   -0.00223703
     atom   13 type  1   force =    -0.00329156    0.00000000    0.00221573
     atom   14 type  1   force =     0.00329156   -0.00000000   -0.00221573
     atom   15 type  1   force =     0.00333046    0.00000000    0.00223880
     atom   16 type  1   force =    -0.00333046   -0.00000000   -0.00223880
     atom   17 type  1   force =     0.00333046   -0.00000000   -0.00223880
     atom   18 type  1   force =    -0.00333046    0.00000000    0.00223880
     atom   19 type  1   force =    -0.00329156   -0.00000000   -0.00221573
     atom   20 type  1   force =     0.00329156    0.00000000    0.00221573
     atom   21 type  1   force =     0.00000000    0.00331986    0.00223703
     atom   22 type  1   force =     0.00000000   -0.00331986   -0.00223703
     atom   23 type  1   force =     0.00000000   -0.00330287    0.00221688
     atom   24 type  1   force =     0.00000000    0.00330287   -0.00221688

     Total force =     0.023524     Total SCF correction =     0.000095


     Computing stress (Cartesian axis) and pressure

          total   stress  (Ry/bohr**3)                   (kbar)     P=      120.08
   0.00082778   0.00000000   0.00000000          121.77        0.00        0.00
   0.00000000   0.00082787   0.00000000            0.00      121.78        0.00
   0.00000000   0.00000000   0.00079322            0.00        0.00      116.69

     Energy error            =      3.4E-03 Ry
     Gradient error          =      6.1E-03 Ry/Bohr

     number of scf cycles    =   5
     number of bfgs steps    =   4

     energy             old  =    -275.8207080380 Ry
     energy             new  =    -275.8241146394 Ry

     CASE: energy            _new < energy            _old

     new trust radius        =       0.0066818226 bohr
     new conv_thr            =       0.0000000341 Ry


ATOMIC_POSITIONS (crystal)
O                0.0000000000        0.2500000003        0.6049187252
O                0.0000000000        0.7499999997        0.3950813038
O                0.5000000000        0.7500000003        0.1049238309
O                0.5000000000        0.2499999997        0.8950761401
O                0.0000000000        0.7500000016        0.8549218666
O                0.0000000000        0.2499999984        0.1450781624
O                0.5000000000        0.2500000027        0.3549201442
O                0.5000000000        0.7499999973        0.6450798268
H                0.0000000000        0.4322978958        0.7000340975
H                0.0000000000        0.5677020742        0.2999659025
H                0.5000000000        0.5677019566        0.2000346097
H                0.5000000000        0.4322980134        0.7999653903
H                0.8177018907        0.7500000007        0.9500354467
H                0.1822980793        0.2499999993        0.0499645533
H                0.6822970195        0.2500000013        0.4500334150
H                0.3177030105        0.7499999987        0.5499665850
H                0.6822970195        0.7499999987        0.5499665850
H                0.3177030105        0.2500000013        0.4500334150
H                0.8177018907        0.2499999993        0.0499645533
H                0.1822980793        0.7500000007        0.9500354467
H                0.5000000000        0.9322980443        0.2000346096
H                0.5000000000        0.0677019857        0.7999653904
H                0.0000000000        0.0677021054        0.7000340973
H                0.0000000000        0.9322979246        0.2999659027



     Writing config-only to output data dir ./iceVIII/iceVIII.save/ :
     XML data file
     NEW-OLD atomic charge density approx. for the potential

     total cpu time spent up to now is      101.9 secs

     per-process dynamical memory:    21.5 Mb

     Self-consistent Calculation

     iteration #  1     ecut=    90.00 Ry     beta= 0.70
     Davidson diagonalization with overlap
     ethr =  1.00E-06,  avg # of iterations =  3.1

     Threshold (ethr) on eigenvalues was too large:
     Diagonalizing with lowered threshold

     Davidson diagonalization with overlap
     ethr =  5.67E-08,  avg # of iterations =  3.3

     total cpu time spent up to now is      106.4 secs

     total energy              =    -275.82472105 Ry
     estimated scf accuracy    <       0.00004565 Ry

     iteration #  2     ecut=    90.00 Ry     beta= 0.70
     Davidson diagonalization with overlap
     ethr =  7.13E-08,  avg # of iterations =  2.0

     total cpu time spent up to now is      108.2 secs

     total energy              =    -275.82472856 Ry
     estimated scf accuracy    <       0.00000270 Ry

     iteration #  3     ecut=    90.00 Ry     beta= 0.70
     Davidson diagonalization with overlap
     ethr =  4.22E-09,  avg # of iterations =  2.0

     total cpu time spent up to now is      110.2 secs

     total energy              =    -275.82472917 Ry
     estimated scf accuracy    <       0.00000029 Ry

     iteration #  4     ecut=    90.00 Ry     beta= 0.70
     Davidson diagonalization with overlap
     ethr =  4.54E-10,  avg # of iterations =  2.0

     total cpu time spent up to now is      111.8 secs

     End of self-consistent calculation

     Number of k-points >= 100: set verbosity='high' to print the bands.

     highest occupied level (ev):     1.5405

!    total energy              =    -275.82472921 Ry
     estimated scf accuracy    <       0.00000001 Ry

     The total energy is the sum of the following terms:
     one-electron contribution =     -95.47152871 Ry
     hartree contribution      =      78.92594313 Ry
     xc contribution           =     -68.24100901 Ry
     ewald contribution        =    -191.03813463 Ry

     convergence has been achieved in   4 iterations

     Forces acting on atoms (cartesian axes, Ry/au):

     atom    1 type  2   force =     0.00000000    0.00000000    0.00547739
     atom    2 type  2   force =     0.00000000   -0.00000000   -0.00547739
     atom    3 type  2   force =     0.00000000    0.00000000    0.00548866
     atom    4 type  2   force =     0.00000000   -0.00000000   -0.00548866
     atom    5 type  2   force =    -0.00000000   -0.00000000    0.00547498
     atom    6 type  2   force =    -0.00000000    0.00000000   -0.00547498
     atom    7 type  2   force =     0.00000000   -0.00000000    0.00549101
     atom    8 type  2   force =     0.00000000    0.00000000   -0.00549101
     atom    9 type  1   force =     0.00000000    0.00140448    0.00226498
     atom   10 type  1   force =     0.00000000   -0.00140448   -0.00226498
     atom   11 type  1   force =     0.00000000   -0.00141898    0.00228692
     atom   12 type  1   force =     0.00000000    0.00141898   -0.00228692
     atom   13 type  1   force =    -0.00140720    0.00000000    0.00227530
     atom   14 type  1   force =     0.00140720   -0.00000000   -0.00227530
     atom   15 type  1   force =     0.00141557    0.00000000    0.00227625
     atom   16 type  1   force =    -0.00141557   -0.00000000   -0.00227625
     atom   17 type  1   force =     0.00141557   -0.00000000   -0.00227625
     atom   18 type  1   force =    -0.00141557    0.00000000    0.00227625
     atom   19 type  1   force =    -0.00140720   -0.00000000   -0.00227530
     atom   20 type  1   force =     0.00140720    0.00000000    0.00227530
     atom   21 type  1   force =     0.00000000    0.00141898    0.00228692
     atom   22 type  1   force =     0.00000000   -0.00141898   -0.00228692
     atom   23 type  1   force =     0.00000000   -0.00140448    0.00226498
     atom   24 type  1   force =     0.00000000    0.00140448   -0.00226498

     Total force =     0.018848     Total SCF correction =     0.000030


     Computing stress (Cartesian axis) and pressure

          total   stress  (Ry/bohr**3)                   (kbar)     P=      116.32
   0.00079672   0.00000000   0.00000000          117.20        0.00        0.00
   0.00000000   0.00079682  -0.00000000            0.00      117.22       -0.00
   0.00000000  -0.00000000   0.00077862            0.00       -0.00      114.54

     Energy error            =      6.1E-04 Ry
     Gradient error          =      5.5E-03 Ry/Bohr

     number of scf cycles    =   6
     number of bfgs steps    =   5

     energy             old  =    -275.8241146394 Ry
     energy             new  =    -275.8247292130 Ry

     CASE: energy            _new < energy            _old

     new trust radius        =       0.0073500048 bohr
     new conv_thr            =       0.0000000061 Ry


ATOMIC_POSITIONS (crystal)
O                0.0000000000        0.2500000008        0.6055310346
O                0.0000000000        0.7499999992        0.3944689944
O                0.5000000000        0.7500000006        0.1055384309
O                0.5000000000        0.2499999994        0.8944615401
O               -0.0000000000        0.7500000013        0.8555339691
O               -0.0000000000        0.2499999987        0.1444660599
O                0.5000000000        0.2500000022        0.3555348916
O                0.5000000000        0.7499999978        0.6444650794
H                0.0000000000        0.4327785776        0.7003519803
H                0.0000000000        0.5672213924        0.2996480197
H                0.5000000000        0.5672190243        0.2003547568
H                0.5000000000        0.4327809457        0.7996452432
H                0.8172206574        0.7500000008        0.9503546087
H                0.1827793126        0.2499999992        0.0496453913
H                0.6827792193        0.2500000013        0.4503522493
H                0.3172208107        0.7499999987        0.5496477507
H                0.6827792193        0.7499999987        0.5496477507
H                0.3172208107        0.2500000013        0.4503522493
H                0.8172206574        0.2499999992        0.0496453913
H                0.1827793126        0.7500000008        0.9503546087
H                0.5000000000        0.9327809764        0.2003547565
H                0.5000000000        0.0672190536        0.7996452435
H                0.0000000000        0.0672214232        0.7003519804
H                0.0000000000        0.9327786068        0.2996480196



     Writing config-only to output data dir ./iceVIII/iceVIII.save/ :
     XML data file
     NEW-OLD atomic charge density approx. for the potential

     total cpu time spent up to now is      113.3 secs

     per-process dynamical memory:    21.5 Mb

     Self-consistent Calculation

     iteration #  1     ecut=    90.00 Ry     beta= 0.70
     Davidson diagonalization with overlap
     ethr =  1.00E-06,  avg # of iterations =  3.1

     Threshold (ethr) on eigenvalues was too large:
     Diagonalizing with lowered threshold

     Davidson diagonalization with overlap
     ethr =  6.60E-08,  avg # of iterations =  2.7

     total cpu time spent up to now is      117.8 secs

     total energy              =    -275.82520394 Ry
     estimated scf accuracy    <       0.00005055 Ry

     iteration #  2     ecut=    90.00 Ry     beta= 0.70
     Davidson diagonalization with overlap
     ethr =  7.90E-08,  avg # of iterations =  2.0

     total cpu time spent up to now is      119.6 secs

     total energy              =    -275.82521216 Ry
     estimated scf accuracy    <       0.00000182 Ry

     iteration #  3     ecut=    90.00 Ry     beta= 0.70
     Davidson diagonalization with overlap
     ethr =  2.84E-09,  avg # of iterations =  2.3

     total cpu time spent up to now is      121.4 secs

     total energy              =    -275.82521249 Ry
     estimated scf accuracy    <       0.00000016 Ry

     iteration #  4     ecut=    90.00 Ry     beta= 0.70
     Davidson diagonalization with overlap
     ethr =  2.57E-10,  avg # of iterations =  2.7

     total cpu time spent up to now is      123.4 secs

     total energy              =    -275.82521253 Ry
     estimated scf accuracy    <       0.00000002 Ry

     iteration #  5     ecut=    90.00 Ry     beta= 0.70
     Davidson diagonalization with overlap
     ethr =  2.81E-11,  avg # of iterations =  2.5

     total cpu time spent up to now is      125.4 secs

     End of self-consistent calculation

     Number of k-points >= 100: set verbosity='high' to print the bands.

     highest occupied level (ev):     1.5456

!    total energy              =    -275.82521253 Ry
     estimated scf accuracy    <          5.8E-10 Ry

     The total energy is the sum of the following terms:
     one-electron contribution =     -95.33514743 Ry
     hartree contribution      =      78.86278844 Ry
     xc contribution           =     -68.23433037 Ry
     ewald contribution        =    -191.11852318 Ry

     convergence has been achieved in   5 iterations

     Forces acting on atoms (cartesian axes, Ry/au):

     atom    1 type  2   force =    -0.00000000   -0.00000000    0.00430605
     atom    2 type  2   force =    -0.00000000    0.00000000   -0.00430605
     atom    3 type  2   force =     0.00000000   -0.00000000    0.00430845
     atom    4 type  2   force =     0.00000000    0.00000000   -0.00430845
     atom    5 type  2   force =     0.00000000   -0.00000000    0.00430642
     atom    6 type  2   force =     0.00000000    0.00000000   -0.00430642
     atom    7 type  2   force =     0.00000000   -0.00000000    0.00430797
     atom    8 type  2   force =     0.00000000    0.00000000   -0.00430797
     atom    9 type  1   force =     0.00000000    0.00011631    0.00253061
     atom   10 type  1   force =     0.00000000   -0.00011631   -0.00253061
     atom   11 type  1   force =     0.00000000   -0.00012062    0.00254680
     atom   12 type  1   force =     0.00000000    0.00012062   -0.00254680
     atom   13 type  1   force =    -0.00011173    0.00000000    0.00253348
     atom   14 type  1   force =     0.00011173   -0.00000000   -0.00253348
     atom   15 type  1   force =     0.00012569    0.00000000    0.00254392
     atom   16 type  1   force =    -0.00012569   -0.00000000   -0.00254392
     atom   17 type  1   force =     0.00012569   -0.00000000   -0.00254392
     atom   18 type  1   force =    -0.00012569    0.00000000    0.00254392
     atom   19 type  1   force =    -0.00011173   -0.00000000   -0.00253348
     atom   20 type  1   force =     0.00011173    0.00000000    0.00253348
     atom   21 type  1   force =     0.00000000    0.00012062    0.00254681
     atom   22 type  1   force =     0.00000000   -0.00012062   -0.00254681
     atom   23 type  1   force =     0.00000000   -0.00011631    0.00253061
     atom   24 type  1   force =     0.00000000    0.00011631   -0.00253061

     Total force =     0.015867     Total SCF correction =     0.000044


     Computing stress (Cartesian axis) and pressure

          total   stress  (Ry/bohr**3)                   (kbar)     P=      114.13
   0.00077705   0.00000000   0.00000000          114.31        0.00        0.00
   0.00000000   0.00077714   0.00000000            0.00      114.32        0.00
   0.00000000   0.00000000   0.00077333            0.00        0.00      113.76

     Energy error            =      4.8E-04 Ry
     Gradient error          =      4.3E-03 Ry/Bohr

     number of scf cycles    =   7
     number of bfgs steps    =   6

     energy             old  =    -275.8247292130 Ry
     energy             new  =    -275.8252125344 Ry

     CASE: energy            _new < energy            _old

     new trust radius        =       0.0110250073 bohr
     new conv_thr            =       0.0000000048 Ry


ATOMIC_POSITIONS (crystal)
O               -0.0000000000        0.2499999999        0.6064502888
O               -0.0000000000        0.7500000001        0.3935497402
O                0.5000000000        0.7500000000        0.1064605520
O                0.5000000000        0.2500000000        0.8935394190
O               -0.0000000000        0.7500000009        0.8564538055
O               -0.0000000000        0.2499999991        0.1435462235
O                0.5000000000        0.2500000015        0.3564562874
O                0.5000000000        0.7499999985        0.6435436836
H                0.0000000000        0.4333303808        0.7009335662
H                0.0000000000        0.5666695892        0.2990664338
H                0.5000000000        0.5666651862        0.2009395876
H                0.5000000000        0.4333347838        0.7990604124
H                0.8166696873        0.7500000008        0.9509372109
H                0.1833302827        0.2499999992        0.0490627891
H                0.6833338280        0.2500000014        0.4509360639
H                0.3166662020        0.7499999986        0.5490639361
H                0.6833338280        0.7499999986        0.5490639361
H                0.3166662020        0.2500000014        0.4509360639
H                0.8166696873        0.2499999992        0.0490627891
H                0.1833302827        0.7500000008        0.9509372109
H                0.5000000000        0.9333348150        0.2009395874
H                0.5000000000        0.0666652150        0.7990604126
H                0.0000000000        0.0666696206        0.7009335660
H                0.0000000000        0.9333304094        0.2990664340



     Writing config-only to output data dir ./iceVIII/iceVIII.save/ :
     XML data file
     NEW-OLD atomic charge density approx. for the potential

     total cpu time spent up to now is      126.9 secs

     per-process dynamical memory:    21.5 Mb

     Self-consistent Calculation

     iteration #  1     ecut=    90.00 Ry     beta= 0.70
     Davidson diagonalization with overlap
     ethr =  1.00E-06,  avg # of iterations =  4.0

     total cpu time spent up to now is      129.8 secs

     total energy              =    -275.82575511 Ry
     estimated scf accuracy    <       0.00009974 Ry

     iteration #  2     ecut=    90.00 Ry     beta= 0.70
     Davidson diagonalization with overlap
     ethr =  1.56E-07,  avg # of iterations =  2.3

     total cpu time spent up to now is      131.7 secs

     total energy              =    -275.82577633 Ry
     estimated scf accuracy    <       0.00000469 Ry

     iteration #  3     ecut=    90.00 Ry     beta= 0.70
     Davidson diagonalization with overlap
     ethr =  7.33E-09,  avg # of iterations =  3.2

     total cpu time spent up to now is      133.8 secs

     total energy              =    -275.82577767 Ry
     estimated scf accuracy    <       0.00000042 Ry

     iteration #  4     ecut=    90.00 Ry     beta= 0.70
     Davidson diagonalization with overlap
     ethr =  6.58E-10,  avg # of iterations =  3.1

     total cpu time spent up to now is      136.0 secs

     total energy              =    -275.82577778 Ry
     estimated scf accuracy    <       0.00000005 Ry

     iteration #  5     ecut=    90.00 Ry     beta= 0.70
     Davidson diagonalization with overlap
     ethr =  7.17E-11,  avg # of iterations =  2.6

     total cpu time spent up to now is      138.0 secs

     End of self-consistent calculation

     Number of k-points >= 100: set verbosity='high' to print the bands.

     highest occupied level (ev):     1.5530

!    total energy              =    -275.82577779 Ry
     estimated scf accuracy    <          3.1E-09 Ry

     The total energy is the sum of the following terms:
     one-electron contribution =     -95.14750889 Ry
     hartree contribution      =      78.77431083 Ry
     xc contribution           =     -68.22610448 Ry
     ewald contribution        =    -191.22647525 Ry

     convergence has been achieved in   5 iterations

     Forces acting on atoms (cartesian axes, Ry/au):

     atom    1 type  2   force =     0.00000000    0.00000001    0.00271802
     atom    2 type  2   force =     0.00000000   -0.00000001   -0.00271802
     atom    3 type  2   force =     0.00000000    0.00000001    0.00270312
     atom    4 type  2   force =     0.00000000   -0.00000001   -0.00270312
     atom    5 type  2   force =     0.00000000   -0.00000000    0.00270191
     atom    6 type  2   force =     0.00000000    0.00000000   -0.00270191
     atom    7 type  2   force =    -0.00000000   -0.00000000    0.00271874
     atom    8 type  2   force =    -0.00000000    0.00000000   -0.00271874
     atom    9 type  1   force =     0.00000000   -0.00132249    0.00282046
     atom   10 type  1   force =     0.00000000    0.00132249   -0.00282046
     atom   11 type  1   force =     0.00000000    0.00132825    0.00282910
     atom   12 type  1   force =     0.00000000   -0.00132825   -0.00282910
     atom   13 type  1   force =     0.00132334   -0.00000000    0.00282297
     atom   14 type  1   force =    -0.00132334    0.00000000   -0.00282297
     atom   15 type  1   force =    -0.00132607   -0.00000000    0.00282655
     atom   16 type  1   force =     0.00132607    0.00000000   -0.00282655
     atom   17 type  1   force =    -0.00132607    0.00000000   -0.00282655
     atom   18 type  1   force =     0.00132607   -0.00000000    0.00282655
     atom   19 type  1   force =     0.00132334    0.00000000   -0.00282297
     atom   20 type  1   force =    -0.00132334   -0.00000000    0.00282297
     atom   21 type  1   force =     0.00000000   -0.00132826    0.00282910
     atom   22 type  1   force =     0.00000000    0.00132826   -0.00282910
     atom   23 type  1   force =     0.00000000    0.00132249    0.00282046
     atom   24 type  1   force =     0.00000000   -0.00132249   -0.00282046

     Total force =     0.014647     Total SCF correction =     0.000203


     Computing stress (Cartesian axis) and pressure

          total   stress  (Ry/bohr**3)                   (kbar)     P=      111.37
   0.00075286   0.00000000   0.00000000          110.75        0.00        0.00
   0.00000000   0.00075297  -0.00000000            0.00      110.77       -0.00
   0.00000000  -0.00000000   0.00076543            0.00       -0.00      112.60

     Energy error            =      5.7E-04 Ry
     Gradient error          =      2.8E-03 Ry/Bohr

     number of scf cycles    =   8
     number of bfgs steps    =   7

     energy             old  =    -275.8252125344 Ry
     energy             new  =    -275.8257777908 Ry

     CASE: energy            _new < energy            _old

     new trust radius        =       0.0165375109 bohr
     new conv_thr            =       0.0000000057 Ry


ATOMIC_POSITIONS (crystal)
O               -0.0000000000        0.2500000010        0.6078304877
O               -0.0000000000        0.7499999990        0.3921695413
O                0.5000000000        0.7500000007        0.1078431953
O                0.5000000000        0.2499999993        0.8921567757
O               -0.0000000000        0.7500000003        0.8578331236
O               -0.0000000000        0.2499999997        0.1421669054
O                0.5000000000        0.2500000004        0.3578394691
O                0.5000000000        0.7499999996        0.6421605019
H                0.0000000000        0.4339326623        0.7019693416
H                0.0000000000        0.5660673077        0.2980306584
H                0.5000000000        0.5660613051        0.2019800017
H                0.5000000000        0.4339386649        0.7980199983
H                0.8160683506        0.7500000008        0.9519745240
H                0.1839316194        0.2499999992        0.0480254760
H                0.6839387430        0.2500000014        0.4519749489
H                0.3160612870        0.7499999986        0.5480250511
H                0.6839387430        0.7499999986        0.5480250511
H                0.3160612870        0.2500000014        0.4519749489
H                0.8160683506        0.2499999992        0.0480254760
H                0.1839316194        0.7500000008        0.9519745240
H                0.5000000000        0.9339386954        0.2019800012
H                0.5000000000        0.0660613346        0.7980199988
H                0.0000000000        0.0660673380        0.7019693419
H                0.0000000000        0.9339326920        0.2980306581



     Writing config-only to output data dir ./iceVIII/iceVIII.save/ :
     XML data file
     NEW-OLD atomic charge density approx. for the potential

     total cpu time spent up to now is      139.5 secs

     per-process dynamical memory:    21.5 Mb

     Self-consistent Calculation

     iteration #  1     ecut=    90.00 Ry     beta= 0.70
     Davidson diagonalization with overlap
     ethr =  1.00E-06,  avg # of iterations =  5.0

     total cpu time spent up to now is      142.7 secs

     total energy              =    -275.82637460 Ry
     estimated scf accuracy    <       0.00024479 Ry

     iteration #  2     ecut=    90.00 Ry     beta= 0.70
     Davidson diagonalization with overlap
     ethr =  3.82E-07,  avg # of iterations =  2.0

     total cpu time spent up to now is      144.5 secs

     total energy              =    -275.82641648 Ry
     estimated scf accuracy    <       0.00001274 Ry

     iteration #  3     ecut=    90.00 Ry     beta= 0.70
     Davidson diagonalization with overlap
     ethr =  1.99E-08,  avg # of iterations =  2.1

     total cpu time spent up to now is      146.5 secs

     total energy              =    -275.82641927 Ry
     estimated scf accuracy    <       0.00000186 Ry

     iteration #  4     ecut=    90.00 Ry     beta= 0.70
     Davidson diagonalization with overlap
     ethr =  2.91E-09,  avg # of iterations =  2.1

     total cpu time spent up to now is      148.4 secs

     total energy              =    -275.82641966 Ry
     estimated scf accuracy    <       0.00000015 Ry

     iteration #  5     ecut=    90.00 Ry     beta= 0.70
     Davidson diagonalization with overlap
     ethr =  2.37E-10,  avg # of iterations =  2.0

     total cpu time spent up to now is      150.1 secs

     total energy              =    -275.82641967 Ry
     estimated scf accuracy    <       0.00000002 Ry

     iteration #  6     ecut=    90.00 Ry     beta= 0.70
     Davidson diagonalization with overlap
     ethr =  2.47E-11,  avg # of iterations =  2.4

     total cpu time spent up to now is      152.2 secs

     End of self-consistent calculation

     Number of k-points >= 100: set verbosity='high' to print the bands.

     highest occupied level (ev):     1.5638

!    total energy              =    -275.82641968 Ry
     estimated scf accuracy    <          8.3E-10 Ry

     The total energy is the sum of the following terms:
     one-electron contribution =     -94.88685379 Ry
     hartree contribution      =      78.65040012 Ry
     xc contribution           =     -68.21556382 Ry
     ewald contribution        =    -191.37440219 Ry

     convergence has been achieved in   6 iterations

     Forces acting on atoms (cartesian axes, Ry/au):

     atom    1 type  2   force =    -0.00000000   -0.00000001    0.00079648
     atom    2 type  2   force =    -0.00000000    0.00000001   -0.00079648
     atom    3 type  2   force =     0.00000000   -0.00000001    0.00076966
     atom    4 type  2   force =     0.00000000    0.00000001   -0.00076966
     atom    5 type  2   force =     0.00000000    0.00000000    0.00078992
     atom    6 type  2   force =     0.00000000   -0.00000000   -0.00078992
     atom    7 type  2   force =    -0.00000000    0.00000000    0.00078234
     atom    8 type  2   force =    -0.00000000   -0.00000000   -0.00078234
     atom    9 type  1   force =     0.00000000   -0.00289585    0.00301236
     atom   10 type  1   force =     0.00000000    0.00289585   -0.00301236
     atom   11 type  1   force =     0.00000000    0.00291586    0.00300634
     atom   12 type  1   force =     0.00000000   -0.00291586   -0.00300634
     atom   13 type  1   force =     0.00289967   -0.00000000    0.00300600
     atom   14 type  1   force =    -0.00289967    0.00000000   -0.00300600
     atom   15 type  1   force =    -0.00291247   -0.00000000    0.00301080
     atom   16 type  1   force =     0.00291247    0.00000000   -0.00301080
     atom   17 type  1   force =    -0.00291247    0.00000000   -0.00301080
     atom   18 type  1   force =     0.00291247   -0.00000000    0.00301080
     atom   19 type  1   force =     0.00289967    0.00000000   -0.00300600
     atom   20 type  1   force =    -0.00289967   -0.00000000    0.00300600
     atom   21 type  1   force =     0.00000000   -0.00291585    0.00300635
     atom   22 type  1   force =     0.00000000    0.00291585   -0.00300635
     atom   23 type  1   force =     0.00000000    0.00289586    0.00301236
     atom   24 type  1   force =     0.00000000   -0.00289586   -0.00301236

     Total force =     0.016879     Total SCF correction =     0.000011


     Computing stress (Cartesian axis) and pressure

          total   stress  (Ry/bohr**3)                   (kbar)     P=      107.89
   0.00072363   0.00000000   0.00000000          106.45        0.00        0.00
   0.00000000   0.00072375   0.00000000            0.00      106.47        0.00
   0.00000000   0.00000000   0.00075282            0.00        0.00      110.74

     Energy error            =      6.4E-04 Ry
     Gradient error          =      3.0E-03 Ry/Bohr

     number of scf cycles    =   9
     number of bfgs steps    =   8

     energy             old  =    -275.8257777908 Ry
     energy             new  =    -275.8264196756 Ry

     CASE: energy            _new < energy            _old

     new trust radius        =       0.0248062664 bohr
     new conv_thr            =       0.0000000064 Ry


ATOMIC_POSITIONS (crystal)
O               -0.0000000000        0.2499999984        0.6099033688
O               -0.0000000000        0.7500000016        0.3900966602
O                0.5000000000        0.7499999991        0.1099179679
O                0.5000000000        0.2500000009        0.8900820031
O               -0.0000000000        0.7499999996        0.8599067849
O               -0.0000000000        0.2500000004        0.1400932441
O                0.5000000000        0.2499999990        0.3599140090
O                0.5000000000        0.7500000010        0.6400859620
H                0.0000000000        0.4344663868        0.7037898695
H                0.0000000000        0.5655335832        0.2962101305
H                0.5000000000        0.5655283735        0.2038060792
H                0.5000000000        0.4344715965        0.7961939208
H                0.8155374350        0.7500000008        0.9537958685
H                0.1844625350        0.2499999992        0.0462041315
H                0.6844742266        0.2500000013        0.4537999027
H                0.3155258034        0.7499999987        0.5462000973
H                0.6844742266        0.7499999987        0.5462000973
H                0.3155258034        0.2500000013        0.4537999027
H                0.8155374350        0.2499999992        0.0462041315
H                0.1844625350        0.7500000008        0.9537958685
H                0.5000000000        0.9344716285        0.2038060793
H                0.5000000000        0.0655284015        0.7961939207
H                0.0000000000        0.0655336152        0.7037898689
H                0.0000000000        0.9344664148        0.2962101311



     Writing config-only to output data dir ./iceVIII/iceVIII.save/ :
     XML data file
     NEW-OLD atomic charge density approx. for the potential

     total cpu time spent up to now is      153.8 secs

     per-process dynamical memory:    21.5 Mb

     Self-consistent Calculation

     iteration #  1     ecut=    90.00 Ry     beta= 0.70
     Davidson diagonalization with overlap
     ethr =  1.00E-06,  avg # of iterations =  5.4

     total cpu time spent up to now is      157.5 secs

     total energy              =    -275.82702496 Ry
     estimated scf accuracy    <       0.00059340 Ry

     iteration #  2     ecut=    90.00 Ry     beta= 0.70
     Davidson diagonalization with overlap
     ethr =  9.27E-07,  avg # of iterations =  2.0

     total cpu time spent up to now is      159.2 secs

     total energy              =    -275.82711982 Ry
     estimated scf accuracy    <       0.00002409 Ry

     iteration #  3     ecut=    90.00 Ry     beta= 0.70
     Davidson diagonalization with overlap
     ethr =  3.76E-08,  avg # of iterations =  2.7

     total cpu time spent up to now is      161.0 secs

     total energy              =    -275.82712432 Ry
     estimated scf accuracy    <       0.00000188 Ry

     iteration #  4     ecut=    90.00 Ry     beta= 0.70
     Davidson diagonalization with overlap
     ethr =  2.93E-09,  avg # of iterations =  3.6

     total cpu time spent up to now is      163.2 secs

     total energy              =    -275.82712475 Ry
     estimated scf accuracy    <       0.00000003 Ry

     iteration #  5     ecut=    90.00 Ry     beta= 0.70
     Davidson diagonalization with overlap
     ethr =  5.22E-11,  avg # of iterations =  4.9

     total cpu time spent up to now is      165.9 secs

     total energy              =    -275.82712478 Ry
     estimated scf accuracy    <          8.6E-09 Ry

     iteration #  6     ecut=    90.00 Ry     beta= 0.70
     Davidson diagonalization with overlap
     ethr =  1.34E-11,  avg # of iterations =  2.2

     total cpu time spent up to now is      167.7 secs

     End of self-consistent calculation

     Number of k-points >= 100: set verbosity='high' to print the bands.

     highest occupied level (ev):     1.5797

!    total energy              =    -275.82712478 Ry
     estimated scf accuracy    <          7.3E-10 Ry

     The total energy is the sum of the following terms:
     one-electron contribution =     -94.54764739 Ry
     hartree contribution      =      78.48821777 Ry
     xc contribution           =     -68.20351853 Ry
     ewald contribution        =    -191.56417664 Ry

     convergence has been achieved in   6 iterations

     Forces acting on atoms (cartesian axes, Ry/au):

     atom    1 type  2   force =    -0.00000000    0.00000003   -0.00144898
     atom    2 type  2   force =    -0.00000000   -0.00000003    0.00144898
     atom    3 type  2   force =     0.00000000    0.00000002   -0.00146751
     atom    4 type  2   force =     0.00000000   -0.00000002    0.00146751
     atom    5 type  2   force =    -0.00000000   -0.00000000   -0.00145100
     atom    6 type  2   force =    -0.00000000    0.00000000    0.00145100
     atom    7 type  2   force =    -0.00000000    0.00000000   -0.00146632
     atom    8 type  2   force =    -0.00000000   -0.00000000    0.00146632
     atom    9 type  1   force =     0.00000000   -0.00430002    0.00290150
     atom   10 type  1   force =     0.00000000    0.00430002   -0.00290150
     atom   11 type  1   force =     0.00000000    0.00432771    0.00287934
     atom   12 type  1   force =     0.00000000   -0.00432771   -0.00287934
     atom   13 type  1   force =     0.00429013   -0.00000000    0.00289900
     atom   14 type  1   force =    -0.00429013    0.00000000   -0.00289900
     atom   15 type  1   force =    -0.00433355   -0.00000000    0.00288429
     atom   16 type  1   force =     0.00433355    0.00000000   -0.00288429
     atom   17 type  1   force =    -0.00433355    0.00000000   -0.00288429
     atom   18 type  1   force =     0.00433355   -0.00000000    0.00288429
     atom   19 type  1   force =     0.00429013    0.00000000   -0.00289900
     atom   20 type  1   force =    -0.00429013   -0.00000000    0.00289900
     atom   21 type  1   force =     0.00000000   -0.00432772    0.00287933
     atom   22 type  1   force =     0.00000000    0.00432772   -0.00287933
     atom   23 type  1   force =     0.00000000    0.00430000    0.00290152
     atom   24 type  1   force =     0.00000000   -0.00430000   -0.00290152

     Total force =     0.021175     Total SCF correction =     0.000075


     Computing stress (Cartesian axis) and pressure

          total   stress  (Ry/bohr**3)                   (kbar)     P=      104.11
   0.00069371   0.00000000   0.00000000          102.05        0.00        0.00
   0.00000000   0.00069382  -0.00000000            0.00      102.06       -0.00
   0.00000000  -0.00000000   0.00073555            0.00       -0.00      108.20

     Energy error            =      7.1E-04 Ry
     Gradient error          =      4.3E-03 Ry/Bohr

     number of scf cycles    =  10
     number of bfgs steps    =   9

     energy             old  =    -275.8264196756 Ry
     energy             new  =    -275.8271247847 Ry

     CASE: energy            _new < energy            _old

     new trust radius        =       0.0223863460 bohr
     new conv_thr            =       0.0000000071 Ry


ATOMIC_POSITIONS (crystal)
O               -0.0000000000        0.2500000022        0.6116483829
O               -0.0000000000        0.7499999978        0.3883516461
O                0.5000000000        0.7500000016        0.1116649813
O                0.5000000000        0.2499999984        0.8883349897
O               -0.0000000000        0.7499999989        0.8616541366
O               -0.0000000000        0.2500000011        0.1383458924
O                0.5000000000        0.2499999980        0.3616585426
O                0.5000000000        0.7500000020        0.6383414284
H                0.0000000000        0.4344528378        0.7056593860
H                0.0000000000        0.5655471322        0.2943406140
H                0.5000000000        0.5655453981        0.2056784147
H                0.5000000000        0.4344545719        0.7943215853
H                0.8155516908        0.7500000006        0.9556660504
H                0.1844482792        0.2499999994        0.0443339496
H                0.6844585116        0.2500000010        0.4556717988
H                0.3155415184        0.7499999990        0.5443282012
H                0.6844585116        0.7499999990        0.5443282012
H                0.3155415184        0.2500000010        0.4556717988
H                0.8155516908        0.2499999994        0.0443339496
H                0.1844482792        0.7500000006        0.9556660504
H                0.5000000000        0.9344546017        0.2056784139
H                0.5000000000        0.0655454283        0.7943215861
H                0.0000000000        0.0655471608        0.7056593870
H                0.0000000000        0.9344528692        0.2943406130



     Writing config-only to output data dir ./iceVIII/iceVIII.save/ :
[...]
     atom    9 type  1   force =     0.00000000   -0.00077460    0.00011997
     atom   10 type  1   force =     0.00000000    0.00077460   -0.00011997
     atom   11 type  1   force =     0.00000000    0.00075826    0.00012454
     atom   12 type  1   force =     0.00000000   -0.00075826   -0.00012454
     atom   13 type  1   force =     0.00077101    0.00000000    0.00013056
     atom   14 type  1   force =    -0.00077101   -0.00000000   -0.00013056
     atom   15 type  1   force =    -0.00076475    0.00000000    0.00011404
     atom   16 type  1   force =     0.00076475   -0.00000000   -0.00011404
     atom   17 type  1   force =    -0.00076475   -0.00000000   -0.00011404
     atom   18 type  1   force =     0.00076475    0.00000000    0.00011404
     atom   19 type  1   force =     0.00077101   -0.00000000   -0.00013056
     atom   20 type  1   force =    -0.00077101    0.00000000    0.00013056
     atom   21 type  1   force =     0.00000000   -0.00075822    0.00012458
     atom   22 type  1   force =     0.00000000    0.00075822   -0.00012458
     atom   23 type  1   force =     0.00000000    0.00077468    0.00011992
     atom   24 type  1   force =     0.00000000   -0.00077468   -0.00011992

     Total force =     0.003868     Total SCF correction =     0.000167


     Computing stress (Cartesian axis) and pressure

          total   stress  (Ry/bohr**3)                   (kbar)     P=      105.59
   0.00072258   0.00000000   0.00000000          106.30        0.00        0.00
   0.00000000   0.00072274   0.00000000            0.00      106.32        0.00
   0.00000000   0.00000000   0.00070812            0.00        0.00      104.17

     Energy error            =      2.4E-04 Ry
     Gradient error          =      8.2E-04 Ry/Bohr

     number of scf cycles    =  13
     number of bfgs steps    =  12

     energy             old  =    -275.8283375627 Ry
     energy             new  =    -275.8285821493 Ry

     CASE: energy            _new < energy            _old

     new trust radius        =       0.0043887921 bohr
     new conv_thr            =       0.0000000024 Ry


ATOMIC_POSITIONS (crystal)
O               -0.0000000000        0.2499999937        0.6129933299
O               -0.0000000000        0.7500000063        0.3870066991
O                0.5000000000        0.7499999959        0.1130138316
O                0.5000000000        0.2500000041        0.8869861394
O               -0.0000000000        0.7499999998        0.8630074969
O               -0.0000000000        0.2500000002        0.1369925321
O                0.5000000000        0.2499999992        0.3629999113
O                0.5000000000        0.7500000008        0.6370000597
H                0.0000000000        0.4327801586        0.7082761385
H                0.0000000000        0.5672198114        0.2917238615
H                0.5000000000        0.5672183132        0.2082959098
H                0.5000000000        0.4327816568        0.7917040902
H                0.8172179650        0.7500000001        0.9582868442
H                0.1827820050        0.2499999999        0.0417131558
H                0.6827788090        0.2500000001        0.4582857681
H                0.3172212210        0.7499999999        0.5417142319
H                0.6827788090        0.7499999999        0.5417142319
H                0.3172212210        0.2500000001        0.4582857681
H                0.8172179650        0.2499999999        0.0417131558
H                0.1827820050        0.7500000001        0.9582868442
H                0.5000000000        0.9327816909        0.2082959117
H                0.5000000000        0.0672183391        0.7917040883
H                0.0000000000        0.0672198467        0.7082761357
H                0.0000000000        0.9327801833        0.2917238643



     Writing config-only to output data dir ./iceVIII/iceVIII.save/ :
     XML data file
     NEW-OLD atomic charge density approx. for the potential

     total cpu time spent up to now is      211.8 secs

     per-process dynamical memory:    21.7 Mb

     Self-consistent Calculation

     iteration #  1     ecut=    90.00 Ry     beta= 0.70
     Davidson diagonalization with overlap
     ethr =  1.00E-06,  avg # of iterations =  3.0

     Threshold (ethr) on eigenvalues was too large:
     Diagonalizing with lowered threshold

     Davidson diagonalization with overlap
     ethr =  2.17E-08,  avg # of iterations =  3.1

     total cpu time spent up to now is      216.2 secs

     total energy              =    -275.82860795 Ry
     estimated scf accuracy    <       0.00001784 Ry

     iteration #  2     ecut=    90.00 Ry     beta= 0.70
     Davidson diagonalization with overlap
     ethr =  2.79E-08,  avg # of iterations =  2.0

     total cpu time spent up to now is      218.0 secs

     total energy              =    -275.82861089 Ry
     estimated scf accuracy    <       0.00000068 Ry

     iteration #  3     ecut=    90.00 Ry     beta= 0.70
     Davidson diagonalization with overlap
     ethr =  1.06E-09,  avg # of iterations =  2.2

     total cpu time spent up to now is      219.9 secs

     total energy              =    -275.82861102 Ry
     estimated scf accuracy    <       0.00000007 Ry

     iteration #  4     ecut=    90.00 Ry     beta= 0.70
     Davidson diagonalization with overlap
     ethr =  1.02E-10,  avg # of iterations =  2.7

     total cpu time spent up to now is      221.8 secs

     total energy              =    -275.82861103 Ry
     estimated scf accuracy    <          7.0E-09 Ry

     iteration #  5     ecut=    90.00 Ry     beta= 0.70
     Davidson diagonalization with overlap
     ethr =  1.09E-11,  avg # of iterations =  2.3

     total cpu time spent up to now is      223.8 secs

     End of self-consistent calculation

     Number of k-points >= 100: set verbosity='high' to print the bands.

     highest occupied level (ev):     1.5958

!    total energy              =    -275.82861103 Ry
     estimated scf accuracy    <          2.1E-10 Ry

     The total energy is the sum of the following terms:
     one-electron contribution =     -94.28867442 Ry
     hartree contribution      =      78.34635403 Ry
     xc contribution           =     -68.20934559 Ry
     ewald contribution        =    -191.67694504 Ry

     convergence has been achieved in   5 iterations

     Forces acting on atoms (cartesian axes, Ry/au):

     atom    1 type  2   force =    -0.00000000    0.00000009   -0.00010524
     atom    2 type  2   force =    -0.00000000   -0.00000009    0.00010524
     atom    3 type  2   force =     0.00000000    0.00000006   -0.00010188
     atom    4 type  2   force =     0.00000000   -0.00000006    0.00010188
     atom    5 type  2   force =     0.00000000   -0.00000000   -0.00009898
     atom    6 type  2   force =     0.00000000    0.00000000    0.00009898
     atom    7 type  2   force =     0.00000000   -0.00000000   -0.00010905
     atom    8 type  2   force =     0.00000000    0.00000000    0.00010905
     atom    9 type  1   force =     0.00000000   -0.00006534   -0.00002583
     atom   10 type  1   force =     0.00000000    0.00006534    0.00002583
     atom   11 type  1   force =     0.00000000    0.00006657   -0.00003494
     atom   12 type  1   force =     0.00000000   -0.00006657    0.00003494
     atom   13 type  1   force =     0.00006612   -0.00000000   -0.00001873
     atom   14 type  1   force =    -0.00006612    0.00000000    0.00001873
     atom   15 type  1   force =    -0.00006558   -0.00000000   -0.00003972
     atom   16 type  1   force =     0.00006558    0.00000000    0.00003972
     atom   17 type  1   force =    -0.00006558    0.00000000    0.00003972
     atom   18 type  1   force =     0.00006558   -0.00000000   -0.00003972
     atom   19 type  1   force =     0.00006612    0.00000000    0.00001873
     atom   20 type  1   force =    -0.00006612   -0.00000000   -0.00001873
     atom   21 type  1   force =     0.00000000   -0.00006662   -0.00003498
     atom   22 type  1   force =     0.00000000    0.00006662    0.00003498
     atom   23 type  1   force =     0.00000000    0.00006527   -0.00002577
     atom   24 type  1   force =     0.00000000   -0.00006527    0.00002577

     Total force =     0.000414     Total SCF correction =     0.000039


     Computing stress (Cartesian axis) and pressure

          total   stress  (Ry/bohr**3)                   (kbar)     P=      106.84
   0.00073392   0.00000000   0.00000000          107.96        0.00        0.00
   0.00000000   0.00073405  -0.00000000            0.00      107.98       -0.00
   0.00000000  -0.00000000   0.00071088            0.00       -0.00      104.57

     Energy error            =      2.9E-05 Ry
     Gradient error          =      1.1E-04 Ry/Bohr

     number of scf cycles    =  14
     number of bfgs steps    =  13

     energy             old  =    -275.8285821493 Ry
     energy             new  =    -275.8286110324 Ry

     CASE: energy            _new < energy            _old

     new trust radius        =       0.0014294388 bohr
     new conv_thr            =       0.0000000010 Ry


ATOMIC_POSITIONS (crystal)
O               -0.0000000000        0.2500000066        0.6128742824
O               -0.0000000000        0.7499999934        0.3871257466
O                0.5000000000        0.7500000046        0.1128948777
O                0.5000000000        0.2499999954        0.8871050933
O               -0.0000000000        0.7499999992        0.8628889557
O               -0.0000000000        0.2500000008        0.1371110733
O                0.5000000000        0.2499999991        0.3628803544
O                0.5000000000        0.7500000009        0.6371196166
H                0.0000000000        0.4327557361        0.7081652882
H                0.0000000000        0.5672442339        0.2918347118
H                0.5000000000        0.5672428182        0.2081839378
H                0.5000000000        0.4327571518        0.7918160622
H                0.8172424766        0.7499999999        0.9581766082
H                0.1827574934        0.2500000001        0.0418233918
H                0.6827544174        0.2499999998        0.4581734090
H                0.3172456126        0.7500000002        0.5418265910
H                0.6827544174        0.7500000002        0.5418265910
H                0.3172456126        0.2499999998        0.4581734090
H                0.8172424766        0.2500000001        0.0418233918
H                0.1827574934        0.7499999999        0.9581766082
H                0.5000000000        0.9327571785        0.2081839360
H                0.5000000000        0.0672428515        0.7918160640
H                0.0000000000        0.0672442582        0.7081652907
H                0.0000000000        0.9327557718        0.2918347093



     Writing config-only to output data dir ./iceVIII/iceVIII.save/ :
     XML data file
     NEW-OLD atomic charge density approx. for the potential

     total cpu time spent up to now is      225.3 secs

     per-process dynamical memory:    21.7 Mb

     Self-consistent Calculation

     iteration #  1     ecut=    90.00 Ry     beta= 0.70
     Davidson diagonalization with overlap
     ethr =  1.00E-06,  avg # of iterations =  2.0

     Threshold (ethr) on eigenvalues was too large:
     Diagonalizing with lowered threshold

     Davidson diagonalization with overlap
     ethr =  1.81E-09,  avg # of iterations =  4.1

     total cpu time spent up to now is      229.9 secs

     total energy              =    -275.82861189 Ry
     estimated scf accuracy    <       0.00000205 Ry

     iteration #  2     ecut=    90.00 Ry     beta= 0.70
     Davidson diagonalization with overlap
     ethr =  3.20E-09,  avg # of iterations =  2.0

     total cpu time spent up to now is      231.7 secs

     total energy              =    -275.82861223 Ry
     estimated scf accuracy    <       0.00000010 Ry

     iteration #  3     ecut=    90.00 Ry     beta= 0.70
     Davidson diagonalization with overlap
     ethr =  1.57E-10,  avg # of iterations =  2.0

     total cpu time spent up to now is      233.5 secs

     total energy              =    -275.82861224 Ry
     estimated scf accuracy    <          9.8E-09 Ry

     iteration #  4     ecut=    90.00 Ry     beta= 0.70
     Davidson diagonalization with overlap
     ethr =  1.53E-11,  avg # of iterations =  2.2

     total cpu time spent up to now is      235.3 secs

     End of self-consistent calculation

     Number of k-points >= 100: set verbosity='high' to print the bands.

     highest occupied level (ev):     1.5948

!    total energy              =    -275.82861224 Ry
     estimated scf accuracy    <          7.4E-10 Ry

     The total energy is the sum of the following terms:
     one-electron contribution =     -94.30272050 Ry
     hartree contribution      =      78.35287595 Ry
     xc contribution           =     -68.20996248 Ry
     ewald contribution        =    -191.66880521 Ry

     convergence has been achieved in   4 iterations

     Forces acting on atoms (cartesian axes, Ry/au):

     atom    1 type  2   force =     0.00000000   -0.00000010   -0.00000772
     atom    2 type  2   force =     0.00000000    0.00000010    0.00000772
     atom    3 type  2   force =     0.00000000   -0.00000007   -0.00001742
     atom    4 type  2   force =     0.00000000    0.00000007    0.00001742
     atom    5 type  2   force =    -0.00000000    0.00000001   -0.00000291
     atom    6 type  2   force =    -0.00000000   -0.00000001    0.00000291
     atom    7 type  2   force =    -0.00000000    0.00000000   -0.00002043
     atom    8 type  2   force =    -0.00000000   -0.00000000    0.00002043
     atom    9 type  1   force =     0.00000000    0.00000349   -0.00000463
     atom   10 type  1   force =     0.00000000   -0.00000349    0.00000463
     atom   11 type  1   force =     0.00000000   -0.00000694   -0.00000802
     atom   12 type  1   force =     0.00000000    0.00000694    0.00000802
     atom   13 type  1   force =    -0.00000322    0.00000000    0.00000224
     atom   14 type  1   force =     0.00000322   -0.00000000   -0.00000224
     atom   15 type  1   force =     0.00000616    0.00000000   -0.00001404
     atom   16 type  1   force =    -0.00000616   -0.00000000    0.00001404
     atom   17 type  1   force =     0.00000616   -0.00000000    0.00001404
     atom   18 type  1   force =    -0.00000616    0.00000000   -0.00001404
     atom   19 type  1   force =    -0.00000322   -0.00000000   -0.00000224
     atom   20 type  1   force =     0.00000322    0.00000000    0.00000224
     atom   21 type  1   force =     0.00000000    0.00000700   -0.00000798
     atom   22 type  1   force =     0.00000000   -0.00000700    0.00000798
     atom   23 type  1   force =     0.00000000   -0.00000341   -0.00000469
     atom   24 type  1   force =     0.00000000    0.00000341    0.00000469

     Total force =     0.000056     Total SCF correction =     0.000007
     SCF correction compared to forces is large: reduce conv_thr to get better values


     Computing stress (Cartesian axis) and pressure

          total   stress  (Ry/bohr**3)                   (kbar)     P=      107.01
   0.00073525   0.00000000   0.00000000          108.16        0.00        0.00
   0.00000000   0.00073539   0.00000000            0.00      108.18        0.00
   0.00000000   0.00000000   0.00071166            0.00        0.00      104.69

     Energy error            =      1.2E-06 Ry
     Gradient error          =      2.0E-05 Ry/Bohr

     bfgs converged in  15 scf cycles and  14 bfgs steps
     (criteria: energy <  1.0E-04 Ry, force <  1.0E-04 Ry/Bohr)

     End of BFGS Geometry Optimization

     Final energy             =    -275.8286122438 Ry

     File ./iceVIII/iceVIII.bfgs deleted, as requested
Begin final coordinates

ATOMIC_POSITIONS (crystal)
O               -0.0000000000        0.2500000066        0.6128742824
O               -0.0000000000        0.7499999934        0.3871257466
O                0.5000000000        0.7500000046        0.1128948777
O                0.5000000000        0.2499999954        0.8871050933
O               -0.0000000000        0.7499999992        0.8628889557
O               -0.0000000000        0.2500000008        0.1371110733
O                0.5000000000        0.2499999991        0.3628803544
O                0.5000000000        0.7500000009        0.6371196166
H                0.0000000000        0.4327557361        0.7081652882
H                0.0000000000        0.5672442339        0.2918347118
H                0.5000000000        0.5672428182        0.2081839378
H                0.5000000000        0.4327571518        0.7918160622
H                0.8172424766        0.7499999999        0.9581766082
H                0.1827574934        0.2500000001        0.0418233918
H                0.6827544174        0.2499999998        0.4581734090
H                0.3172456126        0.7500000002        0.5418265910
H                0.6827544174        0.7500000002        0.5418265910
H                0.3172456126        0.2499999998        0.4581734090
H                0.8172424766        0.2500000001        0.0418233918
H                0.1827574934        0.7499999999        0.9581766082
H                0.5000000000        0.9327571785        0.2081839360
H                0.5000000000        0.0672428515        0.7918160640
H                0.0000000000        0.0672442582        0.7081652907
H                0.0000000000        0.9327557718        0.2918347093
End final coordinates



     Writing all to output data dir ./iceVIII/iceVIII.save/ :
     XML data file, charge density, pseudopotentials, collected wavefunctions

     init_run     :      1.04s CPU      1.13s WALL (       1 calls)
     electrons    :    208.12s CPU    212.45s WALL (      15 calls)
     update_pot   :      0.11s CPU      0.13s WALL (      14 calls)
     forces       :      1.71s CPU      1.74s WALL (      15 calls)
     stress       :     20.24s CPU     20.28s WALL (      15 calls)

     Called by init_run:
     wfcinit      :      0.81s CPU      0.84s WALL (       1 calls)
     potinit      :      0.01s CPU      0.03s WALL (       1 calls)
     hinit0       :      0.18s CPU      0.20s WALL (       1 calls)

     Called by electrons:
     c_bands      :    185.98s CPU    189.84s WALL (      95 calls)
     sum_band     :     21.17s CPU     21.40s WALL (      95 calls)
     v_of_rho     :      0.68s CPU      0.70s WALL (     105 calls)
     newd         :      0.13s CPU      0.13s WALL (     105 calls)
     mix_rho      :      0.08s CPU      0.08s WALL (      95 calls)

     Called by c_bands:
     init_us_2    :      2.12s CPU      2.20s WALL (    7956 calls)
     cegterg      :    179.33s CPU    181.67s WALL (    3420 calls)

     Called by *egterg:
     cdiaghg      :     22.82s CPU     23.00s WALL (   13220 calls)
     h_psi        :    133.30s CPU    135.31s WALL (   13940 calls)
     s_psi        :      4.73s CPU      4.79s WALL (   13940 calls)
     g_psi        :      0.40s CPU      0.40s WALL (   10484 calls)

     Called by h_psi:
     h_psi:calbec :      6.14s CPU      6.21s WALL (   13940 calls)
     vloc_psi     :    121.78s CPU    123.64s WALL (   13940 calls)
     add_vuspsi   :      4.90s CPU      4.97s WALL (   13940 calls)

     General routines
     calbec       :      8.98s CPU      9.10s WALL (   20060 calls)
     fft          :      0.54s CPU      0.55s WALL (    1294 calls)
     ffts         :      0.03s CPU      0.03s WALL (      95 calls)
     fftw         :    129.69s CPU    131.61s WALL (  829984 calls)

     Parallel routines

     PWSCF        :   3m52.74s CPU   3m58.71s WALL


   This run was terminated on:  17: 6: 0  31Mar2026            

=------------------------------------------------------------------------------=
   JOB DONE.
=------------------------------------------------------------------------------=
