
     Program PWSCF v.7.3.1 starts on 21Mar2026 at 18:12:27 

     This program is part of the open-source Quantum ESPRESSO suite
     for quantum simulation of materials; please cite
         "P. Giannozzi et al., J. Phys.:Condens. Matter 21 395502 (2009);
         "P. Giannozzi et al., J. Phys.:Condens. Matter 29 465901 (2017);
         "P. Giannozzi et al., J. Chem. Phys. 152 154105 (2020);
          URL http://www.quantum-espresso.org", 
     in publications or presentations arising from this work. More details at
     http://www.quantum-espresso.org/quote

     Parallel version (MPI), running on   128 processors

     MPI processes distributed on     1 nodes
     242453 MiB available memory on the printing compute node when the environment starts

     Waiting for input...
     Reading input from standard input

     Current dimensions of program PWSCF are:
     Max number of different atomic species (ntypx) = 10
     Max number of k-points (npk) =  40000
     Max angular momentum in pseudopotentials (lmaxx) =  4
     Found identity + ( -0.5000 -0.5000  0.5000) symmetry
     This is a supercell, fractional translations are disabled

     K-points division:     npool     =       4
     R & G space division:  proc/nbgrp/npool/nimage =      32
     Subspace diagonalization in iterative solution of the eigenvalue problem:
     a serial algorithm will be used


     Parallelization info
     --------------------
     sticks:   dense  smooth     PW     G-vecs:    dense   smooth      PW
     Min          62      62     17                 2981     2981     437
     Max          63      63     18                 2984     2984     444
     Sum        1993    1993    553                95417    95417   14047

     Using Slab Decomposition



     bravais-lattice index     =            6
     lattice parameter (alat)  =       8.3080  a.u.
     unit-cell volume          =     827.0092 (a.u.)^3
     number of atoms/cell      =           24
     number of atomic types    =            2
     number of electrons       =        64.00
     number of Kohn-Sham states=           32
     kinetic-energy cutoff     =      90.0000  Ry
     charge density cutoff     =     360.0000  Ry
     scf convergence threshold =      1.0E-07
     mixing beta               =       0.7000
     number of iterations used =            8  plain     mixing
     Exchange-correlation=  SLA  PW   PBE  PBE
                           (   1   4   3   4   0   0   0)

     celldm(1)=   8.307976  celldm(2)=   0.000000  celldm(3)=   1.442197
     celldm(4)=   0.000000  celldm(5)=   0.000000  celldm(6)=   0.000000

     crystal axes: (cart. coord. in units of alat)
               a(1) = (   1.000000   0.000000   0.000000 )  
               a(2) = (   0.000000   1.000000   0.000000 )  
               a(3) = (   0.000000   0.000000   1.442197 )  

     reciprocal axes: (cart. coord. in units 2 pi/alat)
               b(1) = (  1.000000  0.000000  0.000000 )  
               b(2) = (  0.000000  1.000000  0.000000 )  
               b(3) = (  0.000000  0.000000  0.693386 )  


     PseudoPot. # 1 for H  read from file:
     ./H.pbe-van_ak.UPF
     MD5 check sum: 077eb6d537518a38cb46c6de387227b7
     Pseudo is Ultrasoft, Zval =  1.0
     Generated by new atomic code, or converted to UPF format
     Using radial grid of  615 points,  1 beta functions with: 
                l(1) =   0
     Q(r) pseudized with  8 coefficients,  rinner =    0.800

     PseudoPot. # 2 for O  read from file:
     ./O.pbe-van_ak.UPF
     MD5 check sum: 78c19812648e8988a0fe644b0f25305e
     Pseudo is Ultrasoft, Zval =  6.0
     Generated by new atomic code, or converted to UPF format
     Using radial grid of  737 points,  4 beta functions with: 
                l(1) =   0
                l(2) =   0
                l(3) =   1
                l(4) =   1
     Q(r) pseudized with  8 coefficients,  rinner =    0.800   0.800   0.800


     atomic species   valence    mass     pseudopotential
     H                 1.00     1.00800     H ( 1.00)
     O                 6.00    16.00000     O ( 1.00)

      4 Sym. Ops., with inversion, found



   Cartesian axes

     site n.     atom                  positions (alat units)
         1        O      tau(   1) = (   0.0000000   0.2500000   0.8781106  )
         2        O      tau(   2) = (   0.0000000   0.7500000   0.5640866  )
         3        O      tau(   3) = (   0.5000000   0.7500000   0.1570120  )
         4        O      tau(   4) = (   0.5000000   0.2500000   1.2851851  )
         5        O      tau(   5) = (   0.0000000   0.7500000   1.2386599  )
         6        O      tau(   6) = (   0.0000000   0.2500000   0.2035373  )
         7        O      tau(   7) = (   0.5000000   0.2500000   0.5175613  )
         8        O      tau(   8) = (   0.5000000   0.7500000   0.9246358  )
         9        H      tau(   9) = (   0.0000000   0.4142500   1.0027885  )
        10        H      tau(  10) = (   0.0000000   0.5857500   0.4394086  )
        11        H      tau(  11) = (   0.5000000   0.5857500   0.2816900  )
        12        H      tau(  12) = (   0.5000000   0.4142500   1.1605072  )
        13        H      tau(  13) = (   0.8357500   0.7500000   1.3633378  )
        14        H      tau(  14) = (   0.1642500   0.2500000   0.0788593  )
        15        H      tau(  15) = (   0.6642500   0.2500000   0.6422392  )
        16        H      tau(  16) = (   0.3357500   0.7500000   0.7999579  )
        17        H      tau(  17) = (   0.6642500   0.7500000   0.7999579  )
        18        H      tau(  18) = (   0.3357500   0.2500000   0.6422392  )
        19        H      tau(  19) = (   0.8357500   0.2500000   0.0788593  )
        20        H      tau(  20) = (   0.1642500   0.7500000   1.3633378  )
        21        H      tau(  21) = (   0.5000000   0.9142500   0.2816900  )
        22        H      tau(  22) = (   0.5000000   0.0857500   1.1605072  )
        23        H      tau(  23) = (   0.0000000   0.0857500   1.0027885  )
        24        H      tau(  24) = (   0.0000000   0.9142500   0.4394086  )

     number of k points=   144

     Number of k-points >= 100: set verbosity='high' to print them.

     Dense  grid:    95417 G-vectors     FFT dimensions: (  54,  54,  75)

     Estimated max dynamical RAM per process >      11.29 MB

     Estimated total dynamical RAM >       1.34 GB

     Initial potential from superposition of free atoms

     starting charge      63.9998, renormalised to      64.0000
     Starting wfcs are   48 randomized atomic wfcs

     total cpu time spent up to now is        1.4 secs

     per-process dynamical memory:    18.1 Mb

     Self-consistent Calculation

     iteration #  1     ecut=    90.00 Ry     beta= 0.70
     Davidson diagonalization with overlap
     ethr =  1.00E-02,  avg # of iterations =  2.0

     total cpu time spent up to now is        3.3 secs

     total energy              =    -274.50575591 Ry
     estimated scf accuracy    <       2.88870877 Ry

     iteration #  2     ecut=    90.00 Ry     beta= 0.70
     Davidson diagonalization with overlap
     ethr =  4.51E-03,  avg # of iterations =  3.0

     total cpu time spent up to now is        5.6 secs

     total energy              =    -275.44175127 Ry
     estimated scf accuracy    <       1.06124669 Ry

     iteration #  3     ecut=    90.00 Ry     beta= 0.70
     Davidson diagonalization with overlap
     ethr =  1.66E-03,  avg # of iterations =  2.0

     total cpu time spent up to now is        7.3 secs

     total energy              =    -275.55552024 Ry
     estimated scf accuracy    <       0.04600012 Ry

     iteration #  4     ecut=    90.00 Ry     beta= 0.70
     Davidson diagonalization with overlap
     ethr =  7.19E-05,  avg # of iterations =  4.0

     total cpu time spent up to now is        9.9 secs

     total energy              =    -275.58578905 Ry
     estimated scf accuracy    <       0.05795658 Ry

     iteration #  5     ecut=    90.00 Ry     beta= 0.70
     Davidson diagonalization with overlap
     ethr =  7.19E-05,  avg # of iterations =  2.0

     total cpu time spent up to now is       11.6 secs

     total energy              =    -275.58692885 Ry
     estimated scf accuracy    <       0.00872182 Ry

     iteration #  6     ecut=    90.00 Ry     beta= 0.70
     Davidson diagonalization with overlap
     ethr =  1.36E-05,  avg # of iterations =  2.9

     total cpu time spent up to now is       13.7 secs

     total energy              =    -275.58945833 Ry
     estimated scf accuracy    <       0.00005405 Ry

     iteration #  7     ecut=    90.00 Ry     beta= 0.70
     Davidson diagonalization with overlap
     ethr =  8.44E-08,  avg # of iterations =  6.0

     total cpu time spent up to now is       17.0 secs

     total energy              =    -275.58961469 Ry
     estimated scf accuracy    <       0.00021788 Ry

     iteration #  8     ecut=    90.00 Ry     beta= 0.70
     Davidson diagonalization with overlap
     ethr =  8.44E-08,  avg # of iterations =  3.0

     total cpu time spent up to now is       19.2 secs

     total energy              =    -275.58962268 Ry
     estimated scf accuracy    <       0.00002346 Ry

     iteration #  9     ecut=    90.00 Ry     beta= 0.70
     Davidson diagonalization with overlap
     ethr =  3.67E-08,  avg # of iterations =  2.9

     total cpu time spent up to now is       21.4 secs

     total energy              =    -275.58963203 Ry
     estimated scf accuracy    <       0.00000115 Ry

     iteration # 10     ecut=    90.00 Ry     beta= 0.70
     Davidson diagonalization with overlap
     ethr =  1.79E-09,  avg # of iterations =  2.6

     total cpu time spent up to now is       23.2 secs

     total energy              =    -275.58963197 Ry
     estimated scf accuracy    <       0.00000110 Ry

     iteration # 11     ecut=    90.00 Ry     beta= 0.70
     Davidson diagonalization with overlap
     ethr =  1.72E-09,  avg # of iterations =  1.0

     total cpu time spent up to now is       24.6 secs

     total energy              =    -275.58963176 Ry
     estimated scf accuracy    <       0.00000053 Ry

     iteration # 12     ecut=    90.00 Ry     beta= 0.70
     Davidson diagonalization with overlap
     ethr =  8.34E-10,  avg # of iterations =  2.0

     total cpu time spent up to now is       26.4 secs

     End of self-consistent calculation

     Number of k-points >= 100: set verbosity='high' to print the bands.

     highest occupied level (ev):     1.2533

!    total energy              =    -275.58963182 Ry
     estimated scf accuracy    <       0.00000003 Ry

     The total energy is the sum of the following terms:
     one-electron contribution =    -107.13654584 Ry
     hartree contribution      =      83.85832816 Ry
     xc contribution           =     -69.40683186 Ry
     ewald contribution        =    -182.90458228 Ry

     convergence has been achieved in  12 iterations

     Forces acting on atoms (cartesian axes, Ry/au):

     atom    1 type  2   force =     0.00000000   -0.00000000   -0.21286372
     atom    2 type  2   force =     0.00000000    0.00000000    0.21286372
     atom    3 type  2   force =     0.00000000    0.00000001   -0.21290190
     atom    4 type  2   force =     0.00000000   -0.00000001    0.21290190
     atom    5 type  2   force =     0.00000000   -0.00000003   -0.21286755
     atom    6 type  2   force =     0.00000000    0.00000003    0.21286755
     atom    7 type  2   force =     0.00000000   -0.00000003   -0.21290218
     atom    8 type  2   force =     0.00000000    0.00000003    0.21290218
     atom    9 type  1   force =     0.00000000    0.16047442    0.10837180
     atom   10 type  1   force =     0.00000000   -0.16047442   -0.10837180
     atom   11 type  1   force =     0.00000000   -0.16046922    0.10837672
     atom   12 type  1   force =     0.00000000    0.16046922   -0.10837672
     atom   13 type  1   force =    -0.16046983   -0.00000000    0.10837249
     atom   14 type  1   force =     0.16046983    0.00000000   -0.10837249
     atom   15 type  1   force =     0.16047004   -0.00000000    0.10837613
     atom   16 type  1   force =    -0.16047004    0.00000000   -0.10837613
     atom   17 type  1   force =     0.16047004    0.00000000   -0.10837613
     atom   18 type  1   force =    -0.16047004   -0.00000000    0.10837613
     atom   19 type  1   force =    -0.16046983    0.00000000   -0.10837249
     atom   20 type  1   force =     0.16046983   -0.00000000    0.10837249
     atom   21 type  1   force =     0.00000000    0.16046922    0.10837672
     atom   22 type  1   force =     0.00000000   -0.16046922   -0.10837672
     atom   23 type  1   force =     0.00000000   -0.16047442    0.10837181
     atom   24 type  1   force =     0.00000000    0.16047442   -0.10837181

     Total force =     0.981066     Total SCF correction =     0.000196


     Computing stress (Cartesian axis) and pressure

          total   stress  (Ry/bohr**3)                   (kbar)     P=      443.00
   0.00296996   0.00000000   0.00000000          436.90        0.00        0.00
   0.00000000   0.00297003  -0.00000000            0.00      436.91       -0.00
   0.00000000  -0.00000000   0.00309430            0.00       -0.00      455.19


     Writing all to output data dir ./iceVIII/iceVIII.save/ :
     XML data file, charge density, pseudopotentials, collected wavefunctions

     init_run     :      1.09s CPU      1.15s WALL (       1 calls)
     electrons    :     24.42s CPU     25.03s WALL (       1 calls)
     forces       :      0.12s CPU      0.13s WALL (       1 calls)
     stress       :      1.35s CPU      1.36s WALL (       1 calls)

     Called by init_run:
     wfcinit      :      0.85s CPU      0.86s WALL (       1 calls)
     potinit      :      0.02s CPU      0.03s WALL (       1 calls)
     hinit0       :      0.18s CPU      0.18s WALL (       1 calls)

     Called by electrons:
     c_bands      :     21.59s CPU     22.11s WALL (      12 calls)
     sum_band     :      2.69s CPU      2.74s WALL (      12 calls)
     v_of_rho     :      0.09s CPU      0.10s WALL (      13 calls)
     newd         :      0.02s CPU      0.02s WALL (      13 calls)
     mix_rho      :      0.02s CPU      0.02s WALL (      12 calls)

     Called by c_bands:
     init_us_2    :      0.25s CPU      0.27s WALL (     972 calls)
     cegterg      :     20.90s CPU     21.22s WALL (     432 calls)

     Called by *egterg:
     cdiaghg      :      2.76s CPU      2.79s WALL (    1650 calls)
     h_psi        :     16.13s CPU     16.40s WALL (    1686 calls)
     s_psi        :      0.57s CPU      0.57s WALL (    1686 calls)
     g_psi        :      0.04s CPU      0.04s WALL (    1218 calls)

     Called by h_psi:
     h_psi:calbec :      0.77s CPU      0.78s WALL (    1686 calls)
     vloc_psi     :     14.71s CPU     14.96s WALL (    1686 calls)
     add_vuspsi   :      0.59s CPU      0.60s WALL (    1686 calls)

     General routines
     calbec       :      1.08s CPU      1.10s WALL (    2298 calls)
     fft          :      0.21s CPU      0.22s WALL (     151 calls)
     ffts         :      0.00s CPU      0.00s WALL (      12 calls)
     fftw         :     15.77s CPU     16.03s WALL (  101334 calls)

     Parallel routines

     PWSCF        :     27.68s CPU     29.08s WALL


   This run was terminated on:  18:12:56  21Mar2026            

=------------------------------------------------------------------------------=
   JOB DONE.
=------------------------------------------------------------------------------=
