
     Program PWSCF v.7.3.1 starts on 31Mar2026 at 17: 6: 3 

     This program is part of the open-source Quantum ESPRESSO suite
     for quantum simulation of materials; please cite
         "P. Giannozzi et al., J. Phys.:Condens. Matter 21 395502 (2009);
         "P. Giannozzi et al., J. Phys.:Condens. Matter 29 465901 (2017);
         "P. Giannozzi et al., J. Chem. Phys. 152 154105 (2020);
          URL http://www.quantum-espresso.org", 
     in publications or presentations arising from this work. More details at
     http://www.quantum-espresso.org/quote

     Parallel version (MPI), running on   128 processors

     MPI processes distributed on     1 nodes
     500111 MiB available memory on the printing compute node when the environment starts

     Waiting for input...
     Reading input from standard input

     Current dimensions of program PWSCF are:
     Max number of different atomic species (ntypx) = 10
     Max number of k-points (npk) =  40000
     Max angular momentum in pseudopotentials (lmaxx) =  4
     Found identity + ( -0.5000 -0.5000  0.5000) symmetry
     This is a supercell, fractional translations are disabled

     K-points division:     npool     =       4
     R & G space division:  proc/nbgrp/npool/nimage =      32
     Subspace diagonalization in iterative solution of the eigenvalue problem:
     a serial algorithm will be used


     Parallelization info
     --------------------
     sticks:   dense  smooth     PW     G-vecs:    dense   smooth      PW
     Min          62      62     17                 2988     2988     437
     Max          63      63     18                 2992     2992     444
     Sum        1993    1993    553                95689    95689   14055

     Using Slab Decomposition



     bravais-lattice index     =            6
     lattice parameter (alat)  =       8.3169  a.u.
     unit-cell volume          =     829.6628 (a.u.)^3
     number of atoms/cell      =           24
     number of atomic types    =            2
     number of electrons       =        64.00
     number of Kohn-Sham states=           32
     kinetic-energy cutoff     =      90.0000  Ry
     charge density cutoff     =     360.0000  Ry
     scf convergence threshold =      1.0E-07
     mixing beta               =       0.7000
     number of iterations used =            8  plain     mixing
     energy convergence thresh.=      1.0E-04
     force convergence thresh. =      1.0E-04
     Exchange-correlation=  SLA  PW   PBE  PBE
                           (   1   4   3   4   0   0   0)
     nstep                     =           50


     celldm(1)=   8.316852  celldm(2)=   0.000000  celldm(3)=   1.442197
     celldm(4)=   0.000000  celldm(5)=   0.000000  celldm(6)=   0.000000

     crystal axes: (cart. coord. in units of alat)
               a(1) = (   1.000000   0.000000   0.000000 )  
               a(2) = (   0.000000   1.000000   0.000000 )  
               a(3) = (   0.000000   0.000000   1.442197 )  

     reciprocal axes: (cart. coord. in units 2 pi/alat)
               b(1) = (  1.000000  0.000000  0.000000 )  
               b(2) = (  0.000000  1.000000  0.000000 )  
               b(3) = (  0.000000  0.000000  0.693386 )  


     PseudoPot. # 1 for H  read from file:
     ./H.pbe-van_ak.UPF
     MD5 check sum: 077eb6d537518a38cb46c6de387227b7
     Pseudo is Ultrasoft, Zval =  1.0
     Generated by new atomic code, or converted to UPF format
     Using radial grid of  615 points,  1 beta functions with: 
                l(1) =   0
     Q(r) pseudized with  8 coefficients,  rinner =    0.800

     PseudoPot. # 2 for O  read from file:
     ./O.pbe-van_ak.UPF
     MD5 check sum: 78c19812648e8988a0fe644b0f25305e
     Pseudo is Ultrasoft, Zval =  6.0
     Generated by new atomic code, or converted to UPF format
     Using radial grid of  737 points,  4 beta functions with: 
                l(1) =   0
                l(2) =   0
                l(3) =   1
                l(4) =   1
     Q(r) pseudized with  8 coefficients,  rinner =    0.800   0.800   0.800


     atomic species   valence    mass     pseudopotential
     H                 1.00     1.00800     H ( 1.00)
     O                 6.00    16.00000     O ( 1.00)

      4 Sym. Ops., with inversion, found



   Cartesian axes

     site n.     atom                  positions (alat units)
         1        O      tau(   1) = (   0.0000000   0.2500000   0.8781106  )
         2        O      tau(   2) = (   0.0000000   0.7500000   0.5640866  )
         3        O      tau(   3) = (   0.5000000   0.7500000   0.1570120  )
         4        O      tau(   4) = (   0.5000000   0.2500000   1.2851851  )
         5        O      tau(   5) = (   0.0000000   0.7500000   1.2386599  )
         6        O      tau(   6) = (   0.0000000   0.2500000   0.2035373  )
         7        O      tau(   7) = (   0.5000000   0.2500000   0.5175613  )
         8        O      tau(   8) = (   0.5000000   0.7500000   0.9246358  )
         9        H      tau(   9) = (   0.0000000   0.4142500   1.0027885  )
        10        H      tau(  10) = (   0.0000000   0.5857500   0.4394086  )
        11        H      tau(  11) = (   0.5000000   0.5857500   0.2816900  )
        12        H      tau(  12) = (   0.5000000   0.4142500   1.1605072  )
        13        H      tau(  13) = (   0.8357500   0.7500000   1.3633378  )
        14        H      tau(  14) = (   0.1642500   0.2500000   0.0788593  )
        15        H      tau(  15) = (   0.6642500   0.2500000   0.6422392  )
        16        H      tau(  16) = (   0.3357500   0.7500000   0.7999579  )
        17        H      tau(  17) = (   0.6642500   0.7500000   0.7999579  )
        18        H      tau(  18) = (   0.3357500   0.2500000   0.6422392  )
        19        H      tau(  19) = (   0.8357500   0.2500000   0.0788593  )
        20        H      tau(  20) = (   0.1642500   0.7500000   1.3633378  )
        21        H      tau(  21) = (   0.5000000   0.9142500   0.2816900  )
        22        H      tau(  22) = (   0.5000000   0.0857500   1.1605072  )
        23        H      tau(  23) = (   0.0000000   0.0857500   1.0027885  )
        24        H      tau(  24) = (   0.0000000   0.9142500   0.4394086  )

     number of k points=   144

     Number of k-points >= 100: set verbosity='high' to print them.

     Dense  grid:    95689 G-vectors     FFT dimensions: (  54,  54,  75)

     Estimated max dynamical RAM per process >      11.32 MB

     Estimated total dynamical RAM >       1.35 GB

     Initial potential from superposition of free atoms

     starting charge      63.9998, renormalised to      64.0000
     Starting wfcs are   48 randomized atomic wfcs

     total cpu time spent up to now is        1.3 secs

     per-process dynamical memory:    18.1 Mb

     Self-consistent Calculation

     iteration #  1     ecut=    90.00 Ry     beta= 0.70
     Davidson diagonalization with overlap
     ethr =  1.00E-02,  avg # of iterations =  2.0

     total cpu time spent up to now is        3.3 secs

     total energy              =    -274.51407941 Ry
     estimated scf accuracy    <       2.88410481 Ry

     iteration #  2     ecut=    90.00 Ry     beta= 0.70
     Davidson diagonalization with overlap
     ethr =  4.51E-03,  avg # of iterations =  3.0

     total cpu time spent up to now is        5.6 secs

     total energy              =    -275.44895825 Ry
     estimated scf accuracy    <       1.06598414 Ry

     iteration #  3     ecut=    90.00 Ry     beta= 0.70
     Davidson diagonalization with overlap
     ethr =  1.67E-03,  avg # of iterations =  2.0

     total cpu time spent up to now is        7.3 secs

     total energy              =    -275.56329808 Ry
     estimated scf accuracy    <       0.04624572 Ry

     iteration #  4     ecut=    90.00 Ry     beta= 0.70
     Davidson diagonalization with overlap
     ethr =  7.23E-05,  avg # of iterations =  4.0

     total cpu time spent up to now is        9.9 secs

     total energy              =    -275.59379363 Ry
     estimated scf accuracy    <       0.05846953 Ry

     iteration #  5     ecut=    90.00 Ry     beta= 0.70
     Davidson diagonalization with overlap
     ethr =  7.23E-05,  avg # of iterations =  2.0

     total cpu time spent up to now is       11.6 secs

     total energy              =    -275.59495019 Ry
     estimated scf accuracy    <       0.00880804 Ry

     iteration #  6     ecut=    90.00 Ry     beta= 0.70
     Davidson diagonalization with overlap
     ethr =  1.38E-05,  avg # of iterations =  2.9

     total cpu time spent up to now is       13.6 secs

     total energy              =    -275.59749319 Ry
     estimated scf accuracy    <       0.00005734 Ry

     iteration #  7     ecut=    90.00 Ry     beta= 0.70
     Davidson diagonalization with overlap
     ethr =  8.96E-08,  avg # of iterations =  6.0

     total cpu time spent up to now is       16.9 secs

     total energy              =    -275.59765629 Ry
     estimated scf accuracy    <       0.00022130 Ry

     iteration #  8     ecut=    90.00 Ry     beta= 0.70
     Davidson diagonalization with overlap
     ethr =  8.96E-08,  avg # of iterations =  2.9

     total cpu time spent up to now is       19.0 secs

     total energy              =    -275.59766127 Ry
     estimated scf accuracy    <       0.00003079 Ry

     iteration #  9     ecut=    90.00 Ry     beta= 0.70
     Davidson diagonalization with overlap
     ethr =  4.81E-08,  avg # of iterations =  3.0

     total cpu time spent up to now is       21.2 secs

     End of self-consistent calculation

     Number of k-points >= 100: set verbosity='high' to print the bands.

     highest occupied level (ev):     1.2255

!    total energy              =    -275.59767098 Ry
     estimated scf accuracy    <       0.00000006 Ry

     The total energy is the sum of the following terms:
     one-electron contribution =    -107.46918128 Ry
     hartree contribution      =      83.96424204 Ry
     xc contribution           =     -69.38335180 Ry
     ewald contribution        =    -182.70937995 Ry

     convergence has been achieved in   9 iterations

     Forces acting on atoms (cartesian axes, Ry/au):

     atom    1 type  2   force =     0.00000000   -0.00000002   -0.20919574
     atom    2 type  2   force =     0.00000000    0.00000002    0.20919574
     atom    3 type  2   force =     0.00000000   -0.00000026   -0.20922137
     atom    4 type  2   force =     0.00000000    0.00000026    0.20922137
     atom    5 type  2   force =     0.00000000   -0.00000049   -0.20923181
     atom    6 type  2   force =     0.00000000    0.00000049    0.20923181
     atom    7 type  2   force =     0.00000000   -0.00000047   -0.20925480
     atom    8 type  2   force =     0.00000000    0.00000047    0.20925480
     atom    9 type  1   force =     0.00000000    0.15811384    0.10680659
     atom   10 type  1   force =     0.00000000   -0.15811384   -0.10680659
     atom   11 type  1   force =     0.00000000   -0.15810898    0.10681235
     atom   12 type  1   force =     0.00000000    0.15810898   -0.10681235
     atom   13 type  1   force =    -0.15810662   -0.00000005    0.10680797
     atom   14 type  1   force =     0.15810662    0.00000005   -0.10680797
     atom   15 type  1   force =     0.15810691   -0.00000005    0.10680819
     atom   16 type  1   force =    -0.15810691    0.00000005   -0.10680819
     atom   17 type  1   force =     0.15810691    0.00000005   -0.10680819
     atom   18 type  1   force =    -0.15810691   -0.00000005    0.10680819
     atom   19 type  1   force =    -0.15810662    0.00000005   -0.10680797
     atom   20 type  1   force =     0.15810662   -0.00000005    0.10680797
     atom   21 type  1   force =     0.00000000    0.15810907    0.10681246
     atom   22 type  1   force =     0.00000000   -0.15810907   -0.10681246
     atom   23 type  1   force =     0.00000000   -0.15811379    0.10680653
     atom   24 type  1   force =     0.00000000    0.15811379   -0.10680653

     Total force =     0.965769     Total SCF correction =     0.000195


     Computing stress (Cartesian axis) and pressure

          total   stress  (Ry/bohr**3)                   (kbar)     P=      434.58
   0.00291341   0.00000000   0.00000000          428.58        0.00        0.00
   0.00000000   0.00291385   0.00000000            0.00      428.64        0.00
   0.00000000   0.00000000   0.00303537            0.00        0.00      446.52


     BFGS Geometry Optimization
     Energy error            =      0.0E+00 Ry
     Gradient error          =      2.1E-01 Ry/Bohr

     number of scf cycles    =   1
     number of bfgs steps    =   0

     energy             new  =    -275.5976709822 Ry

     new trust radius        =       0.2092547976 bohr
     new conv_thr            =       0.0000001000 Ry


ATOMIC_POSITIONS (crystal)
O                0.0000000000        0.2499999979        0.5914291157
O                0.0000000000        0.7500000021        0.4085709133
O                0.5000000000        0.7499999689        0.0914269497
O                0.5000000000        0.2500000311        0.9085730213
O                0.0000000000        0.7499999412        0.8414261087
O                0.0000000000        0.2500000588        0.1585739203
O                0.5000000000        0.2499999432        0.3414241632
O                0.5000000000        0.7500000568        0.6585758078
H                0.0000000000        0.4332612458        0.7042246105
H                0.0000000000        0.5667387242        0.2957753895
H                0.5000000000        0.5667393084        0.2042250909
H                0.5000000000        0.4332606616        0.7957749091
H                0.8167395918        0.7499999945        0.9542247251
H                0.1832603782        0.2500000055        0.0457752749
H                0.6832604431        0.2499999943        0.4542247434
H                0.3167395869        0.7500000057        0.5457752566
H                0.6832604431        0.7500000057        0.5457752566
H                0.3167395869        0.2499999943        0.4542247434
H                0.8167395918        0.2500000055        0.0457752749
H                0.1832603782        0.7499999945        0.9542247251
H                0.5000000000        0.9332607029        0.2042250995
H                0.5000000000        0.0667393271        0.7957749005
H                0.0000000000        0.0667387597        0.7042246051
H                0.0000000000        0.9332612703        0.2957753949



     Writing config-only to output data dir ./iceVIII/iceVIII.save/ :
     XML data file
     NEW-OLD atomic charge density approx. for the potential

     total cpu time spent up to now is       22.8 secs

     per-process dynamical memory:    20.0 Mb

     Self-consistent Calculation

     iteration #  1     ecut=    90.00 Ry     beta= 0.70
     Davidson diagonalization with overlap
     ethr =  1.00E-06,  avg # of iterations = 12.0

     total cpu time spent up to now is       29.6 secs

     total energy              =    -275.61548766 Ry
     estimated scf accuracy    <       0.26716391 Ry

     iteration #  2     ecut=    90.00 Ry     beta= 0.70
     Davidson diagonalization with overlap
     ethr =  4.17E-04,  avg # of iterations =  2.3

     total cpu time spent up to now is       31.6 secs

     total energy              =    -275.69319117 Ry
     estimated scf accuracy    <       0.04879776 Ry

     iteration #  3     ecut=    90.00 Ry     beta= 0.70
     Davidson diagonalization with overlap
     ethr =  7.62E-05,  avg # of iterations =  2.0

     total cpu time spent up to now is       33.3 secs

     total energy              =    -275.69693370 Ry
     estimated scf accuracy    <       0.00224474 Ry

     iteration #  4     ecut=    90.00 Ry     beta= 0.70
     Davidson diagonalization with overlap
     ethr =  3.51E-06,  avg # of iterations =  3.6

     total cpu time spent up to now is       35.6 secs

     total energy              =    -275.69785125 Ry
     estimated scf accuracy    <       0.00082866 Ry

     iteration #  5     ecut=    90.00 Ry     beta= 0.70
     Davidson diagonalization with overlap
     ethr =  1.29E-06,  avg # of iterations =  3.0

     total cpu time spent up to now is       37.8 secs

     total energy              =    -275.69809165 Ry
     estimated scf accuracy    <       0.00012793 Ry

     iteration #  6     ecut=    90.00 Ry     beta= 0.70
     Davidson diagonalization with overlap
     ethr =  2.00E-07,  avg # of iterations =  2.0

     total cpu time spent up to now is       39.6 secs

     total energy              =    -275.69811623 Ry
     estimated scf accuracy    <       0.00000152 Ry

     iteration #  7     ecut=    90.00 Ry     beta= 0.70
     Davidson diagonalization with overlap
     ethr =  2.38E-09,  avg # of iterations =  4.9

     total cpu time spent up to now is       42.3 secs

     total energy              =    -275.69811712 Ry
     estimated scf accuracy    <       0.00000147 Ry

     iteration #  8     ecut=    90.00 Ry     beta= 0.70
     Davidson diagonalization with overlap
     ethr =  2.29E-09,  avg # of iterations =  2.0

     total cpu time spent up to now is       43.8 secs

     total energy              =    -275.69811712 Ry
     estimated scf accuracy    <       0.00000026 Ry

     iteration #  9     ecut=    90.00 Ry     beta= 0.70
     Davidson diagonalization with overlap
     ethr =  4.05E-10,  avg # of iterations =  3.2

     total cpu time spent up to now is       45.9 secs

     End of self-consistent calculation

     Number of k-points >= 100: set verbosity='high' to print the bands.

     highest occupied level (ev):     1.5707

!    total energy              =    -275.69811722 Ry
     estimated scf accuracy    <       0.00000002 Ry

     The total energy is the sum of the following terms:
     one-electron contribution =     -91.65032583 Ry
     hartree contribution      =      77.32635100 Ry
     xc contribution           =     -67.44431309 Ry
     ewald contribution        =    -193.92982931 Ry

     convergence has been achieved in   9 iterations

     Forces acting on atoms (cartesian axes, Ry/au):

     atom    1 type  2   force =     0.00000000    0.00000000    0.14339765
     atom    2 type  2   force =     0.00000000   -0.00000000   -0.14339765
     atom    3 type  2   force =     0.00000000    0.00000020    0.14337749
     atom    4 type  2   force =     0.00000000   -0.00000020   -0.14337749
     atom    5 type  2   force =     0.00000000    0.00000011    0.14338106
     atom    6 type  2   force =     0.00000000   -0.00000011   -0.14338106
     atom    7 type  2   force =     0.00000000    0.00000008    0.14343691
     atom    8 type  2   force =     0.00000000   -0.00000008   -0.14343691
     atom    9 type  1   force =     0.00000000   -0.03167251   -0.05902102
     atom   10 type  1   force =     0.00000000    0.03167251    0.05902102
     atom   11 type  1   force =     0.00000000    0.03167425   -0.05902829
     atom   12 type  1   force =     0.00000000   -0.03167425    0.05902829
     atom   13 type  1   force =     0.03167307   -0.00000005   -0.05902668
     atom   14 type  1   force =    -0.03167307    0.00000005    0.05902668
     atom   15 type  1   force =    -0.03167765   -0.00000004   -0.05903206
     atom   16 type  1   force =     0.03167765    0.00000004    0.05903206
     atom   17 type  1   force =    -0.03167765    0.00000004    0.05903206
     atom   18 type  1   force =     0.03167765   -0.00000004   -0.05903206
     atom   19 type  1   force =     0.03167307    0.00000005    0.05902668
     atom   20 type  1   force =    -0.03167307   -0.00000005   -0.05902668
     atom   21 type  1   force =     0.00000000   -0.03167437   -0.05902835
     atom   22 type  1   force =     0.00000000    0.03167437    0.05902835
     atom   23 type  1   force =     0.00000000    0.03167251   -0.05902105
     atom   24 type  1   force =     0.00000000   -0.03167251    0.05902105

     Total force =     0.486111     Total SCF correction =     0.000361


     Computing stress (Cartesian axis) and pressure

          total   stress  (Ry/bohr**3)                   (kbar)     P=      -36.31
   0.00003901   0.00000000   0.00000000            5.74        0.00        0.00
   0.00000000   0.00003918  -0.00000000            0.00        5.76       -0.00
   0.00000000  -0.00000000  -0.00081875            0.00       -0.00     -120.44

     Energy error            =      1.0E-01 Ry
     Gradient error          =      1.4E-01 Ry/Bohr

     number of scf cycles    =   2
     number of bfgs steps    =   1

     energy             old  =    -275.5976709822 Ry
     energy             new  =    -275.6981172210 Ry

     CASE: energy            _new < energy            _old

     new trust radius        =       0.0939005085 bohr
     new conv_thr            =       0.0000001000 Ry


ATOMIC_POSITIONS (crystal)
O                0.0000000000        0.2499999980        0.5992555803
O                0.0000000000        0.7500000020        0.4007444487
O                0.5000000000        0.7499999846        0.0992522058
O                0.5000000000        0.2500000154        0.9007477652
O                0.0000000000        0.7499999490        0.8492515496
O                0.0000000000        0.2500000510        0.1507484794
O                0.5000000000        0.2499999481        0.3492527672
O                0.5000000000        0.7500000519        0.6507472038
H                0.0000000000        0.4310849673        0.7010439521
H                0.0000000000        0.5689150027        0.2989560479
H                0.5000000000        0.5689157448        0.2010440262
H                0.5000000000        0.4310842252        0.7989559738
H                0.8189159370        0.7499999903        0.9510437443
H                0.1810840330        0.2500000097        0.0489562557
H                0.6810837194        0.2499999905        0.4510434543
H                0.3189163106        0.7500000095        0.5489565457
H                0.6810837194        0.7500000095        0.5489565457
H                0.3189163106        0.2499999905        0.4510434543
H                0.8189159370        0.2500000097        0.0489562557
H                0.1810840330        0.7499999903        0.9510437443
H                0.5000000000        0.9310842571        0.2010440319
H                0.5000000000        0.0689157729        0.7989559681
H                0.0000000000        0.0689150388        0.7010439451
H                0.0000000000        0.9310849912        0.2989560549



     Writing config-only to output data dir ./iceVIII/iceVIII.save/ :
     XML data file
     NEW-OLD atomic charge density approx. for the potential

     total cpu time spent up to now is       47.5 secs

     per-process dynamical memory:    21.3 Mb

     Self-consistent Calculation

     iteration #  1     ecut=    90.00 Ry     beta= 0.70
     Davidson diagonalization with overlap
     ethr =  1.00E-06,  avg # of iterations =  9.1

     total cpu time spent up to now is       52.8 secs

     total energy              =    -275.80256443 Ry
     estimated scf accuracy    <       0.02488934 Ry

     iteration #  2     ecut=    90.00 Ry     beta= 0.70
     Davidson diagonalization with overlap
     ethr =  3.89E-05,  avg # of iterations =  2.0

     total cpu time spent up to now is       54.8 secs

     total energy              =    -275.80938521 Ry
     estimated scf accuracy    <       0.00400737 Ry

     iteration #  3     ecut=    90.00 Ry     beta= 0.70
     Davidson diagonalization with overlap
     ethr =  6.26E-06,  avg # of iterations =  2.0

     total cpu time spent up to now is       56.4 secs

     total energy              =    -275.80973859 Ry
     estimated scf accuracy    <       0.00016735 Ry

     iteration #  4     ecut=    90.00 Ry     beta= 0.70
     Davidson diagonalization with overlap
     ethr =  2.61E-07,  avg # of iterations =  3.0

     total cpu time spent up to now is       58.6 secs

     total energy              =    -275.80980355 Ry
     estimated scf accuracy    <       0.00004537 Ry

     iteration #  5     ecut=    90.00 Ry     beta= 0.70
     Davidson diagonalization with overlap
     ethr =  7.09E-08,  avg # of iterations =  3.0

     total cpu time spent up to now is       60.7 secs

     total energy              =    -275.80981630 Ry
     estimated scf accuracy    <       0.00000577 Ry

     iteration #  6     ecut=    90.00 Ry     beta= 0.70
     Davidson diagonalization with overlap
     ethr =  9.02E-09,  avg # of iterations =  2.0

     total cpu time spent up to now is       62.5 secs

     End of self-consistent calculation

     Number of k-points >= 100: set verbosity='high' to print the bands.

     highest occupied level (ev):     1.4724

!    total energy              =    -275.80981723 Ry
     estimated scf accuracy    <       0.00000007 Ry

     The total energy is the sum of the following terms:
     one-electron contribution =     -95.02646698 Ry
     hartree contribution      =      78.67042685 Ry
     xc contribution           =     -67.94359817 Ry
     ewald contribution        =    -191.51017892 Ry

     convergence has been achieved in   6 iterations

     Forces acting on atoms (cartesian axes, Ry/au):

     atom    1 type  2   force =     0.00000000    0.00000003    0.06261811
     atom    2 type  2   force =     0.00000000   -0.00000003   -0.06261811
     atom    3 type  2   force =    -0.00000000    0.00000013    0.06266874
     atom    4 type  2   force =    -0.00000000   -0.00000013   -0.06266874
     atom    5 type  2   force =     0.00000000    0.00000007    0.06269787
     atom    6 type  2   force =     0.00000000   -0.00000007   -0.06269787
     atom    7 type  2   force =     0.00000000    0.00000006    0.06260804
     atom    8 type  2   force =     0.00000000   -0.00000006   -0.06260804
     atom    9 type  1   force =     0.00000000   -0.01268936   -0.02354388
     atom   10 type  1   force =     0.00000000    0.01268936    0.02354388
     atom   11 type  1   force =     0.00000000    0.01269608   -0.02355271
     atom   12 type  1   force =     0.00000000   -0.01269608    0.02355271
     atom   13 type  1   force =     0.01269775   -0.00000002   -0.02355369
     atom   14 type  1   force =    -0.01269775    0.00000002    0.02355369
     atom   15 type  1   force =    -0.01269185   -0.00000002   -0.02354882
     atom   16 type  1   force =     0.01269185    0.00000002    0.02354882
     atom   17 type  1   force =    -0.01269185    0.00000002    0.02354882
     atom   18 type  1   force =     0.01269185   -0.00000002   -0.02354882
     atom   19 type  1   force =     0.01269775    0.00000002    0.02355369
     atom   20 type  1   force =    -0.01269775   -0.00000002   -0.02355369
     atom   21 type  1   force =     0.00000000   -0.01269618   -0.02355276
     atom   22 type  1   force =     0.00000000    0.01269618    0.02355276
     atom   23 type  1   force =     0.00000000    0.01268933   -0.02354387
     atom   24 type  1   force =     0.00000000   -0.01268933    0.02354387

     Total force =     0.207002     Total SCF correction =     0.001242


     Computing stress (Cartesian axis) and pressure

          total   stress  (Ry/bohr**3)                   (kbar)     P=       55.00
   0.00047749   0.00000000   0.00000000           70.24        0.00        0.00
   0.00000000   0.00047757  -0.00000000            0.00       70.25       -0.00
   0.00000000  -0.00000000   0.00016654            0.00       -0.00       24.50

     Energy error            =      1.1E-01 Ry
     Gradient error          =      6.3E-02 Ry/Bohr

     number of scf cycles    =   3
     number of bfgs steps    =   2

     energy             old  =    -275.6981172210 Ry
     energy             new  =    -275.8098172288 Ry

     CASE: energy            _new < energy            _old

     new trust radius        =       0.0727324761 bohr
     new conv_thr            =       0.0000001000 Ry


ATOMIC_POSITIONS (crystal)
O                0.0000000000        0.2500000048        0.6053075402
O                0.0000000000        0.7499999952        0.3946924888
O                0.5000000000        0.7500000048        0.1053118593
O                0.5000000000        0.2499999952        0.8946881117
O                0.0000000000        0.7499999596        0.8553153480
O                0.0000000000        0.2500000404        0.1446846810
O                0.5000000000        0.2499999580        0.3553024310
O                0.5000000000        0.7500000420        0.6446975400
H                0.0000000000        0.4296474432        0.6989089083
H                0.0000000000        0.5703525268        0.3010910917
H                0.5000000000        0.5703546396        0.1989078474
H                0.5000000000        0.4296453304        0.8010921526
H                0.8203552189        0.7499999865        0.9489073859
H                0.1796447511        0.2500000135        0.0510926141
H                0.6796457970        0.2499999868        0.4489079049
H                0.3203542330        0.7500000132        0.5510920951
H                0.6796457970        0.7500000132        0.5510920951
H                0.3203542330        0.2499999868        0.4489079049
H                0.8203552189        0.2500000135        0.0510926141
H                0.1796447511        0.7499999865        0.9489073859
H                0.5000000000        0.9296453452        0.1989078461
H                0.5000000000        0.0703546848        0.8010921539
H                0.0000000000        0.0703525566        0.6989089031
H                0.0000000000        0.9296474734        0.3010910969



     Writing config-only to output data dir ./iceVIII/iceVIII.save/ :
     XML data file
     NEW-OLD atomic charge density approx. for the potential

     total cpu time spent up to now is       64.1 secs

     per-process dynamical memory:    21.3 Mb

     Self-consistent Calculation

     iteration #  1     ecut=    90.00 Ry     beta= 0.70
     Davidson diagonalization with overlap
     ethr =  1.00E-06,  avg # of iterations =  9.0

     total cpu time spent up to now is       69.1 secs

     total energy              =    -275.82286964 Ry
     estimated scf accuracy    <       0.01635710 Ry

     iteration #  2     ecut=    90.00 Ry     beta= 0.70
     Davidson diagonalization with overlap
     ethr =  2.56E-05,  avg # of iterations =  2.0

     total cpu time spent up to now is       71.0 secs

     total energy              =    -275.82750732 Ry
     estimated scf accuracy    <       0.00265411 Ry

     iteration #  3     ecut=    90.00 Ry     beta= 0.70
     Davidson diagonalization with overlap
     ethr =  4.15E-06,  avg # of iterations =  2.0

     total cpu time spent up to now is       72.7 secs

     total energy              =    -275.82772803 Ry
     estimated scf accuracy    <       0.00011214 Ry

     iteration #  4     ecut=    90.00 Ry     beta= 0.70
     Davidson diagonalization with overlap
     ethr =  1.75E-07,  avg # of iterations =  2.9

     total cpu time spent up to now is       74.8 secs

     total energy              =    -275.82777546 Ry
     estimated scf accuracy    <       0.00002772 Ry

     iteration #  5     ecut=    90.00 Ry     beta= 0.70
     Davidson diagonalization with overlap
     ethr =  4.33E-08,  avg # of iterations =  2.8

     total cpu time spent up to now is       76.9 secs

     total energy              =    -275.82778332 Ry
     estimated scf accuracy    <       0.00000297 Ry

     iteration #  6     ecut=    90.00 Ry     beta= 0.70
     Davidson diagonalization with overlap
     ethr =  4.64E-09,  avg # of iterations =  2.0

     total cpu time spent up to now is       78.6 secs

     End of self-consistent calculation

     Number of k-points >= 100: set verbosity='high' to print the bands.

     highest occupied level (ev):     1.4256

!    total energy              =    -275.82778374 Ry
     estimated scf accuracy    <       0.00000005 Ry

     The total energy is the sum of the following terms:
     one-electron contribution =     -98.01298338 Ry
     hartree contribution      =      79.90910744 Ry
     xc contribution           =     -68.34268651 Ry
     ewald contribution        =    -189.38122129 Ry

     convergence has been achieved in   6 iterations

     Forces acting on atoms (cartesian axes, Ry/au):

     atom    1 type  2   force =     0.00000000   -0.00000005   -0.01320992
     atom    2 type  2   force =     0.00000000    0.00000005    0.01320992
     atom    3 type  2   force =     0.00000000   -0.00000015   -0.01323438
     atom    4 type  2   force =     0.00000000    0.00000015    0.01323438
     atom    5 type  2   force =    -0.00000000    0.00000004   -0.01329856
     atom    6 type  2   force =    -0.00000000   -0.00000004    0.01329856
     atom    7 type  2   force =     0.00000000    0.00000005   -0.01315371
     atom    8 type  2   force =     0.00000000   -0.00000005    0.01315371
     atom    9 type  1   force =     0.00000000    0.01403778    0.01101657
     atom   10 type  1   force =     0.00000000   -0.01403778   -0.01101657
     atom   11 type  1   force =     0.00000000   -0.01406860    0.01104404
     atom   12 type  1   force =     0.00000000    0.01406860   -0.01104404
     atom   13 type  1   force =    -0.01408405   -0.00000000    0.01106435
     atom   14 type  1   force =     0.01408405    0.00000000   -0.01106435
     atom   15 type  1   force =     0.01402957   -0.00000000    0.01100271
     atom   16 type  1   force =    -0.01402957    0.00000000   -0.01100271
     atom   17 type  1   force =     0.01402957    0.00000000   -0.01100271
     atom   18 type  1   force =    -0.01402957   -0.00000000    0.01100271
     atom   19 type  1   force =    -0.01408405    0.00000000   -0.01106435
     atom   20 type  1   force =     0.01408405   -0.00000000    0.01106435
     atom   21 type  1   force =     0.00000000    0.01406873    0.01104414
     atom   22 type  1   force =     0.00000000   -0.01406873   -0.01104414
     atom   23 type  1   force =     0.00000000   -0.01403775    0.01101654
     atom   24 type  1   force =     0.00000000    0.01403775   -0.01101654

     Total force =     0.080666     Total SCF correction =     0.001047


     Computing stress (Cartesian axis) and pressure

          total   stress  (Ry/bohr**3)                   (kbar)     P=      140.47
   0.00095448   0.00000000   0.00000000          140.41        0.00        0.00
   0.00000000   0.00095445   0.00000000            0.00      140.40        0.00
   0.00000000   0.00000000   0.00095578            0.00        0.00      140.60

     Energy error            =      1.8E-02 Ry
     Gradient error          =      1.4E-02 Ry/Bohr

     number of scf cycles    =   4
     number of bfgs steps    =   3

     energy             old  =    -275.8098172288 Ry
     energy             new  =    -275.8277837389 Ry

     CASE: energy            _new < energy            _old

     new trust radius        =       0.0133553161 bohr
     new conv_thr            =       0.0000001000 Ry


ATOMIC_POSITIONS (crystal)
O                0.0000000000        0.2499999996        0.6044970922
O                0.0000000000        0.7500000004        0.3955029368
O                0.5000000000        0.7499999906        0.1044991839
O                0.5000000000        0.2500000094        0.8955007871
O               -0.0000000000        0.7499999629        0.8544982752
O               -0.0000000000        0.2500000371        0.1455017538
O                0.5000000000        0.2499999617        0.3544958778
O                0.5000000000        0.7500000383        0.6455040932
H                0.0000000000        0.4309257480        0.6995756617
H                0.0000000000        0.5690742220        0.3004243383
H                0.5000000000        0.5690734068        0.1995764134
H                0.5000000000        0.4309265632        0.8004235866
H                0.8190725301        0.7499999862        0.9495772659
H                0.1809274399        0.2500000138        0.0504227341
H                0.6809233465        0.2499999866        0.4495737715
H                0.3190766835        0.7500000134        0.5504262285
H                0.6809233465        0.7500000134        0.5504262285
H                0.3190766835        0.2499999866        0.4495737715
H                0.8190725301        0.2500000138        0.0504227341
H                0.1809274399        0.7499999862        0.9495772659
H                0.5000000000        0.9309265902        0.1995764188
H                0.5000000000        0.0690734398        0.8004235812
H                0.0000000000        0.0690742555        0.6995756544
H                0.0000000000        0.9309257745        0.3004243456



     Writing config-only to output data dir ./iceVIII/iceVIII.save/ :
     XML data file
     NEW-OLD atomic charge density approx. for the potential

     total cpu time spent up to now is       80.2 secs

     per-process dynamical memory:    21.3 Mb

     Self-consistent Calculation

     iteration #  1     ecut=    90.00 Ry     beta= 0.70
     Davidson diagonalization with overlap
     ethr =  1.00E-06,  avg # of iterations =  4.0

     total cpu time spent up to now is       83.1 secs

     total energy              =    -275.83014584 Ry
     estimated scf accuracy    <       0.00084117 Ry

     iteration #  2     ecut=    90.00 Ry     beta= 0.70
     Davidson diagonalization with overlap
     ethr =  1.31E-06,  avg # of iterations =  2.8

     total cpu time spent up to now is       85.2 secs

     total energy              =    -275.83039048 Ry
     estimated scf accuracy    <       0.00016603 Ry

     iteration #  3     ecut=    90.00 Ry     beta= 0.70
     Davidson diagonalization with overlap
     ethr =  2.59E-07,  avg # of iterations =  2.0

     total cpu time spent up to now is       86.8 secs

     total energy              =    -275.83040208 Ry
     estimated scf accuracy    <       0.00000785 Ry

     iteration #  4     ecut=    90.00 Ry     beta= 0.70
     Davidson diagonalization with overlap
     ethr =  1.23E-08,  avg # of iterations =  3.8

     total cpu time spent up to now is       89.1 secs

     total energy              =    -275.83040552 Ry
     estimated scf accuracy    <       0.00000620 Ry

     iteration #  5     ecut=    90.00 Ry     beta= 0.70
     Davidson diagonalization with overlap
     ethr =  9.69E-09,  avg # of iterations =  2.0

     total cpu time spent up to now is       91.0 secs

     End of self-consistent calculation

     Number of k-points >= 100: set verbosity='high' to print the bands.

     highest occupied level (ev):     1.4420

!    total energy              =    -275.83040713 Ry
     estimated scf accuracy    <       0.00000006 Ry

     The total energy is the sum of the following terms:
     one-electron contribution =     -97.03845816 Ry
     hartree contribution      =      79.49440691 Ry
     xc contribution           =     -68.22885753 Ry
     ewald contribution        =    -190.05749835 Ry

     convergence has been achieved in   5 iterations

     Forces acting on atoms (cartesian axes, Ry/au):

     atom    1 type  2   force =    -0.00000000    0.00000003    0.00545417
     atom    2 type  2   force =    -0.00000000   -0.00000003   -0.00545417
     atom    3 type  2   force =     0.00000000    0.00000008    0.00549508
     atom    4 type  2   force =     0.00000000   -0.00000008   -0.00549508
     atom    5 type  2   force =     0.00000000    0.00000004    0.00548938
     atom    6 type  2   force =     0.00000000   -0.00000004   -0.00548938
     atom    7 type  2   force =     0.00000000    0.00000003    0.00546535
     atom    8 type  2   force =     0.00000000   -0.00000003   -0.00546535
     atom    9 type  1   force =     0.00000000    0.00360550    0.00230163
     atom   10 type  1   force =     0.00000000   -0.00360550   -0.00230163
     atom   11 type  1   force =     0.00000000   -0.00360562    0.00230529
     atom   12 type  1   force =     0.00000000    0.00360562   -0.00230529
     atom   13 type  1   force =    -0.00359202   -0.00000001    0.00229731
     atom   14 type  1   force =     0.00359202    0.00000001   -0.00229731
     atom   15 type  1   force =     0.00361897   -0.00000001    0.00230997
     atom   16 type  1   force =    -0.00361897    0.00000001   -0.00230997
     atom   17 type  1   force =     0.00361897    0.00000001   -0.00230997
     atom   18 type  1   force =    -0.00361897   -0.00000001    0.00230997
     atom   19 type  1   force =    -0.00359202    0.00000001   -0.00229731
     atom   20 type  1   force =     0.00359202   -0.00000001    0.00229731
     atom   21 type  1   force =     0.00000000    0.00360555    0.00230525
     atom   22 type  1   force =     0.00000000   -0.00360555   -0.00230525
     atom   23 type  1   force =     0.00000000   -0.00360553    0.00230164
     atom   24 type  1   force =     0.00000000    0.00360553   -0.00230164

     Total force =     0.023082     Total SCF correction =     0.000235


     Computing stress (Cartesian axis) and pressure

          total   stress  (Ry/bohr**3)                   (kbar)     P=      113.70
   0.00078449   0.00000000   0.00000000          115.40        0.00        0.00
   0.00000000   0.00078451  -0.00000000            0.00      115.41       -0.00
   0.00000000  -0.00000000   0.00074982            0.00       -0.00      110.30

     Energy error            =      2.6E-03 Ry
     Gradient error          =      5.5E-03 Ry/Bohr

     number of scf cycles    =   5
     number of bfgs steps    =   4

     energy             old  =    -275.8277837389 Ry
     energy             new  =    -275.8304071265 Ry

     CASE: energy            _new < energy            _old

     new trust radius        =       0.0068172159 bohr
     new conv_thr            =       0.0000000262 Ry


ATOMIC_POSITIONS (crystal)
O                0.0000000000        0.2500000026        0.6050376586
O                0.0000000000        0.7499999974        0.3949623704
O                0.5000000000        0.7499999995        0.1050433593
O                0.5000000000        0.2500000005        0.8949566117
O               -0.0000000000        0.7499999686        0.8550412580
O               -0.0000000000        0.2500000314        0.1449587710
O                0.5000000000        0.2499999671        0.3550381074
O                0.5000000000        0.7500000329        0.6449618636
H                0.0000000000        0.4316408053        0.6998508783
H                0.0000000000        0.5683591647        0.3001491217
H                0.5000000000        0.5683578530        0.1998522593
H                0.5000000000        0.4316421170        0.8001477407
H                0.8183585438        0.7499999852        0.9498526015
H                0.1816414262        0.2500000148        0.0501473985
H                0.6816400489        0.2499999857        0.4498495829
H                0.3183599811        0.7500000143        0.5501504171
H                0.6816400489        0.7500000143        0.5501504171
H                0.3183599811        0.2499999857        0.4498495829
H                0.8183585438        0.2500000148        0.0501473985
H                0.1816414262        0.7499999852        0.9498526015
H                0.5000000000        0.9316421362        0.1998522614
H                0.5000000000        0.0683578938        0.8001477386
H                0.0000000000        0.0683591946        0.6998508722
H                0.0000000000        0.9316408354        0.3001491278



     Writing config-only to output data dir ./iceVIII/iceVIII.save/ :
     XML data file
     NEW-OLD atomic charge density approx. for the potential

     total cpu time spent up to now is       92.6 secs

     per-process dynamical memory:    21.3 Mb

     Self-consistent Calculation

     iteration #  1     ecut=    90.00 Ry     beta= 0.70
     Davidson diagonalization with overlap
     ethr =  1.00E-06,  avg # of iterations =  3.0

     Threshold (ethr) on eigenvalues was too large:
     Diagonalizing with lowered threshold

     Davidson diagonalization with overlap
     ethr =  5.82E-08,  avg # of iterations =  3.5

     total cpu time spent up to now is       97.0 secs

     total energy              =    -275.83101904 Ry
     estimated scf accuracy    <       0.00004786 Ry

     iteration #  2     ecut=    90.00 Ry     beta= 0.70
     Davidson diagonalization with overlap
     ethr =  7.48E-08,  avg # of iterations =  2.0

     total cpu time spent up to now is       98.8 secs

     total energy              =    -275.83102715 Ry
     estimated scf accuracy    <       0.00000383 Ry

     iteration #  3     ecut=    90.00 Ry     beta= 0.70
     Davidson diagonalization with overlap
     ethr =  5.99E-09,  avg # of iterations =  2.0

     total cpu time spent up to now is      100.7 secs

     total energy              =    -275.83102799 Ry
     estimated scf accuracy    <       0.00000030 Ry

     iteration #  4     ecut=    90.00 Ry     beta= 0.70
     Davidson diagonalization with overlap
     ethr =  4.67E-10,  avg # of iterations =  2.0

     total cpu time spent up to now is      102.3 secs

     End of self-consistent calculation

     Number of k-points >= 100: set verbosity='high' to print the bands.

     highest occupied level (ev):     1.4497

!    total energy              =    -275.83102802 Ry
     estimated scf accuracy    <       0.00000002 Ry

     The total energy is the sum of the following terms:
     one-electron contribution =     -96.81909971 Ry
     hartree contribution      =      79.39579169 Ry
     xc contribution           =     -68.21175634 Ry
     ewald contribution        =    -190.19596367 Ry

     convergence has been achieved in   4 iterations

     Forces acting on atoms (cartesian axes, Ry/au):

     atom    1 type  2   force =     0.00000000   -0.00000002    0.00542213
     atom    2 type  2   force =     0.00000000    0.00000002   -0.00542213
     atom    3 type  2   force =     0.00000000   -0.00000005    0.00542324
     atom    4 type  2   force =     0.00000000    0.00000005   -0.00542324
     atom    5 type  2   force =    -0.00000000    0.00000003    0.00542146
     atom    6 type  2   force =    -0.00000000   -0.00000003   -0.00542146
     atom    7 type  2   force =     0.00000000    0.00000003    0.00542588
     atom    8 type  2   force =     0.00000000   -0.00000003   -0.00542588
     atom    9 type  1   force =     0.00000000    0.00116052    0.00199726
     atom   10 type  1   force =     0.00000000   -0.00116052   -0.00199726
     atom   11 type  1   force =     0.00000000   -0.00116903    0.00201197
     atom   12 type  1   force =     0.00000000    0.00116903   -0.00201197
     atom   13 type  1   force =    -0.00116072   -0.00000000    0.00200471
     atom   14 type  1   force =     0.00116072    0.00000000   -0.00200471
     atom   15 type  1   force =     0.00116998   -0.00000000    0.00200629
     atom   16 type  1   force =    -0.00116998    0.00000000   -0.00200629
     atom   17 type  1   force =     0.00116998    0.00000000   -0.00200629
     atom   18 type  1   force =    -0.00116998   -0.00000000    0.00200629
     atom   19 type  1   force =    -0.00116072    0.00000000   -0.00200471
     atom   20 type  1   force =     0.00116072   -0.00000000    0.00200471
     atom   21 type  1   force =     0.00000000    0.00116907    0.00201200
     atom   22 type  1   force =     0.00000000   -0.00116907   -0.00201200
     atom   23 type  1   force =     0.00000000   -0.00116051    0.00199725
     atom   24 type  1   force =     0.00000000    0.00116051   -0.00199725

     Total force =     0.017926     Total SCF correction =     0.000042


     Computing stress (Cartesian axis) and pressure

          total   stress  (Ry/bohr**3)                   (kbar)     P=      108.66
   0.00074478   0.00000000   0.00000000          109.56        0.00        0.00
   0.00000000   0.00074479   0.00000000            0.00      109.56        0.00
   0.00000000   0.00000000   0.00072643            0.00        0.00      106.86

     Energy error            =      6.2E-04 Ry
     Gradient error          =      5.4E-03 Ry/Bohr

     number of scf cycles    =   6
     number of bfgs steps    =   5

     energy             old  =    -275.8304071265 Ry
     energy             new  =    -275.8310280227 Ry

     CASE: energy            _new < energy            _old

     new trust radius        =       0.0074989374 bohr
     new conv_thr            =       0.0000000062 Ry


ATOMIC_POSITIONS (crystal)
O                0.0000000000        0.2499999996        0.6056615939
O                0.0000000000        0.7500000004        0.3943384351
O                0.5000000000        0.7499999924        0.1056680055
O                0.5000000000        0.2500000076        0.8943319655
O               -0.0000000000        0.7499999746        0.8556648843
O               -0.0000000000        0.2500000254        0.1443351447
O                0.5000000000        0.2499999735        0.3556633033
O                0.5000000000        0.7500000265        0.6443366677
H                0.0000000000        0.4321592203        0.7001674799
H                0.0000000000        0.5678407497        0.2998325201
H                0.5000000000        0.5678377300        0.2001706538
H                0.5000000000        0.4321622400        0.7998293462
H                0.8178396540        0.7499999846        0.9501704119
H                0.1821603160        0.2500000154        0.0498295881
H                0.6821599608        0.2499999851        0.4501670047
H                0.3178400692        0.7500000149        0.5498329953
H                0.6821599608        0.7500000149        0.5498329953
H                0.3178400692        0.2499999851        0.4501670047
H                0.8178396540        0.2500000154        0.0498295881
H                0.1821603160        0.7499999846        0.9501704119
H                0.5000000000        0.9321622649        0.2001706593
H                0.5000000000        0.0678377651        0.7998293407
H                0.0000000000        0.0678407808        0.7001674730
H                0.0000000000        0.9321592492        0.2998325270



     Writing config-only to output data dir ./iceVIII/iceVIII.save/ :
     XML data file
     NEW-OLD atomic charge density approx. for the potential

     total cpu time spent up to now is      103.9 secs

     per-process dynamical memory:    21.3 Mb

     Self-consistent Calculation

     iteration #  1     ecut=    90.00 Ry     beta= 0.70
     Davidson diagonalization with overlap
     ethr =  1.00E-06,  avg # of iterations =  3.1

     Threshold (ethr) on eigenvalues was too large:
     Diagonalizing with lowered threshold

     Davidson diagonalization with overlap
     ethr =  6.87E-08,  avg # of iterations =  2.8

     total cpu time spent up to now is      108.4 secs

     total energy              =    -275.83147091 Ry
     estimated scf accuracy    <       0.00005275 Ry

     iteration #  2     ecut=    90.00 Ry     beta= 0.70
     Davidson diagonalization with overlap
     ethr =  8.24E-08,  avg # of iterations =  2.0

     total cpu time spent up to now is      110.1 secs

     total energy              =    -275.83147942 Ry
     estimated scf accuracy    <       0.00000194 Ry

     iteration #  3     ecut=    90.00 Ry     beta= 0.70
     Davidson diagonalization with overlap
     ethr =  3.04E-09,  avg # of iterations =  2.3

     total cpu time spent up to now is      111.9 secs

     total energy              =    -275.83147977 Ry
     estimated scf accuracy    <       0.00000018 Ry

     iteration #  4     ecut=    90.00 Ry     beta= 0.70
     Davidson diagonalization with overlap
     ethr =  2.75E-10,  avg # of iterations =  2.7

     total cpu time spent up to now is      113.9 secs

     total energy              =    -275.83147981 Ry
     estimated scf accuracy    <       0.00000002 Ry

     iteration #  5     ecut=    90.00 Ry     beta= 0.70
     Davidson diagonalization with overlap
     ethr =  2.86E-11,  avg # of iterations =  2.4

     total cpu time spent up to now is      115.9 secs

     End of self-consistent calculation

     Number of k-points >= 100: set verbosity='high' to print the bands.

     highest occupied level (ev):     1.4551

!    total energy              =    -275.83147981 Ry
     estimated scf accuracy    <          5.5E-10 Ry

     The total energy is the sum of the following terms:
     one-electron contribution =     -96.67399991 Ry
     hartree contribution      =      79.32927370 Ry
     xc contribution           =     -68.20419760 Ry
     ewald contribution        =    -190.28255601 Ry

     convergence has been achieved in   5 iterations

     Forces acting on atoms (cartesian axes, Ry/au):

     atom    1 type  2   force =     0.00000000    0.00000002    0.00429514
     atom    2 type  2   force =     0.00000000   -0.00000002   -0.00429514
     atom    3 type  2   force =    -0.00000000    0.00000006    0.00430040
     atom    4 type  2   force =    -0.00000000   -0.00000006   -0.00430040
     atom    5 type  2   force =     0.00000000    0.00000002    0.00430173
     atom    6 type  2   force =     0.00000000   -0.00000002   -0.00430173
     atom    7 type  2   force =     0.00000000    0.00000002    0.00429684
     atom    8 type  2   force =     0.00000000   -0.00000002   -0.00429684
     atom    9 type  1   force =     0.00000000   -0.00027133    0.00224207
     atom   10 type  1   force =     0.00000000    0.00027133   -0.00224207
     atom   11 type  1   force =     0.00000000    0.00027457    0.00224790
     atom   12 type  1   force =     0.00000000   -0.00027457   -0.00224790
     atom   13 type  1   force =     0.00027832   -0.00000000    0.00224209
     atom   14 type  1   force =    -0.00027832    0.00000000   -0.00224209
     atom   15 type  1   force =    -0.00026750    0.00000000    0.00224896
     atom   16 type  1   force =     0.00026750   -0.00000000   -0.00224896
     atom   17 type  1   force =    -0.00026750   -0.00000000   -0.00224896
     atom   18 type  1   force =     0.00026750    0.00000000    0.00224896
     atom   19 type  1   force =     0.00027832    0.00000000   -0.00224209
     atom   20 type  1   force =    -0.00027832   -0.00000000    0.00224209
     atom   21 type  1   force =     0.00000000   -0.00027462    0.00224786
     atom   22 type  1   force =     0.00000000    0.00027462   -0.00224786
     atom   23 type  1   force =     0.00000000    0.00027131    0.00224208
     atom   24 type  1   force =     0.00000000   -0.00027131   -0.00224208

     Total force =     0.015155     Total SCF correction =     0.000049


     Computing stress (Cartesian axis) and pressure

          total   stress  (Ry/bohr**3)                   (kbar)     P=      106.35
   0.00072393   0.00000000   0.00000000          106.49        0.00        0.00
   0.00000000   0.00072395  -0.00000000            0.00      106.50       -0.00
   0.00000000  -0.00000000   0.00072094            0.00       -0.00      106.05

     Energy error            =      4.5E-04 Ry
     Gradient error          =      4.3E-03 Ry/Bohr

     number of scf cycles    =   7
     number of bfgs steps    =   6

     energy             old  =    -275.8310280227 Ry
     energy             new  =    -275.8314798141 Ry

     CASE: energy            _new < energy            _old

     new trust radius        =       0.0112484062 bohr
     new conv_thr            =       0.0000000045 Ry


ATOMIC_POSITIONS (crystal)
O                0.0000000000        0.2500000031        0.6065972081
O                0.0000000000        0.7499999969        0.3934028209
O                0.5000000000        0.7500000040        0.1066057993
O                0.5000000000        0.2499999960        0.8933941717
O               -0.0000000000        0.7499999832        0.8566015091
O               -0.0000000000        0.2500000168        0.1433985199
O                0.5000000000        0.2499999816        0.3566007040
O                0.5000000000        0.7500000184        0.6433992670
H                0.0000000000        0.4327261027        0.7007471668
H                0.0000000000        0.5672738673        0.2992528332
H                0.5000000000        0.5672704459        0.2007521084
H                0.5000000000        0.4327295241        0.7992478916
H                0.8172737922        0.7499999839        0.9507509376
H                0.1827261778        0.2500000161        0.0492490624
H                0.6827284720        0.2499999846        0.4507479190
H                0.3172715580        0.7500000154        0.5492520810
H                0.6827284720        0.7500000154        0.5492520810
H                0.3172715580        0.2499999846        0.4507479190
H                0.8172737922        0.2500000161        0.0492490624
H                0.1827261778        0.7499999839        0.9507509376
H                0.5000000000        0.9327295387        0.2007521093
H                0.5000000000        0.0672704913        0.7992478907
H                0.0000000000        0.0672738934        0.7007471623
H                0.0000000000        0.9327261366        0.2992528377



     Writing config-only to output data dir ./iceVIII/iceVIII.save/ :
     XML data file
     NEW-OLD atomic charge density approx. for the potential

     total cpu time spent up to now is      117.5 secs

     per-process dynamical memory:    21.3 Mb

     Self-consistent Calculation

     iteration #  1     ecut=    90.00 Ry     beta= 0.70
     Davidson diagonalization with overlap
     ethr =  1.00E-06,  avg # of iterations =  4.0

     total cpu time spent up to now is      120.4 secs

     total energy              =    -275.83195954 Ry
     estimated scf accuracy    <       0.00010359 Ry

     iteration #  2     ecut=    90.00 Ry     beta= 0.70
     Davidson diagonalization with overlap
     ethr =  1.62E-07,  avg # of iterations =  2.6

     total cpu time spent up to now is      122.3 secs

     total energy              =    -275.83198335 Ry
     estimated scf accuracy    <       0.00000492 Ry

     iteration #  3     ecut=    90.00 Ry     beta= 0.70
     Davidson diagonalization with overlap
     ethr =  7.68E-09,  avg # of iterations =  3.3

     total cpu time spent up to now is      124.5 secs

     total energy              =    -275.83198468 Ry
     estimated scf accuracy    <       0.00000041 Ry

     iteration #  4     ecut=    90.00 Ry     beta= 0.70
     Davidson diagonalization with overlap
     ethr =  6.46E-10,  avg # of iterations =  3.6

     total cpu time spent up to now is      126.6 secs

     total energy              =    -275.83198479 Ry
     estimated scf accuracy    <       0.00000003 Ry

     iteration #  5     ecut=    90.00 Ry     beta= 0.70
     Davidson diagonalization with overlap
     ethr =  5.07E-11,  avg # of iterations =  2.9

     total cpu time spent up to now is      128.7 secs

     End of self-consistent calculation

     Number of k-points >= 100: set verbosity='high' to print the bands.

     highest occupied level (ev):     1.4626

!    total energy              =    -275.83198480 Ry
     estimated scf accuracy    <          2.2E-09 Ry

     The total energy is the sum of the following terms:
     one-electron contribution =     -96.48771973 Ry
     hartree contribution      =      79.24139874 Ry
     xc contribution           =     -68.19612130 Ry
     ewald contribution        =    -190.38954252 Ry

     convergence has been achieved in   5 iterations

     Forces acting on atoms (cartesian axes, Ry/au):

     atom    1 type  2   force =     0.00000000   -0.00000004    0.00264193
     atom    2 type  2   force =     0.00000000    0.00000004   -0.00264193
     atom    3 type  2   force =     0.00000000   -0.00000011    0.00262346
     atom    4 type  2   force =     0.00000000    0.00000011   -0.00262346
     atom    5 type  2   force =     0.00000000    0.00000001    0.00263147
     atom    6 type  2   force =     0.00000000   -0.00000001   -0.00263147
     atom    7 type  2   force =     0.00000000    0.00000002    0.00263376
     atom    8 type  2   force =     0.00000000   -0.00000002   -0.00263376
     atom    9 type  1   force =     0.00000000   -0.00174287    0.00257431
     atom   10 type  1   force =     0.00000000    0.00174287   -0.00257431
     atom   11 type  1   force =     0.00000000    0.00174618    0.00258113
     atom   12 type  1   force =     0.00000000   -0.00174618   -0.00258113
     atom   13 type  1   force =     0.00174368    0.00000001    0.00257737
     atom   14 type  1   force =    -0.00174368   -0.00000001   -0.00257737
     atom   15 type  1   force =    -0.00174469    0.00000001    0.00257996
     atom   16 type  1   force =     0.00174469   -0.00000001   -0.00257996
     atom   17 type  1   force =    -0.00174469   -0.00000001   -0.00257996
     atom   18 type  1   force =     0.00174469    0.00000001    0.00257996
     atom   19 type  1   force =     0.00174368   -0.00000001   -0.00257737
     atom   20 type  1   force =    -0.00174368    0.00000001    0.00257737
     atom   21 type  1   force =     0.00000000   -0.00174608    0.00258120
     atom   22 type  1   force =     0.00000000    0.00174608   -0.00258120
     atom   23 type  1   force =     0.00000000    0.00174290    0.00257430
     atom   24 type  1   force =     0.00000000   -0.00174290   -0.00257430

     Total force =     0.014508     Total SCF correction =     0.000161


     Computing stress (Cartesian axis) and pressure

          total   stress  (Ry/bohr**3)                   (kbar)     P=      103.62
   0.00069959   0.00000000   0.00000000          102.91        0.00        0.00
   0.00000000   0.00069961   0.00000000            0.00      102.92        0.00
   0.00000000   0.00000000   0.00071393            0.00        0.00      105.02

     Energy error            =      5.0E-04 Ry
     Gradient error          =      2.6E-03 Ry/Bohr

     number of scf cycles    =   8
     number of bfgs steps    =   7

     energy             old  =    -275.8314798141 Ry
     energy             new  =    -275.8319847990 Ry

     CASE: energy            _new < energy            _old

     new trust radius        =       0.0168726092 bohr
     new conv_thr            =       0.0000000050 Ry


ATOMIC_POSITIONS (crystal)
O                0.0000000000        0.2499999953        0.6080025371
O                0.0000000000        0.7500000047        0.3919974919
O                0.5000000000        0.7499999860        0.1080115509
O                0.5000000000        0.2500000140        0.8919884201
O                0.0000000000        0.7499999959        0.8580065300
O                0.0000000000        0.2500000041        0.1419934990
O                0.5000000000        0.2499999955        0.3580073948
O                0.5000000000        0.7500000045        0.6419925762
H                0.0000000000        0.4333104495        0.7017991345
H                0.0000000000        0.5666895205        0.2982008655
H                0.5000000000        0.5666855790        0.2018072471
H                0.5000000000        0.4333143910        0.7981927529
H                0.8166902927        0.7499999843        0.9518045915
H                0.1833096773        0.2500000157        0.0481954085
H                0.6833146425        0.2499999849        0.4518020000
H                0.3166853875        0.7500000151        0.5481980000
H                0.6833146425        0.7500000151        0.5481980000
H                0.3166853875        0.2499999849        0.4518020000
H                0.8166902927        0.2500000157        0.0481954085
H                0.1833096773        0.7499999843        0.9518045915
H                0.5000000000        0.9333144202        0.2018072552
H                0.5000000000        0.0666856098        0.7981927448
H                0.0000000000        0.0666895497        0.7017991290
H                0.0000000000        0.9333104803        0.2982008710



     Writing config-only to output data dir ./iceVIII/iceVIII.save/ :
     XML data file
     NEW-OLD atomic charge density approx. for the potential

     total cpu time spent up to now is      130.3 secs

     per-process dynamical memory:    21.3 Mb

     Self-consistent Calculation

     iteration #  1     ecut=    90.00 Ry     beta= 0.70
     Davidson diagonalization with overlap
     ethr =  1.00E-06,  avg # of iterations =  5.0

     total cpu time spent up to now is      133.4 secs

     total energy              =    -275.83250800 Ry
     estimated scf accuracy    <       0.00025543 Ry

     iteration #  2     ecut=    90.00 Ry     beta= 0.70
     Davidson diagonalization with overlap
     ethr =  3.99E-07,  avg # of iterations =  2.0

     total cpu time spent up to now is      135.2 secs

     total energy              =    -275.83255125 Ry
     estimated scf accuracy    <       0.00001291 Ry

     iteration #  3     ecut=    90.00 Ry     beta= 0.70
     Davidson diagonalization with overlap
     ethr =  2.02E-08,  avg # of iterations =  2.1

     total cpu time spent up to now is      137.2 secs

     total energy              =    -275.83255401 Ry
     estimated scf accuracy    <       0.00000184 Ry

     iteration #  4     ecut=    90.00 Ry     beta= 0.70
     Davidson diagonalization with overlap
     ethr =  2.88E-09,  avg # of iterations =  2.1

     total cpu time spent up to now is      139.2 secs

     total energy              =    -275.83255441 Ry
     estimated scf accuracy    <       0.00000017 Ry

     iteration #  5     ecut=    90.00 Ry     beta= 0.70
     Davidson diagonalization with overlap
     ethr =  2.58E-10,  avg # of iterations =  2.0

     total cpu time spent up to now is      140.9 secs

     total energy              =    -275.83255442 Ry
     estimated scf accuracy    <       0.00000002 Ry

     iteration #  6     ecut=    90.00 Ry     beta= 0.70
     Davidson diagonalization with overlap
     ethr =  2.39E-11,  avg # of iterations =  2.7

     total cpu time spent up to now is      142.9 secs

     End of self-consistent calculation

     Number of k-points >= 100: set verbosity='high' to print the bands.

     highest occupied level (ev):     1.4734

!    total energy              =    -275.83255443 Ry
     estimated scf accuracy    <          1.1E-09 Ry

     The total energy is the sum of the following terms:
     one-electron contribution =     -96.23573804 Ry
     hartree contribution      =      79.12130730 Ry
     xc contribution           =     -68.18661807 Ry
     ewald contribution        =    -190.53150561 Ry

     convergence has been achieved in   6 iterations

     Forces acting on atoms (cartesian axes, Ry/au):

     atom    1 type  2   force =     0.00000000    0.00000005    0.00059275
     atom    2 type  2   force =     0.00000000   -0.00000005   -0.00059275
     atom    3 type  2   force =    -0.00000000    0.00000016    0.00057774
     atom    4 type  2   force =    -0.00000000   -0.00000016   -0.00057774
     atom    5 type  2   force =     0.00000000   -0.00000001    0.00059334
     atom    6 type  2   force =     0.00000000    0.00000001   -0.00059334
     atom    7 type  2   force =     0.00000000   -0.00000002    0.00057921
     atom    8 type  2   force =     0.00000000    0.00000002   -0.00057921
     atom    9 type  1   force =     0.00000000   -0.00323133    0.00282824
     atom   10 type  1   force =     0.00000000    0.00323133   -0.00282824
     atom   11 type  1   force =     0.00000000    0.00324628    0.00282211
     atom   12 type  1   force =     0.00000000   -0.00324628   -0.00282211
     atom   13 type  1   force =     0.00323409    0.00000001    0.00282458
     atom   14 type  1   force =    -0.00323409   -0.00000001   -0.00282458
     atom   15 type  1   force =    -0.00324492    0.00000001    0.00282629
     atom   16 type  1   force =     0.00324492   -0.00000001   -0.00282629
     atom   17 type  1   force =    -0.00324492   -0.00000001   -0.00282629
     atom   18 type  1   force =     0.00324492    0.00000001    0.00282629
     atom   19 type  1   force =     0.00323409   -0.00000001   -0.00282458
     atom   20 type  1   force =    -0.00323409    0.00000001    0.00282458
     atom   21 type  1   force =     0.00000000   -0.00324641    0.00282201
     atom   22 type  1   force =     0.00000000    0.00324641   -0.00282201
     atom   23 type  1   force =     0.00000000    0.00323128    0.00282828
     atom   24 type  1   force =     0.00000000   -0.00323128   -0.00282828

     Total force =     0.017272     Total SCF correction =     0.000012


     Computing stress (Cartesian axis) and pressure

          total   stress  (Ry/bohr**3)                   (kbar)     P=      100.44
   0.00067235   0.00000000   0.00000000           98.91        0.00        0.00
   0.00000000   0.00067238  -0.00000000            0.00       98.91       -0.00
   0.00000000  -0.00000000   0.00070369            0.00       -0.00      103.52

     Energy error            =      5.7E-04 Ry
     Gradient error          =      3.2E-03 Ry/Bohr

     number of scf cycles    =   9
     number of bfgs steps    =   8

     energy             old  =    -275.8319847990 Ry
     energy             new  =    -275.8325544261 Ry

     CASE: energy            _new < energy            _old

     new trust radius        =       0.0243914090 bohr
     new conv_thr            =       0.0000000057 Ry


ATOMIC_POSITIONS (crystal)
O                0.0000000000        0.2500000061        0.6100341399
O                0.0000000000        0.7499999939        0.3899658891
O                0.5000000000        0.7500000218        0.1100443963
O                0.5000000000        0.2499999782        0.8899555747
O                0.0000000000        0.7500000126        0.8600400726
O                0.0000000000        0.2499999874        0.1399599564
O                0.5000000000        0.2500000106        0.3600397837
O                0.5000000000        0.7499999894        0.6399601873
H                0.0000000000        0.4337415041        0.7036200936
H                0.0000000000        0.5662584659        0.2963799064
H                0.5000000000        0.5662569612        0.2036311718
H                0.5000000000        0.4337430088        0.7963688282
H                0.8162616825        0.7499999852        0.9536268911
H                0.1837382875        0.2500000148        0.0463731089
H                0.6837458984        0.2499999861        0.4536254018
H                0.3162541316        0.7500000139        0.5463745982
H                0.6837458984        0.7500000139        0.5463745982
H                0.3162541316        0.2499999861        0.4536254018
H                0.8162616825        0.2500000148        0.0463731089
H                0.1837382875        0.7499999852        0.9536268911
H                0.5000000000        0.9337430065        0.2036311639
H                0.5000000000        0.0662570235        0.7963688361
H                0.0000000000        0.0662584807        0.7036200967
H                0.0000000000        0.9337415493        0.2963799033



     Writing config-only to output data dir ./iceVIII/iceVIII.save/ :
     XML data file
     NEW-OLD atomic charge density approx. for the potential

     total cpu time spent up to now is      144.5 secs

     per-process dynamical memory:    21.3 Mb

     Self-consistent Calculation

     iteration #  1     ecut=    90.00 Ry     beta= 0.70
     Davidson diagonalization with overlap
     ethr =  1.00E-06,  avg # of iterations =  5.3

     total cpu time spent up to now is      148.1 secs

     total energy              =    -275.83311347 Ry
     estimated scf accuracy    <       0.00057617 Ry

     iteration #  2     ecut=    90.00 Ry     beta= 0.70
     Davidson diagonalization with overlap
     ethr =  9.00E-07,  avg # of iterations =  2.0

     total cpu time spent up to now is      149.9 secs

     total energy              =    -275.83320485 Ry
     estimated scf accuracy    <       0.00002397 Ry

     iteration #  3     ecut=    90.00 Ry     beta= 0.70
     Davidson diagonalization with overlap
     ethr =  3.74E-08,  avg # of iterations =  2.5

     total cpu time spent up to now is      151.7 secs

     total energy              =    -275.83320946 Ry
     estimated scf accuracy    <       0.00000197 Ry

     iteration #  4     ecut=    90.00 Ry     beta= 0.70
     Davidson diagonalization with overlap
     ethr =  3.07E-09,  avg # of iterations =  3.5

     total cpu time spent up to now is      153.7 secs

     total energy              =    -275.83320985 Ry
     estimated scf accuracy    <       0.00000004 Ry

     iteration #  5     ecut=    90.00 Ry     beta= 0.70
     Davidson diagonalization with overlap
     ethr =  6.66E-11,  avg # of iterations =  5.0

     total cpu time spent up to now is      156.4 secs

     total energy              =    -275.83320989 Ry
     estimated scf accuracy    <          8.3E-09 Ry

     iteration #  6     ecut=    90.00 Ry     beta= 0.70
     Davidson diagonalization with overlap
     ethr =  1.29E-11,  avg # of iterations =  2.0

     total cpu time spent up to now is      158.4 secs

     End of self-consistent calculation

     Number of k-points >= 100: set verbosity='high' to print the bands.

     highest occupied level (ev):     1.4885

!    total energy              =    -275.83320989 Ry
     estimated scf accuracy    <          7.3E-10 Ry

     The total energy is the sum of the following terms:
     one-electron contribution =     -95.92486823 Ry
     hartree contribution      =      78.97179518 Ry
     xc contribution           =     -68.17697458 Ry
     ewald contribution        =    -190.70316227 Ry

     convergence has been achieved in   6 iterations

     Forces acting on atoms (cartesian axes, Ry/au):

     atom    1 type  2   force =     0.00000000   -0.00000014   -0.00158001
     atom    2 type  2   force =     0.00000000    0.00000014    0.00158001
     atom    3 type  2   force =     0.00000000   -0.00000038   -0.00159480
     atom    4 type  2   force =     0.00000000    0.00000038    0.00159480
     atom    5 type  2   force =     0.00000000   -0.00000003   -0.00157882
     atom    6 type  2   force =     0.00000000    0.00000003    0.00157882
     atom    7 type  2   force =     0.00000000   -0.00000001   -0.00159816
     atom    8 type  2   force =     0.00000000    0.00000001    0.00159816
     atom    9 type  1   force =     0.00000000   -0.00432687    0.00273321
     atom   10 type  1   force =     0.00000000    0.00432687   -0.00273321
     atom   11 type  1   force =     0.00000000    0.00433625    0.00272482
     atom   12 type  1   force =     0.00000000   -0.00433625   -0.00272482
     atom   13 type  1   force =     0.00431544    0.00000002    0.00273581
     atom   14 type  1   force =    -0.00431544   -0.00000002   -0.00273581
     atom   15 type  1   force =    -0.00434787    0.00000002    0.00272452
     atom   16 type  1   force =     0.00434787   -0.00000002   -0.00272452
     atom   17 type  1   force =    -0.00434787   -0.00000002   -0.00272452
     atom   18 type  1   force =     0.00434787    0.00000002    0.00272452
     atom   19 type  1   force =     0.00431544   -0.00000002   -0.00273581
     atom   20 type  1   force =    -0.00431544    0.00000002    0.00273581
     atom   21 type  1   force =     0.00000000   -0.00433592    0.00272503
     atom   22 type  1   force =     0.00000000    0.00433592   -0.00272503
     atom   23 type  1   force =     0.00000000    0.00432698    0.00273315
     atom   24 type  1   force =     0.00000000   -0.00432698   -0.00273315

     Total force =     0.020966     Total SCF correction =     0.000088


     Computing stress (Cartesian axis) and pressure

          total   stress  (Ry/bohr**3)                   (kbar)     P=       97.40
   0.00064819   0.00000000   0.00000000           95.35        0.00        0.00
   0.00000000   0.00064819   0.00000000            0.00       95.35        0.00
   0.00000000   0.00000000   0.00068998            0.00        0.00      101.50

     Energy error            =      6.6E-04 Ry
     Gradient error          =      4.3E-03 Ry/Bohr

     number of scf cycles    =  10
     number of bfgs steps    =   9

     energy             old  =    -275.8325544261 Ry
     energy             new  =    -275.8332098928 Ry

     CASE: energy            _new < energy            _old

     new trust radius        =       0.0240519338 bohr
     new conv_thr            =       0.0000000066 Ry


ATOMIC_POSITIONS (crystal)
O                0.0000000000        0.2499999829        0.6118503751
O                0.0000000000        0.7500000171        0.3881496539
O                0.5000000000        0.7499999625        0.1118617594
O                0.5000000000        0.2500000375        0.8881382116
O                0.0000000000        0.7500000248        0.8618594444
O                0.0000000000        0.2499999752        0.1381405846
O                0.5000000000        0.2500000265        0.3618551293
O                0.5000000000        0.7499999735        0.6381448417
H                0.0000000000        0.4336156380        0.7056211899
H                0.0000000000        0.5663843320        0.2943788101
H                0.5000000000        0.5663856683        0.2056344052
H                0.5000000000        0.4336143017        0.7943655948
H                0.8163878897        0.7499999900        0.9556296820
H                0.1836120803        0.2500000100        0.0443703180
H                0.6836177964        0.2499999904        0.4556280310
H                0.3163822336        0.7500000096        0.5443719690
H                0.6836177964        0.7500000096        0.5443719690
H                0.3163822336        0.2499999904        0.4556280310
H                0.8163878897        0.2500000100        0.0443703180
H                0.1836120803        0.7499999900        0.9556296820
H                0.5000000000        0.9336143491        0.2056344186
H                0.5000000000        0.0663856809        0.7943655814
H                0.0000000000        0.0663843617        0.7056211888
H                0.0000000000        0.9336156683        0.2943788112



     Writing config-only to output data dir ./iceVIII/iceVIII.save/ :
     XML data file
     NEW-OLD atomic charge density approx. for the potential

     total cpu time spent up to now is      159.9 secs

     per-process dynamical memory:    21.7 Mb

     Self-consistent Calculation

     iteration #  1     ecut=    90.00 Ry     beta= 0.70
     Davidson diagonalization with overlap
     ethr =  1.00E-06,  avg # of iterations =  5.0

     total cpu time spent up to now is      163.5 secs

     total energy              =    -275.83375983 Ry
     estimated scf accuracy    <       0.00048854 Ry

     iteration #  2     ecut=    90.00 Ry     beta= 0.70
     Davidson diagonalization with overlap
     ethr =  7.63E-07,  avg # of iterations =  2.0

     total cpu time spent up to now is      165.2 secs

     total energy              =    -275.83383628 Ry
     estimated scf accuracy    <       0.00002348 Ry

     iteration #  3     ecut=    90.00 Ry     beta= 0.70
     Davidson diagonalization with overlap
     ethr =  3.67E-08,  avg # of iterations =  2.2

     total cpu time spent up to now is      167.0 secs

     total energy              =    -275.83384054 Ry
     estimated scf accuracy    <       0.00000188 Ry

     iteration #  4     ecut=    90.00 Ry     beta= 0.70
     Davidson diagonalization with overlap
[...]
     atom    9 type  1   force =     0.00000000   -0.00206434    0.00074724
     atom   10 type  1   force =     0.00000000    0.00206434   -0.00074724
     atom   11 type  1   force =     0.00000000    0.00204564    0.00075153
     atom   12 type  1   force =     0.00000000   -0.00204564   -0.00075153
     atom   13 type  1   force =     0.00204980    0.00000003    0.00075855
     atom   14 type  1   force =    -0.00204980   -0.00000003   -0.00075855
     atom   15 type  1   force =    -0.00206060    0.00000002    0.00074296
     atom   16 type  1   force =     0.00206060   -0.00000002   -0.00074296
     atom   17 type  1   force =    -0.00206060   -0.00000002   -0.00074296
     atom   18 type  1   force =     0.00206060    0.00000002    0.00074296
     atom   19 type  1   force =     0.00204980   -0.00000003   -0.00075855
     atom   20 type  1   force =    -0.00204980    0.00000003    0.00075855
     atom   21 type  1   force =     0.00000000   -0.00204481    0.00075211
     atom   22 type  1   force =     0.00000000    0.00204481   -0.00075211
     atom   23 type  1   force =     0.00000000    0.00206464    0.00074704
     atom   24 type  1   force =     0.00000000   -0.00206464   -0.00074704

     Total force =     0.010222     Total SCF correction =     0.000077


     Computing stress (Cartesian axis) and pressure

          total   stress  (Ry/bohr**3)                   (kbar)     P=       97.82
   0.00066342   0.00000000   0.00000000           97.59        0.00        0.00
   0.00000000   0.00066338   0.00000000            0.00       97.59        0.00
   0.00000000   0.00000000   0.00066813            0.00        0.00       98.29

     Energy error            =      5.6E-04 Ry
     Gradient error          =      2.1E-03 Ry/Bohr

     number of scf cycles    =  12
     number of bfgs steps    =  11

     energy             old  =    -275.8338409708 Ry
     energy             new  =    -275.8344059475 Ry

     CASE: energy            _new < energy            _old

     new trust radius        =       0.0065804045 bohr
     new conv_thr            =       0.0000000056 Ry


ATOMIC_POSITIONS (crystal)
O               -0.0000000000        0.2499999612        0.6131493446
O               -0.0000000000        0.7500000388        0.3868506844
O                0.5000000000        0.7499999064        0.1131633760
O                0.5000000000        0.2500000936        0.8868365950
O                0.0000000000        0.7500000201        0.8631629312
O                0.0000000000        0.2499999799        0.1368370978
O                0.5000000000        0.2500000255        0.3631518788
O                0.5000000000        0.7499999745        0.6368480922
H                0.0000000000        0.4322196507        0.7079959115
H                0.0000000000        0.5677803193        0.2920040885
H                0.5000000000        0.5677807470        0.2080104533
H                0.5000000000        0.4322192230        0.7919895467
H                0.8177789357        0.7500000006        0.9580078988
H                0.1822210343        0.2499999994        0.0419921012
H                0.6822172498        0.2500000002        0.4580020929
H                0.3177827802        0.7499999998        0.5419979071
H                0.6822172498        0.7499999998        0.5419979071
H                0.3177827802        0.2500000002        0.4580020929
H                0.8177789357        0.2499999994        0.0419921012
H                0.1822210343        0.7500000006        0.9580078988
H                0.5000000000        0.9322193190        0.2080104846
H                0.5000000000        0.0677807110        0.7919895154
H                0.0000000000        0.0677803651        0.7079959083
H                0.0000000000        0.9322196649        0.2920040917



     Writing config-only to output data dir ./iceVIII/iceVIII.save/ :
     XML data file
     NEW-OLD atomic charge density approx. for the potential

     total cpu time spent up to now is      190.2 secs

     per-process dynamical memory:    21.7 Mb

     Self-consistent Calculation

     iteration #  1     ecut=    90.00 Ry     beta= 0.70
     Davidson diagonalization with overlap
     ethr =  1.00E-06,  avg # of iterations =  2.0

     Threshold (ethr) on eigenvalues was too large:
     Diagonalizing with lowered threshold

     Davidson diagonalization with overlap
     ethr =  1.27E-08,  avg # of iterations =  3.5

     total cpu time spent up to now is      194.2 secs

     total energy              =    -275.83454837 Ry
     estimated scf accuracy    <       0.00000842 Ry

     iteration #  2     ecut=    90.00 Ry     beta= 0.70
     Davidson diagonalization with overlap
     ethr =  1.32E-08,  avg # of iterations =  1.0

     total cpu time spent up to now is      195.6 secs

     total energy              =    -275.83454938 Ry
     estimated scf accuracy    <       0.00000066 Ry

     iteration #  3     ecut=    90.00 Ry     beta= 0.70
     Davidson diagonalization with overlap
     ethr =  1.03E-09,  avg # of iterations =  2.0

     total cpu time spent up to now is      197.3 secs

     total energy              =    -275.83454948 Ry
     estimated scf accuracy    <       0.00000002 Ry

     iteration #  4     ecut=    90.00 Ry     beta= 0.70
     Davidson diagonalization with overlap
     ethr =  3.51E-11,  avg # of iterations =  3.0

     total cpu time spent up to now is      199.5 secs

     End of self-consistent calculation

     Number of k-points >= 100: set verbosity='high' to print the bands.

     highest occupied level (ev):     1.5054

!    total energy              =    -275.83454948 Ry
     estimated scf accuracy    <          2.9E-09 Ry

     The total energy is the sum of the following terms:
     one-electron contribution =     -95.66904240 Ry
     hartree contribution      =      78.83246559 Ry
     xc contribution           =     -68.18222639 Ry
     ewald contribution        =    -190.81574629 Ry

     convergence has been achieved in   4 iterations

     Forces acting on atoms (cartesian axes, Ry/au):

     atom    1 type  2   force =     0.00000000    0.00000045   -0.00060683
     atom    2 type  2   force =     0.00000000   -0.00000045    0.00060683
     atom    3 type  2   force =     0.00000000    0.00000129   -0.00059423
     atom    4 type  2   force =     0.00000000   -0.00000129    0.00059423
     atom    5 type  2   force =    -0.00000000   -0.00000003   -0.00059487
     atom    6 type  2   force =    -0.00000000    0.00000003    0.00059487
     atom    7 type  2   force =    -0.00000000   -0.00000010   -0.00059862
     atom    8 type  2   force =    -0.00000000    0.00000010    0.00059862
     atom    9 type  1   force =     0.00000000   -0.00046378    0.00008197
     atom   10 type  1   force =     0.00000000    0.00046378   -0.00008197
     atom   11 type  1   force =     0.00000000    0.00046059    0.00007549
     atom   12 type  1   force =     0.00000000   -0.00046059   -0.00007549
     atom   13 type  1   force =     0.00046775   -0.00000002    0.00008030
     atom   14 type  1   force =    -0.00046775    0.00000002   -0.00008030
     atom   15 type  1   force =    -0.00046279   -0.00000001    0.00007216
     atom   16 type  1   force =     0.00046279    0.00000001   -0.00007216
     atom   17 type  1   force =    -0.00046279    0.00000001   -0.00007216
     atom   18 type  1   force =     0.00046279   -0.00000001    0.00007216
     atom   19 type  1   force =     0.00046775    0.00000002   -0.00008030
     atom   20 type  1   force =    -0.00046775   -0.00000002    0.00008030
     atom   21 type  1   force =     0.00000000   -0.00046170    0.00007470
     atom   22 type  1   force =     0.00000000    0.00046170   -0.00007470
     atom   23 type  1   force =     0.00000000    0.00046340    0.00008224
     atom   24 type  1   force =     0.00000000   -0.00046340   -0.00008224

     Total force =     0.002531     Total SCF correction =     0.000082


     Computing stress (Cartesian axis) and pressure

          total   stress  (Ry/bohr**3)                   (kbar)     P=       99.74
   0.00068365   0.00000000   0.00000000          100.57        0.00        0.00
   0.00000000   0.00068371  -0.00000000            0.00      100.58       -0.00
   0.00000000  -0.00000000   0.00066673            0.00       -0.00       98.08

     Energy error            =      1.4E-04 Ry
     Gradient error          =      6.1E-04 Ry/Bohr

     number of scf cycles    =  13
     number of bfgs steps    =  12

     energy             old  =    -275.8344059475 Ry
     energy             new  =    -275.8345494849 Ry

     CASE: energy            _new < energy            _old

     new trust radius        =       0.0039768323 bohr
     new conv_thr            =       0.0000000014 Ry


ATOMIC_POSITIONS (crystal)
O               -0.0000000000        0.2500000260        0.6128177911
O               -0.0000000000        0.7499999740        0.3871822379
O                0.5000000000        0.7500000903        0.1128328639
O                0.5000000000        0.2499999097        0.8871671071
O                0.0000000000        0.7500000132        0.8628324242
O                0.0000000000        0.2499999868        0.1371676048
O                0.5000000000        0.2500000077        0.3628208246
O                0.5000000000        0.7499999923        0.6371791464
H                0.0000000000        0.4320416618        0.7077754721
H                0.0000000000        0.5679583082        0.2922245279
H                0.5000000000        0.5679580113        0.2077888858
H                0.5000000000        0.4320419587        0.7922111142
H                0.8179573477        0.7499999981        0.9577870252
H                0.1820426223        0.2500000019        0.0422129748
H                0.6820394152        0.2499999990        0.4577803274
H                0.3179606148        0.7500000010        0.5422196726
H                0.6820394152        0.7500000010        0.5422196726
H                0.3179606148        0.2499999990        0.4577803274
H                0.8179573477        0.2500000019        0.0422129748
H                0.1820426223        0.7499999981        0.9577870252
H                0.5000000000        0.9320418957        0.2077888384
H                0.5000000000        0.0679581343        0.7922111616
H                0.0000000000        0.0679582995        0.7077754957
H                0.0000000000        0.9320417305        0.2922245043



     Writing config-only to output data dir ./iceVIII/iceVIII.save/ :
     XML data file
     NEW-OLD atomic charge density approx. for the potential

     total cpu time spent up to now is      201.0 secs

     per-process dynamical memory:    21.7 Mb

     Self-consistent Calculation

     iteration #  1     ecut=    90.00 Ry     beta= 0.70
     Davidson diagonalization with overlap
     ethr =  1.00E-06,  avg # of iterations =  3.0

     Threshold (ethr) on eigenvalues was too large:
     Diagonalizing with lowered threshold

     Davidson diagonalization with overlap
     ethr =  1.69E-08,  avg # of iterations =  3.1

     total cpu time spent up to now is      205.6 secs

     total energy              =    -275.83456155 Ry
     estimated scf accuracy    <       0.00001481 Ry

     iteration #  2     ecut=    90.00 Ry     beta= 0.70
     Davidson diagonalization with overlap
     ethr =  2.31E-08,  avg # of iterations =  2.0

     total cpu time spent up to now is      207.4 secs

     total energy              =    -275.83456397 Ry
     estimated scf accuracy    <       0.00000058 Ry

     iteration #  3     ecut=    90.00 Ry     beta= 0.70
     Davidson diagonalization with overlap
     ethr =  9.00E-10,  avg # of iterations =  2.1

     total cpu time spent up to now is      209.1 secs

     total energy              =    -275.83456406 Ry
     estimated scf accuracy    <       0.00000005 Ry

     iteration #  4     ecut=    90.00 Ry     beta= 0.70
     Davidson diagonalization with overlap
     ethr =  7.73E-11,  avg # of iterations =  2.7

     total cpu time spent up to now is      211.1 secs

     total energy              =    -275.83456407 Ry
     estimated scf accuracy    <          5.7E-09 Ry

     iteration #  5     ecut=    90.00 Ry     beta= 0.70
     Davidson diagonalization with overlap
     ethr =  8.86E-12,  avg # of iterations =  2.4

     total cpu time spent up to now is      213.1 secs

     End of self-consistent calculation

     Number of k-points >= 100: set verbosity='high' to print the bands.

     highest occupied level (ev):     1.5021

!    total energy              =    -275.83456408 Ry
     estimated scf accuracy    <          2.2E-10 Ry

     The total energy is the sum of the following terms:
     one-electron contribution =     -95.71126373 Ry
     hartree contribution      =      78.85151628 Ry
     xc contribution           =     -68.18457541 Ry
     ewald contribution        =    -190.79024122 Ry

     convergence has been achieved in   5 iterations

     Forces acting on atoms (cartesian axes, Ry/au):

     atom    1 type  2   force =     0.00000000   -0.00000049   -0.00004079
     atom    2 type  2   force =     0.00000000    0.00000049    0.00004079
     atom    3 type  2   force =     0.00000000   -0.00000143   -0.00005130
     atom    4 type  2   force =     0.00000000    0.00000143    0.00005130
     atom    5 type  2   force =    -0.00000000   -0.00000001   -0.00004473
     atom    6 type  2   force =    -0.00000000    0.00000001    0.00004473
     atom    7 type  2   force =     0.00000000    0.00000007   -0.00005326
     atom    8 type  2   force =     0.00000000   -0.00000007    0.00005326
     atom    9 type  1   force =     0.00000000   -0.00000865   -0.00001838
     atom   10 type  1   force =     0.00000000    0.00000865    0.00001838
     atom   11 type  1   force =     0.00000000    0.00000266   -0.00001775
     atom   12 type  1   force =     0.00000000   -0.00000266    0.00001775
     atom   13 type  1   force =     0.00000553    0.00000003   -0.00001276
     atom   14 type  1   force =    -0.00000553   -0.00000003    0.00001276
     atom   15 type  1   force =    -0.00000329    0.00000002   -0.00002122
     atom   16 type  1   force =     0.00000329   -0.00000002    0.00002122
     atom   17 type  1   force =    -0.00000329   -0.00000002    0.00002122
     atom   18 type  1   force =     0.00000329    0.00000002   -0.00002122
     atom   19 type  1   force =     0.00000553   -0.00000003    0.00001276
     atom   20 type  1   force =    -0.00000553    0.00000003   -0.00001276
     atom   21 type  1   force =     0.00000000   -0.00000143   -0.00001687
     atom   22 type  1   force =     0.00000000    0.00000143    0.00001687
     atom   23 type  1   force =     0.00000000    0.00000908   -0.00001869
     atom   24 type  1   force =     0.00000000   -0.00000908    0.00001869

     Total force =     0.000154     Total SCF correction =     0.000017
     SCF correction compared to forces is large: reduce conv_thr to get better values


     Computing stress (Cartesian axis) and pressure

          total   stress  (Ry/bohr**3)                   (kbar)     P=      100.57
   0.00069123   0.00000000   0.00000000          101.68        0.00        0.00
   0.00000000   0.00069120   0.00000001            0.00      101.68        0.00
   0.00000000   0.00000001   0.00066857            0.00        0.00       98.35

     Energy error            =      1.5E-05 Ry
     Gradient error          =      5.3E-05 Ry/Bohr

     bfgs converged in  14 scf cycles and  13 bfgs steps
     (criteria: energy <  1.0E-04 Ry, force <  1.0E-04 Ry/Bohr)

     End of BFGS Geometry Optimization

     Final energy             =    -275.8345640756 Ry

     File ./iceVIII/iceVIII.bfgs deleted, as requested
Begin final coordinates

ATOMIC_POSITIONS (crystal)
O               -0.0000000000        0.2500000260        0.6128177911
O               -0.0000000000        0.7499999740        0.3871822379
O                0.5000000000        0.7500000903        0.1128328639
O                0.5000000000        0.2499999097        0.8871671071
O                0.0000000000        0.7500000132        0.8628324242
O                0.0000000000        0.2499999868        0.1371676048
O                0.5000000000        0.2500000077        0.3628208246
O                0.5000000000        0.7499999923        0.6371791464
H                0.0000000000        0.4320416618        0.7077754721
H                0.0000000000        0.5679583082        0.2922245279
H                0.5000000000        0.5679580113        0.2077888858
H                0.5000000000        0.4320419587        0.7922111142
H                0.8179573477        0.7499999981        0.9577870252
H                0.1820426223        0.2500000019        0.0422129748
H                0.6820394152        0.2499999990        0.4577803274
H                0.3179606148        0.7500000010        0.5422196726
H                0.6820394152        0.7500000010        0.5422196726
H                0.3179606148        0.2499999990        0.4577803274
H                0.8179573477        0.2500000019        0.0422129748
H                0.1820426223        0.7499999981        0.9577870252
H                0.5000000000        0.9320418957        0.2077888384
H                0.5000000000        0.0679581343        0.7922111616
H                0.0000000000        0.0679582995        0.7077754957
H                0.0000000000        0.9320417305        0.2922245043
End final coordinates



     Writing all to output data dir ./iceVIII/iceVIII.save/ :
     XML data file, charge density, pseudopotentials, collected wavefunctions

     init_run     :      1.06s CPU      1.12s WALL (       1 calls)
     electrons    :    187.78s CPU    191.71s WALL (      14 calls)
     update_pot   :      0.11s CPU      0.12s WALL (      13 calls)
     forces       :      1.60s CPU      1.61s WALL (      14 calls)
     stress       :     18.94s CPU     18.96s WALL (      14 calls)

     Called by init_run:
     wfcinit      :      0.81s CPU      0.84s WALL (       1 calls)
     potinit      :      0.02s CPU      0.03s WALL (       1 calls)
     hinit0       :      0.17s CPU      0.19s WALL (       1 calls)

     Called by electrons:
     c_bands      :    167.82s CPU    171.28s WALL (      86 calls)
     sum_band     :     19.11s CPU     19.34s WALL (      86 calls)
     v_of_rho     :      0.62s CPU      0.63s WALL (      96 calls)
     newd         :      0.12s CPU      0.12s WALL (      96 calls)
     mix_rho      :      0.07s CPU      0.07s WALL (      86 calls)

     Called by c_bands:
     init_us_2    :      1.85s CPU      1.92s WALL (    7236 calls)
     cegterg      :    161.52s CPU    163.58s WALL (    3096 calls)

     Called by *egterg:
     cdiaghg      :     20.72s CPU     20.88s WALL (   12150 calls)
     h_psi        :    119.79s CPU    121.54s WALL (   12798 calls)
     s_psi        :      4.21s CPU      4.26s WALL (   12798 calls)
     g_psi        :      0.35s CPU      0.36s WALL (    9666 calls)

     Called by h_psi:
     h_psi:calbec :      5.61s CPU      5.67s WALL (   12798 calls)
     vloc_psi     :    109.36s CPU    110.97s WALL (   12798 calls)
     add_vuspsi   :      4.42s CPU      4.48s WALL (   12798 calls)

     General routines
     calbec       :      8.66s CPU      8.76s WALL (   18414 calls)
     fft          :      0.51s CPU      0.52s WALL (    1185 calls)
     ffts         :      0.03s CPU      0.03s WALL (      86 calls)
     fftw         :    116.41s CPU    118.09s WALL (  750366 calls)

     Parallel routines

     PWSCF        :   3m30.94s CPU   3m36.15s WALL


   This run was terminated on:  17: 9:40  31Mar2026            

=------------------------------------------------------------------------------=
   JOB DONE.
=------------------------------------------------------------------------------=
