
     Program PWSCF v.7.3.1 starts on 23Mar2026 at 17:53:23 

     This program is part of the open-source Quantum ESPRESSO suite
     for quantum simulation of materials; please cite
         "P. Giannozzi et al., J. Phys.:Condens. Matter 21 395502 (2009);
         "P. Giannozzi et al., J. Phys.:Condens. Matter 29 465901 (2017);
         "P. Giannozzi et al., J. Chem. Phys. 152 154105 (2020);
          URL http://www.quantum-espresso.org", 
     in publications or presentations arising from this work. More details at
     http://www.quantum-espresso.org/quote

     Parallel version (MPI), running on   128 processors

     MPI processes distributed on     1 nodes
     242657 MiB available memory on the printing compute node when the environment starts

     Waiting for input...
     Reading input from standard input

     Current dimensions of program PWSCF are:
     Max number of different atomic species (ntypx) = 10
     Max number of k-points (npk) =  40000
     Max angular momentum in pseudopotentials (lmaxx) =  4
     Found identity + ( -0.5000 -0.5000  0.5000) symmetry
     This is a supercell, fractional translations are disabled

     K-points division:     npool     =       4
     R & G space division:  proc/nbgrp/npool/nimage =      32
     Subspace diagonalization in iterative solution of the eigenvalue problem:
     a serial algorithm will be used


     Parallelization info
     --------------------
     sticks:   dense  smooth     PW     G-vecs:    dense   smooth      PW
     Min          63      63     17                 3055     3055     447
     Max          64      64     18                 3061     3061     454
     Sum        2017    2017    561                97865    97865   14375

     Using Slab Decomposition



     bravais-lattice index     =            6
     lattice parameter (alat)  =       8.3790  a.u.
     unit-cell volume          =     848.3964 (a.u.)^3
     number of atoms/cell      =           24
     number of atomic types    =            2
     number of electrons       =        64.00
     number of Kohn-Sham states=           32
     kinetic-energy cutoff     =      90.0000  Ry
     charge density cutoff     =     360.0000  Ry
     scf convergence threshold =      1.0E-07
     mixing beta               =       0.7000
     number of iterations used =            8  plain     mixing
     Exchange-correlation=  SLA  PW   PBE  PBE
                           (   1   4   3   4   0   0   0)

     celldm(1)=   8.378985  celldm(2)=   0.000000  celldm(3)=   1.442197
     celldm(4)=   0.000000  celldm(5)=   0.000000  celldm(6)=   0.000000

     crystal axes: (cart. coord. in units of alat)
               a(1) = (   1.000000   0.000000   0.000000 )  
               a(2) = (   0.000000   1.000000   0.000000 )  
               a(3) = (   0.000000   0.000000   1.442197 )  

     reciprocal axes: (cart. coord. in units 2 pi/alat)
               b(1) = (  1.000000  0.000000  0.000000 )  
               b(2) = (  0.000000  1.000000  0.000000 )  
               b(3) = (  0.000000  0.000000  0.693386 )  


     PseudoPot. # 1 for H  read from file:
     ./H.pbe-van_ak.UPF
     MD5 check sum: 077eb6d537518a38cb46c6de387227b7
     Pseudo is Ultrasoft, Zval =  1.0
     Generated by new atomic code, or converted to UPF format
     Using radial grid of  615 points,  1 beta functions with: 
                l(1) =   0
     Q(r) pseudized with  8 coefficients,  rinner =    0.800

     PseudoPot. # 2 for O  read from file:
     ./O.pbe-van_ak.UPF
     MD5 check sum: 78c19812648e8988a0fe644b0f25305e
     Pseudo is Ultrasoft, Zval =  6.0
     Generated by new atomic code, or converted to UPF format
     Using radial grid of  737 points,  4 beta functions with: 
                l(1) =   0
                l(2) =   0
                l(3) =   1
                l(4) =   1
     Q(r) pseudized with  8 coefficients,  rinner =    0.800   0.800   0.800


     atomic species   valence    mass     pseudopotential
     H                 1.00     1.00800     H ( 1.00)
     O                 6.00    16.00000     O ( 1.00)

      4 Sym. Ops., with inversion, found



   Cartesian axes

     site n.     atom                  positions (alat units)
         1        O      tau(   1) = (   0.0000000   0.2500000   0.8766577  )
         2        O      tau(   2) = (   0.0000000   0.7500000   0.5655395  )
         3        O      tau(   3) = (   0.5000000   0.7500000   0.1555590  )
         4        O      tau(   4) = (   0.5000000   0.2500000   1.2866381  )
         5        O      tau(   5) = (   0.0000000   0.7500000   1.2372108  )
         6        O      tau(   6) = (   0.0000000   0.2500000   0.2049863  )
         7        O      tau(   7) = (   0.5000000   0.2500000   0.5161123  )
         8        O      tau(   8) = (   0.5000000   0.7500000   0.9260848  )
         9        H      tau(   9) = (   0.0000000   0.4186701   1.0041518  )
        10        H      tau(  10) = (   0.0000000   0.5813299   0.4380453  )
        11        H      tau(  11) = (   0.5000000   0.5813299   0.2830532  )
        12        H      tau(  12) = (   0.5000000   0.4186701   1.1591439  )
        13        H      tau(  13) = (   0.8313288   0.7500000   1.3647034  )
        14        H      tau(  14) = (   0.1686712   0.2500000   0.0774938  )
        15        H      tau(  15) = (   0.6686712   0.2500000   0.6436049  )
        16        H      tau(  16) = (   0.3313288   0.7500000   0.7985923  )
        17        H      tau(  17) = (   0.6686712   0.7500000   0.7985923  )
        18        H      tau(  18) = (   0.3313288   0.2500000   0.6436049  )
        19        H      tau(  19) = (   0.8313288   0.2500000   0.0774938  )
        20        H      tau(  20) = (   0.1686712   0.7500000   1.3647034  )
        21        H      tau(  21) = (   0.5000000   0.9186701   0.2830532  )
        22        H      tau(  22) = (   0.5000000   0.0813299   1.1591439  )
        23        H      tau(  23) = (   0.0000000   0.0813299   1.0041518  )
        24        H      tau(  24) = (   0.0000000   0.9186701   0.4380454  )

     number of k points=   144

     Number of k-points >= 100: set verbosity='high' to print them.

     Dense  grid:    97865 G-vectors     FFT dimensions: (  54,  54,  75)

     Estimated max dynamical RAM per process >      11.55 MB

     Estimated total dynamical RAM >       1.37 GB

     Initial potential from superposition of free atoms

     starting charge      63.9998, renormalised to      64.0000
     Starting wfcs are   48 randomized atomic wfcs

     total cpu time spent up to now is        1.4 secs

     per-process dynamical memory:    18.1 Mb

     Self-consistent Calculation

     iteration #  1     ecut=    90.00 Ry     beta= 0.70
     Davidson diagonalization with overlap
     ethr =  1.00E-02,  avg # of iterations =  2.0

     total cpu time spent up to now is        3.3 secs

     total energy              =    -274.72552632 Ry
     estimated scf accuracy    <       2.66655645 Ry

     iteration #  2     ecut=    90.00 Ry     beta= 0.70
     Davidson diagonalization with overlap
     ethr =  4.17E-03,  avg # of iterations =  3.0

     total cpu time spent up to now is        5.7 secs

     total energy              =    -275.58850291 Ry
     estimated scf accuracy    <       1.10080880 Ry

     iteration #  3     ecut=    90.00 Ry     beta= 0.70
     Davidson diagonalization with overlap
     ethr =  1.72E-03,  avg # of iterations =  2.0

     total cpu time spent up to now is        7.4 secs

     total energy              =    -275.71277002 Ry
     estimated scf accuracy    <       0.04703367 Ry

     iteration #  4     ecut=    90.00 Ry     beta= 0.70
     Davidson diagonalization with overlap
     ethr =  7.35E-05,  avg # of iterations =  4.0

     total cpu time spent up to now is       10.1 secs

     total energy              =    -275.74422490 Ry
     estimated scf accuracy    <       0.06312578 Ry

     iteration #  5     ecut=    90.00 Ry     beta= 0.70
     Davidson diagonalization with overlap
     ethr =  7.35E-05,  avg # of iterations =  2.0

     total cpu time spent up to now is       11.8 secs

     total energy              =    -275.74593181 Ry
     estimated scf accuracy    <       0.00923208 Ry

     iteration #  6     ecut=    90.00 Ry     beta= 0.70
     Davidson diagonalization with overlap
     ethr =  1.44E-05,  avg # of iterations =  3.0

     total cpu time spent up to now is       13.9 secs

     total energy              =    -275.74856035 Ry
     estimated scf accuracy    <       0.00007200 Ry

     iteration #  7     ecut=    90.00 Ry     beta= 0.70
     Davidson diagonalization with overlap
     ethr =  1.12E-07,  avg # of iterations =  6.0

     total cpu time spent up to now is       17.1 secs

     total energy              =    -275.74875112 Ry
     estimated scf accuracy    <       0.00023261 Ry

     iteration #  8     ecut=    90.00 Ry     beta= 0.70
     Davidson diagonalization with overlap
     ethr =  1.12E-07,  avg # of iterations =  2.0

     total cpu time spent up to now is       19.1 secs

     total energy              =    -275.74875177 Ry
     estimated scf accuracy    <       0.00003735 Ry

     iteration #  9     ecut=    90.00 Ry     beta= 0.70
     Davidson diagonalization with overlap
     ethr =  5.84E-08,  avg # of iterations =  3.0

     total cpu time spent up to now is       21.3 secs

     End of self-consistent calculation

     Number of k-points >= 100: set verbosity='high' to print the bands.

     highest occupied level (ev):     1.1002

!    total energy              =    -275.74876377 Ry
     estimated scf accuracy    <       0.00000007 Ry

     The total energy is the sum of the following terms:
     one-electron contribution =    -106.87307503 Ry
     hartree contribution      =      83.47201907 Ry
     xc contribution           =     -68.91092417 Ry
     ewald contribution        =    -183.43678365 Ry

     convergence has been achieved in   9 iterations

     Forces acting on atoms (cartesian axes, Ry/au):

     atom    1 type  2   force =     0.00000000    0.00000018   -0.12063356
     atom    2 type  2   force =     0.00000000   -0.00000018    0.12063356
     atom    3 type  2   force =     0.00000000    0.00000028   -0.12054849
     atom    4 type  2   force =     0.00000000   -0.00000028    0.12054849
     atom    5 type  2   force =    -0.00000000    0.00000032   -0.12060386
     atom    6 type  2   force =    -0.00000000   -0.00000032    0.12060386
     atom    7 type  2   force =     0.00000000    0.00000014   -0.12064542
     atom    8 type  2   force =     0.00000000   -0.00000014    0.12064542
     atom    9 type  1   force =     0.00000000    0.09270984    0.06288355
     atom   10 type  1   force =     0.00000000   -0.09270984   -0.06288355
     atom   11 type  1   force =     0.00000000   -0.09270709    0.06288483
     atom   12 type  1   force =     0.00000000    0.09270709   -0.06288483
     atom   13 type  1   force =    -0.09270234    0.00000001    0.06288213
     atom   14 type  1   force =     0.09270234   -0.00000001   -0.06288213
     atom   15 type  1   force =     0.09270296   -0.00000003    0.06288450
     atom   16 type  1   force =    -0.09270296    0.00000003   -0.06288450
     atom   17 type  1   force =     0.09270296    0.00000003   -0.06288450
     atom   18 type  1   force =    -0.09270296   -0.00000003    0.06288450
     atom   19 type  1   force =    -0.09270234   -0.00000001   -0.06288213
     atom   20 type  1   force =     0.09270234    0.00000001    0.06288213
     atom   21 type  1   force =     0.00000000    0.09270694    0.06288462
     atom   22 type  1   force =     0.00000000   -0.09270694   -0.06288462
     atom   23 type  1   force =     0.00000000   -0.09271015    0.06288382
     atom   24 type  1   force =     0.00000000    0.09271015   -0.06288382

     Total force =     0.563160     Total SCF correction =     0.000171


     Computing stress (Cartesian axis) and pressure

          total   stress  (Ry/bohr**3)                   (kbar)     P=      289.26
   0.00194490   0.00000000   0.00000000          286.11        0.00        0.00
   0.00000000   0.00194509   0.00000000            0.00      286.13        0.00
   0.00000000   0.00000000   0.00200915            0.00        0.00      295.56


     Writing all to output data dir ./iceVIII/iceVIII.save/ :
     XML data file, charge density, pseudopotentials, collected wavefunctions

     init_run     :      1.08s CPU      1.14s WALL (       1 calls)
     electrons    :     19.50s CPU     19.94s WALL (       1 calls)
     forces       :      0.11s CPU      0.13s WALL (       1 calls)
     stress       :      1.36s CPU      1.37s WALL (       1 calls)

     Called by init_run:
     wfcinit      :      0.83s CPU      0.86s WALL (       1 calls)
     potinit      :      0.02s CPU      0.03s WALL (       1 calls)
     hinit0       :      0.18s CPU      0.19s WALL (       1 calls)

     Called by electrons:
     c_bands      :     17.40s CPU     17.77s WALL (       9 calls)
     sum_band     :      1.99s CPU      2.03s WALL (       9 calls)
     v_of_rho     :      0.07s CPU      0.08s WALL (      10 calls)
     newd         :      0.01s CPU      0.02s WALL (      10 calls)
     mix_rho      :      0.01s CPU      0.01s WALL (       9 calls)

     Called by c_bands:
     init_us_2    :      0.20s CPU      0.21s WALL (     756 calls)
     cegterg      :     16.75s CPU     16.99s WALL (     324 calls)

     Called by *egterg:
     cdiaghg      :      2.22s CPU      2.25s WALL (    1294 calls)
     h_psi        :     13.00s CPU     13.20s WALL (    1330 calls)
     s_psi        :      0.46s CPU      0.47s WALL (    1330 calls)
     g_psi        :      0.04s CPU      0.04s WALL (     970 calls)

     Called by h_psi:
     h_psi:calbec :      0.61s CPU      0.62s WALL (    1330 calls)
     vloc_psi     :     11.86s CPU     12.05s WALL (    1330 calls)
     add_vuspsi   :      0.48s CPU      0.49s WALL (    1330 calls)

     General routines
     calbec       :      0.85s CPU      0.87s WALL (    1834 calls)
     fft          :      0.20s CPU      0.20s WALL (     118 calls)
     ffts         :      0.00s CPU      0.00s WALL (       9 calls)
     fftw         :     12.56s CPU     12.76s WALL (   81104 calls)

     Parallel routines

     PWSCF        :     22.77s CPU     23.97s WALL


   This run was terminated on:  17:53:47  23Mar2026            

=------------------------------------------------------------------------------=
   JOB DONE.
=------------------------------------------------------------------------------=
