
     Program PWSCF v.7.3.1 starts on 23Mar2026 at 17:53:49 

     This program is part of the open-source Quantum ESPRESSO suite
     for quantum simulation of materials; please cite
         "P. Giannozzi et al., J. Phys.:Condens. Matter 21 395502 (2009);
         "P. Giannozzi et al., J. Phys.:Condens. Matter 29 465901 (2017);
         "P. Giannozzi et al., J. Chem. Phys. 152 154105 (2020);
          URL http://www.quantum-espresso.org", 
     in publications or presentations arising from this work. More details at
     http://www.quantum-espresso.org/quote

     Parallel version (MPI), running on   128 processors

     MPI processes distributed on     1 nodes
     242537 MiB available memory on the printing compute node when the environment starts

     Waiting for input...
     Reading input from standard input

     Current dimensions of program PWSCF are:
     Max number of different atomic species (ntypx) = 10
     Max number of k-points (npk) =  40000
     Max angular momentum in pseudopotentials (lmaxx) =  4
     Found identity + ( -0.5000 -0.5000  0.5000) symmetry
     This is a supercell, fractional translations are disabled

     K-points division:     npool     =       4
     R & G space division:  proc/nbgrp/npool/nimage =      32
     Subspace diagonalization in iterative solution of the eigenvalue problem:
     a serial algorithm will be used


     Parallelization info
     --------------------
     sticks:   dense  smooth     PW     G-vecs:    dense   smooth      PW
     Min          63      63     17                 3081     3081     449
     Max          64      64     18                 3086     3086     456
     Sum        2025    2025    561                98665    98665   14455

     Using Slab Decomposition



     bravais-lattice index     =            6
     lattice parameter (alat)  =       8.3967  a.u.
     unit-cell volume          =     853.8002 (a.u.)^3
     number of atoms/cell      =           24
     number of atomic types    =            2
     number of electrons       =        64.00
     number of Kohn-Sham states=           32
     kinetic-energy cutoff     =      90.0000  Ry
     charge density cutoff     =     360.0000  Ry
     scf convergence threshold =      1.0E-07
     mixing beta               =       0.7000
     number of iterations used =            8  plain     mixing
     Exchange-correlation=  SLA  PW   PBE  PBE
                           (   1   4   3   4   0   0   0)

     celldm(1)=   8.396737  celldm(2)=   0.000000  celldm(3)=   1.442197
     celldm(4)=   0.000000  celldm(5)=   0.000000  celldm(6)=   0.000000

     crystal axes: (cart. coord. in units of alat)
               a(1) = (   1.000000   0.000000   0.000000 )  
               a(2) = (   0.000000   1.000000   0.000000 )  
               a(3) = (   0.000000   0.000000   1.442197 )  

     reciprocal axes: (cart. coord. in units 2 pi/alat)
               b(1) = (  1.000000  0.000000  0.000000 )  
               b(2) = (  0.000000  1.000000  0.000000 )  
               b(3) = (  0.000000  0.000000  0.693386 )  


     PseudoPot. # 1 for H  read from file:
     ./H.pbe-van_ak.UPF
     MD5 check sum: 077eb6d537518a38cb46c6de387227b7
     Pseudo is Ultrasoft, Zval =  1.0
     Generated by new atomic code, or converted to UPF format
     Using radial grid of  615 points,  1 beta functions with: 
                l(1) =   0
     Q(r) pseudized with  8 coefficients,  rinner =    0.800

     PseudoPot. # 2 for O  read from file:
     ./O.pbe-van_ak.UPF
     MD5 check sum: 78c19812648e8988a0fe644b0f25305e
     Pseudo is Ultrasoft, Zval =  6.0
     Generated by new atomic code, or converted to UPF format
     Using radial grid of  737 points,  4 beta functions with: 
                l(1) =   0
                l(2) =   0
                l(3) =   1
                l(4) =   1
     Q(r) pseudized with  8 coefficients,  rinner =    0.800   0.800   0.800


     atomic species   valence    mass     pseudopotential
     H                 1.00     1.00800     H ( 1.00)
     O                 6.00    16.00000     O ( 1.00)

      4 Sym. Ops., with inversion, found



   Cartesian axes

     site n.     atom                  positions (alat units)
         1        O      tau(   1) = (   0.0000000   0.2500000   0.8766577  )
         2        O      tau(   2) = (   0.0000000   0.7500000   0.5655395  )
         3        O      tau(   3) = (   0.5000000   0.7500000   0.1555590  )
         4        O      tau(   4) = (   0.5000000   0.2500000   1.2866381  )
         5        O      tau(   5) = (   0.0000000   0.7500000   1.2372108  )
         6        O      tau(   6) = (   0.0000000   0.2500000   0.2049863  )
         7        O      tau(   7) = (   0.5000000   0.2500000   0.5161123  )
         8        O      tau(   8) = (   0.5000000   0.7500000   0.9260848  )
         9        H      tau(   9) = (   0.0000000   0.4186701   1.0041518  )
        10        H      tau(  10) = (   0.0000000   0.5813299   0.4380453  )
        11        H      tau(  11) = (   0.5000000   0.5813299   0.2830532  )
        12        H      tau(  12) = (   0.5000000   0.4186701   1.1591439  )
        13        H      tau(  13) = (   0.8313288   0.7500000   1.3647034  )
        14        H      tau(  14) = (   0.1686712   0.2500000   0.0774938  )
        15        H      tau(  15) = (   0.6686712   0.2500000   0.6436049  )
        16        H      tau(  16) = (   0.3313288   0.7500000   0.7985923  )
        17        H      tau(  17) = (   0.6686712   0.7500000   0.7985923  )
        18        H      tau(  18) = (   0.3313288   0.2500000   0.6436049  )
        19        H      tau(  19) = (   0.8313288   0.2500000   0.0774938  )
        20        H      tau(  20) = (   0.1686712   0.7500000   1.3647034  )
        21        H      tau(  21) = (   0.5000000   0.9186701   0.2830532  )
        22        H      tau(  22) = (   0.5000000   0.0813299   1.1591439  )
        23        H      tau(  23) = (   0.0000000   0.0813299   1.0041518  )
        24        H      tau(  24) = (   0.0000000   0.9186701   0.4380454  )

     number of k points=   144

     Number of k-points >= 100: set verbosity='high' to print them.

     Dense  grid:    98665 G-vectors     FFT dimensions: (  54,  54,  75)

     Estimated max dynamical RAM per process >      11.61 MB

     Estimated total dynamical RAM >       1.38 GB

     Initial potential from superposition of free atoms

     starting charge      63.9998, renormalised to      64.0000
     Starting wfcs are   48 randomized atomic wfcs

     total cpu time spent up to now is        1.4 secs

     per-process dynamical memory:    18.0 Mb

     Self-consistent Calculation

     iteration #  1     ecut=    90.00 Ry     beta= 0.70
     Davidson diagonalization with overlap
     ethr =  1.00E-02,  avg # of iterations =  2.0

     total cpu time spent up to now is        3.3 secs

     total energy              =    -274.73651983 Ry
     estimated scf accuracy    <       2.65896205 Ry

     iteration #  2     ecut=    90.00 Ry     beta= 0.70
     Davidson diagonalization with overlap
     ethr =  4.15E-03,  avg # of iterations =  3.0

     total cpu time spent up to now is        5.6 secs

     total energy              =    -275.59688536 Ry
     estimated scf accuracy    <       1.11193491 Ry

     iteration #  3     ecut=    90.00 Ry     beta= 0.70
     Davidson diagonalization with overlap
     ethr =  1.74E-03,  avg # of iterations =  2.0

     total cpu time spent up to now is        7.4 secs

     total energy              =    -275.72293108 Ry
     estimated scf accuracy    <       0.04745663 Ry

     iteration #  4     ecut=    90.00 Ry     beta= 0.70
     Davidson diagonalization with overlap
     ethr =  7.42E-05,  avg # of iterations =  4.0

     total cpu time spent up to now is       10.0 secs

     total energy              =    -275.75473927 Ry
     estimated scf accuracy    <       0.06413302 Ry

     iteration #  5     ecut=    90.00 Ry     beta= 0.70
     Davidson diagonalization with overlap
     ethr =  7.42E-05,  avg # of iterations =  2.0

     total cpu time spent up to now is       11.7 secs

     total energy              =    -275.75650025 Ry
     estimated scf accuracy    <       0.00936531 Ry

     iteration #  6     ecut=    90.00 Ry     beta= 0.70
     Davidson diagonalization with overlap
     ethr =  1.46E-05,  avg # of iterations =  3.0

     total cpu time spent up to now is       13.8 secs

     total energy              =    -275.75917463 Ry
     estimated scf accuracy    <       0.00006911 Ry

     iteration #  7     ecut=    90.00 Ry     beta= 0.70
     Davidson diagonalization with overlap
     ethr =  1.08E-07,  avg # of iterations =  6.0

     total cpu time spent up to now is       17.1 secs

     total energy              =    -275.75936084 Ry
     estimated scf accuracy    <       0.00023172 Ry

     iteration #  8     ecut=    90.00 Ry     beta= 0.70
     Davidson diagonalization with overlap
     ethr =  1.08E-07,  avg # of iterations =  2.1

     total cpu time spent up to now is       19.1 secs

     total energy              =    -275.75936335 Ry
     estimated scf accuracy    <       0.00003161 Ry

     iteration #  9     ecut=    90.00 Ry     beta= 0.70
     Davidson diagonalization with overlap
     ethr =  4.94E-08,  avg # of iterations =  3.0

     total cpu time spent up to now is       21.5 secs

     total energy              =    -275.75937788 Ry
     estimated scf accuracy    <       0.00000380 Ry

     iteration # 10     ecut=    90.00 Ry     beta= 0.70
     Davidson diagonalization with overlap
     ethr =  5.94E-09,  avg # of iterations =  2.0

     total cpu time spent up to now is       23.2 secs

     total energy              =    -275.75937767 Ry
     estimated scf accuracy    <       0.00000205 Ry

     iteration # 11     ecut=    90.00 Ry     beta= 0.70
     Davidson diagonalization with overlap
     ethr =  3.21E-09,  avg # of iterations =  1.0

     total cpu time spent up to now is       24.5 secs

     total energy              =    -275.75937750 Ry
     estimated scf accuracy    <       0.00000072 Ry

     iteration # 12     ecut=    90.00 Ry     beta= 0.70
     Davidson diagonalization with overlap
     ethr =  1.13E-09,  avg # of iterations =  2.0

     total cpu time spent up to now is       26.3 secs

     End of self-consistent calculation

     Number of k-points >= 100: set verbosity='high' to print the bands.

     highest occupied level (ev):     1.0488

!    total energy              =    -275.75937756 Ry
     estimated scf accuracy    <       0.00000006 Ry

     The total energy is the sum of the following terms:
     one-electron contribution =    -107.53842130 Ry
     hartree contribution      =      83.69615988 Ry
     xc contribution           =     -68.86814810 Ry
     ewald contribution        =    -183.04896804 Ry

     convergence has been achieved in  12 iterations

     Forces acting on atoms (cartesian axes, Ry/au):

     atom    1 type  2   force =     0.00000000    0.00000025   -0.11587700
     atom    2 type  2   force =     0.00000000   -0.00000025    0.11587700
     atom    3 type  2   force =     0.00000000    0.00000010   -0.11582642
     atom    4 type  2   force =     0.00000000   -0.00000010    0.11582642
     atom    5 type  2   force =     0.00000000    0.00000000   -0.11583817
     atom    6 type  2   force =     0.00000000   -0.00000000    0.11583817
     atom    7 type  2   force =    -0.00000000    0.00000001   -0.11588045
     atom    8 type  2   force =    -0.00000000   -0.00000001    0.11588045
     atom    9 type  1   force =     0.00000000    0.08871961    0.06012030
     atom   10 type  1   force =     0.00000000   -0.08871961   -0.06012030
     atom   11 type  1   force =     0.00000000   -0.08871729    0.06012326
     atom   12 type  1   force =     0.00000000    0.08871729   -0.06012326
     atom   13 type  1   force =    -0.08871452   -0.00000000    0.06012361
     atom   14 type  1   force =     0.08871452    0.00000000   -0.06012361
     atom   15 type  1   force =     0.08871537   -0.00000000    0.06012307
     atom   16 type  1   force =    -0.08871537    0.00000000   -0.06012307
     atom   17 type  1   force =     0.08871537    0.00000000   -0.06012307
     atom   18 type  1   force =    -0.08871537   -0.00000000    0.06012307
     atom   19 type  1   force =    -0.08871452    0.00000000   -0.06012361
     atom   20 type  1   force =     0.08871452   -0.00000000    0.06012361
     atom   21 type  1   force =     0.00000000    0.08871720    0.06012319
     atom   22 type  1   force =     0.00000000   -0.08871720   -0.06012319
     atom   23 type  1   force =     0.00000000   -0.08871984    0.06012049
     atom   24 type  1   force =     0.00000000    0.08871984   -0.06012049

     Total force =     0.539580     Total SCF correction =     0.000244


     Computing stress (Cartesian axis) and pressure

          total   stress  (Ry/bohr**3)                   (kbar)     P=      276.70
   0.00186065   0.00000000   0.00000000          273.71        0.00        0.00
   0.00000000   0.00186063  -0.00000000            0.00      273.71       -0.00
   0.00000000  -0.00000000   0.00192168            0.00       -0.00      282.69


     Writing all to output data dir ./iceVIII/iceVIII.save/ :
     XML data file, charge density, pseudopotentials, collected wavefunctions

     init_run     :      1.09s CPU      1.15s WALL (       1 calls)
     electrons    :     24.42s CPU     24.97s WALL (       1 calls)
     forces       :      0.12s CPU      0.13s WALL (       1 calls)
     stress       :      1.37s CPU      1.39s WALL (       1 calls)

     Called by init_run:
     wfcinit      :      0.85s CPU      0.87s WALL (       1 calls)
     potinit      :      0.01s CPU      0.02s WALL (       1 calls)
     hinit0       :      0.18s CPU      0.19s WALL (       1 calls)

     Called by electrons:
     c_bands      :     21.65s CPU     22.10s WALL (      12 calls)
     sum_band     :      2.64s CPU      2.70s WALL (      12 calls)
     v_of_rho     :      0.09s CPU      0.09s WALL (      13 calls)
     newd         :      0.02s CPU      0.02s WALL (      13 calls)
     mix_rho      :      0.02s CPU      0.02s WALL (      12 calls)

     Called by c_bands:
     init_us_2    :      0.26s CPU      0.27s WALL (     972 calls)
     cegterg      :     20.90s CPU     21.15s WALL (     432 calls)

     Called by *egterg:
     cdiaghg      :      2.68s CPU      2.69s WALL (    1587 calls)
     h_psi        :     16.20s CPU     16.43s WALL (    1623 calls)
     s_psi        :      0.56s CPU      0.57s WALL (    1623 calls)
     g_psi        :      0.04s CPU      0.04s WALL (    1155 calls)

     Called by h_psi:
     h_psi:calbec :      0.76s CPU      0.76s WALL (    1623 calls)
     vloc_psi     :     14.79s CPU     15.01s WALL (    1623 calls)
     add_vuspsi   :      0.59s CPU      0.60s WALL (    1623 calls)

     General routines
     calbec       :      1.08s CPU      1.09s WALL (    2235 calls)
     fft          :      0.21s CPU      0.22s WALL (     151 calls)
     ffts         :      0.00s CPU      0.00s WALL (      12 calls)
     fftw         :     15.82s CPU     16.05s WALL (  101870 calls)

     Parallel routines

     PWSCF        :     27.71s CPU     28.94s WALL


   This run was terminated on:  17:54:18  23Mar2026            

=------------------------------------------------------------------------------=
   JOB DONE.
=------------------------------------------------------------------------------=
