
     Program PWSCF v.7.3.1 starts on 31Mar2026 at 17:29: 2 

     This program is part of the open-source Quantum ESPRESSO suite
     for quantum simulation of materials; please cite
         "P. Giannozzi et al., J. Phys.:Condens. Matter 21 395502 (2009);
         "P. Giannozzi et al., J. Phys.:Condens. Matter 29 465901 (2017);
         "P. Giannozzi et al., J. Chem. Phys. 152 154105 (2020);
          URL http://www.quantum-espresso.org", 
     in publications or presentations arising from this work. More details at
     http://www.quantum-espresso.org/quote

     Parallel version (MPI), running on   128 processors

     MPI processes distributed on     1 nodes
     500017 MiB available memory on the printing compute node when the environment starts

     Waiting for input...
     Reading input from standard input

     Current dimensions of program PWSCF are:
     Max number of different atomic species (ntypx) = 10
     Max number of k-points (npk) =  40000
     Max angular momentum in pseudopotentials (lmaxx) =  4
     Found identity + ( -0.5000 -0.5000  0.5000) symmetry
     This is a supercell, fractional translations are disabled

     K-points division:     npool     =       4
     R & G space division:  proc/nbgrp/npool/nimage =      32
     Subspace diagonalization in iterative solution of the eigenvalue problem:
     a serial algorithm will be used


     Parallelization info
     --------------------
     sticks:   dense  smooth     PW     G-vecs:    dense   smooth      PW
     Min          64      64     18                 3162     3162     462
     Max          65      65     19                 3169     3169     468
     Sum        2061    2061    577               101277   101277   14871

     Using Slab Decomposition



     bravais-lattice index     =            6
     lattice parameter (alat)  =       8.4766  a.u.
     unit-cell volume          =     878.4012 (a.u.)^3
     number of atoms/cell      =           24
     number of atomic types    =            2
     number of electrons       =        64.00
     number of Kohn-Sham states=           32
     kinetic-energy cutoff     =      90.0000  Ry
     charge density cutoff     =     360.0000  Ry
     scf convergence threshold =      1.0E-07
     mixing beta               =       0.7000
     number of iterations used =            8  plain     mixing
     energy convergence thresh.=      1.0E-04
     force convergence thresh. =      1.0E-04
     Exchange-correlation=  SLA  PW   PBE  PBE
                           (   1   4   3   4   0   0   0)
     nstep                     =           50


     celldm(1)=   8.476621  celldm(2)=   0.000000  celldm(3)=   1.442197
     celldm(4)=   0.000000  celldm(5)=   0.000000  celldm(6)=   0.000000

     crystal axes: (cart. coord. in units of alat)
               a(1) = (   1.000000   0.000000   0.000000 )  
               a(2) = (   0.000000   1.000000   0.000000 )  
               a(3) = (   0.000000   0.000000   1.442197 )  

     reciprocal axes: (cart. coord. in units 2 pi/alat)
               b(1) = (  1.000000  0.000000  0.000000 )  
               b(2) = (  0.000000  1.000000  0.000000 )  
               b(3) = (  0.000000  0.000000  0.693386 )  


     PseudoPot. # 1 for H  read from file:
     ./H.pbe-van_ak.UPF
     MD5 check sum: 077eb6d537518a38cb46c6de387227b7
     Pseudo is Ultrasoft, Zval =  1.0
     Generated by new atomic code, or converted to UPF format
     Using radial grid of  615 points,  1 beta functions with: 
                l(1) =   0
     Q(r) pseudized with  8 coefficients,  rinner =    0.800

     PseudoPot. # 2 for O  read from file:
     ./O.pbe-van_ak.UPF
     MD5 check sum: 78c19812648e8988a0fe644b0f25305e
     Pseudo is Ultrasoft, Zval =  6.0
     Generated by new atomic code, or converted to UPF format
     Using radial grid of  737 points,  4 beta functions with: 
                l(1) =   0
                l(2) =   0
                l(3) =   1
                l(4) =   1
     Q(r) pseudized with  8 coefficients,  rinner =    0.800   0.800   0.800


     atomic species   valence    mass     pseudopotential
     H                 1.00     1.00800     H ( 1.00)
     O                 6.00    16.00000     O ( 1.00)

      4 Sym. Ops., with inversion, found



   Cartesian axes

     site n.     atom                  positions (alat units)
         1        O      tau(   1) = (   0.0000000   0.2500000   0.8781106  )
         2        O      tau(   2) = (   0.0000000   0.7500000   0.5640866  )
         3        O      tau(   3) = (   0.5000000   0.7500000   0.1570120  )
         4        O      tau(   4) = (   0.5000000   0.2500000   1.2851851  )
         5        O      tau(   5) = (   0.0000000   0.7500000   1.2386599  )
         6        O      tau(   6) = (   0.0000000   0.2500000   0.2035373  )
         7        O      tau(   7) = (   0.5000000   0.2500000   0.5175613  )
         8        O      tau(   8) = (   0.5000000   0.7500000   0.9246358  )
         9        H      tau(   9) = (   0.0000000   0.4142500   1.0027885  )
        10        H      tau(  10) = (   0.0000000   0.5857500   0.4394086  )
        11        H      tau(  11) = (   0.5000000   0.5857500   0.2816900  )
        12        H      tau(  12) = (   0.5000000   0.4142500   1.1605072  )
        13        H      tau(  13) = (   0.8357500   0.7500000   1.3633378  )
        14        H      tau(  14) = (   0.1642500   0.2500000   0.0788593  )
        15        H      tau(  15) = (   0.6642500   0.2500000   0.6422392  )
        16        H      tau(  16) = (   0.3357500   0.7500000   0.7999579  )
        17        H      tau(  17) = (   0.6642500   0.7500000   0.7999579  )
        18        H      tau(  18) = (   0.3357500   0.2500000   0.6422392  )
        19        H      tau(  19) = (   0.8357500   0.2500000   0.0788593  )
        20        H      tau(  20) = (   0.1642500   0.7500000   1.3633378  )
        21        H      tau(  21) = (   0.5000000   0.9142500   0.2816900  )
        22        H      tau(  22) = (   0.5000000   0.0857500   1.1605072  )
        23        H      tau(  23) = (   0.0000000   0.0857500   1.0027885  )
        24        H      tau(  24) = (   0.0000000   0.9142500   0.4394086  )

     number of k points=   144

     Number of k-points >= 100: set verbosity='high' to print them.

     Dense  grid:   101277 G-vectors     FFT dimensions: (  54,  54,  75)

     Estimated max dynamical RAM per process >      11.89 MB

     Estimated total dynamical RAM >       1.41 GB

     Initial potential from superposition of free atoms

     starting charge      63.9998, renormalised to      64.0000
     Starting wfcs are   48 randomized atomic wfcs

     total cpu time spent up to now is        1.4 secs

     per-process dynamical memory:    18.4 Mb

     Self-consistent Calculation

     iteration #  1     ecut=    90.00 Ry     beta= 0.70
     Davidson diagonalization with overlap
     ethr =  1.00E-02,  avg # of iterations =  2.0

     total cpu time spent up to now is        3.4 secs

     total energy              =    -274.64395629 Ry
     estimated scf accuracy    <       2.80508443 Ry

     iteration #  2     ecut=    90.00 Ry     beta= 0.70
     Davidson diagonalization with overlap
     ethr =  4.38E-03,  avg # of iterations =  3.0

     total cpu time spent up to now is        5.8 secs

     total energy              =    -275.54982585 Ry
     estimated scf accuracy    <       1.17301749 Ry

     iteration #  3     ecut=    90.00 Ry     beta= 0.70
     Davidson diagonalization with overlap
     ethr =  1.83E-03,  avg # of iterations =  2.0

     total cpu time spent up to now is        7.5 secs

     total energy              =    -275.68343274 Ry
     estimated scf accuracy    <       0.04937348 Ry

     iteration #  4     ecut=    90.00 Ry     beta= 0.70
     Davidson diagonalization with overlap
     ethr =  7.71E-05,  avg # of iterations =  4.0

     total cpu time spent up to now is       10.2 secs

     total energy              =    -275.71713146 Ry
     estimated scf accuracy    <       0.06799509 Ry

     iteration #  5     ecut=    90.00 Ry     beta= 0.70
     Davidson diagonalization with overlap
     ethr =  7.71E-05,  avg # of iterations =  2.0

     total cpu time spent up to now is       12.0 secs

     total energy              =    -275.71872608 Ry
     estimated scf accuracy    <       0.01014321 Ry

     iteration #  6     ecut=    90.00 Ry     beta= 0.70
     Davidson diagonalization with overlap
     ethr =  1.58E-05,  avg # of iterations =  3.0

     total cpu time spent up to now is       14.1 secs

     total energy              =    -275.72167501 Ry
     estimated scf accuracy    <       0.00005427 Ry

     iteration #  7     ecut=    90.00 Ry     beta= 0.70
     Davidson diagonalization with overlap
     ethr =  8.48E-08,  avg # of iterations =  6.0

     total cpu time spent up to now is       17.5 secs

     total energy              =    -275.72186127 Ry
     estimated scf accuracy    <       0.00025648 Ry

     iteration #  8     ecut=    90.00 Ry     beta= 0.70
     Davidson diagonalization with overlap
     ethr =  8.48E-08,  avg # of iterations =  3.0

     total cpu time spent up to now is       19.8 secs

     total energy              =    -275.72187342 Ry
     estimated scf accuracy    <       0.00002510 Ry

     iteration #  9     ecut=    90.00 Ry     beta= 0.70
     Davidson diagonalization with overlap
     ethr =  3.92E-08,  avg # of iterations =  3.0

     total cpu time spent up to now is       22.1 secs

     total energy              =    -275.72188249 Ry
     estimated scf accuracy    <       0.00000058 Ry

     iteration # 10     ecut=    90.00 Ry     beta= 0.70
     Davidson diagonalization with overlap
     ethr =  9.13E-10,  avg # of iterations =  3.0

     total cpu time spent up to now is       24.2 secs

     total energy              =    -275.72188241 Ry
     estimated scf accuracy    <       0.00000087 Ry

     iteration # 11     ecut=    90.00 Ry     beta= 0.70
     Davidson diagonalization with overlap
     ethr =  9.13E-10,  avg # of iterations =  2.0

     total cpu time spent up to now is       25.8 secs

     total energy              =    -275.72188232 Ry
     estimated scf accuracy    <       0.00000021 Ry

     iteration # 12     ecut=    90.00 Ry     beta= 0.70
     Davidson diagonalization with overlap
     ethr =  3.33E-10,  avg # of iterations =  2.9

     total cpu time spent up to now is       27.9 secs

     End of self-consistent calculation

     Number of k-points >= 100: set verbosity='high' to print the bands.

     highest occupied level (ev):     0.7582

!    total energy              =    -275.72188240 Ry
     estimated scf accuracy    <       0.00000003 Ry

     The total energy is the sum of the following terms:
     one-electron contribution =    -113.40997186 Ry
     hartree contribution      =      85.94343187 Ry
     xc contribution           =     -68.98969947 Ry
     ewald contribution        =    -179.26564294 Ry

     convergence has been achieved in  12 iterations

     Forces acting on atoms (cartesian axes, Ry/au):

     atom    1 type  2   force =     0.00000000    0.00000001   -0.15521456
     atom    2 type  2   force =     0.00000000   -0.00000001    0.15521456
     atom    3 type  2   force =     0.00000000   -0.00000000   -0.15509941
     atom    4 type  2   force =     0.00000000    0.00000000    0.15509941
     atom    5 type  2   force =     0.00000000    0.00000001   -0.15514436
     atom    6 type  2   force =     0.00000000   -0.00000001    0.15514436
     atom    7 type  2   force =     0.00000000    0.00000003   -0.15516239
     atom    8 type  2   force =     0.00000000   -0.00000003    0.15516239
     atom    9 type  1   force =     0.00000000    0.11738911    0.07892768
     atom   10 type  1   force =     0.00000000   -0.11738911   -0.07892768
     atom   11 type  1   force =     0.00000000   -0.11738809    0.07892368
     atom   12 type  1   force =     0.00000000    0.11738809   -0.07892368
     atom   13 type  1   force =    -0.11738605    0.00000000    0.07892549
     atom   14 type  1   force =     0.11738605   -0.00000000   -0.07892549
     atom   15 type  1   force =     0.11738444    0.00000000    0.07892293
     atom   16 type  1   force =    -0.11738444   -0.00000000   -0.07892293
     atom   17 type  1   force =     0.11738444   -0.00000000   -0.07892293
     atom   18 type  1   force =    -0.11738444    0.00000000    0.07892293
     atom   19 type  1   force =    -0.11738605   -0.00000000   -0.07892549
     atom   20 type  1   force =     0.11738605    0.00000000    0.07892549
     atom   21 type  1   force =     0.00000000    0.11738809    0.07892369
     atom   22 type  1   force =     0.00000000   -0.11738809   -0.07892369
     atom   23 type  1   force =     0.00000000   -0.11738910    0.07892767
     atom   24 type  1   force =     0.00000000    0.11738910   -0.07892767

     Total force =     0.716049     Total SCF correction =     0.000250


     Computing stress (Cartesian axis) and pressure

          total   stress  (Ry/bohr**3)                   (kbar)     P=      306.68
   0.00205787   0.00000000   0.00000000          302.72        0.00        0.00
   0.00000000   0.00205759  -0.00000000            0.00      302.68       -0.00
   0.00000000  -0.00000000   0.00213883            0.00       -0.00      314.63


     BFGS Geometry Optimization
     Energy error            =      0.0E+00 Ry
     Gradient error          =      1.6E-01 Ry/Bohr

     number of scf cycles    =   1
     number of bfgs steps    =   0

     energy             new  =    -275.7218823963 Ry

     new trust radius        =       0.1552145588 bohr
     new conv_thr            =       0.0000001000 Ry


ATOMIC_POSITIONS (crystal)
O                0.0000000000        0.2500000007        0.5961734987
O                0.0000000000        0.7499999993        0.4038265303
O                0.5000000000        0.7499999997        0.0961828887
O                0.5000000000        0.2500000003        0.9038170823
O                0.0000000000        0.7500000016        0.8461792409
O                0.0000000000        0.2499999984        0.1538207881
O                0.5000000000        0.2500000031        0.3461777369
O                0.5000000000        0.7499999969        0.6538222341
H                0.0000000000        0.4280985593        0.7017762841
H                0.0000000000        0.5719014107        0.2982237159
H                0.5000000000        0.5719015312        0.2017759564
H                0.5000000000        0.4280984388        0.7982240436
H                0.8219017709        0.7500000001        0.9517761049
H                0.1780981991        0.2499999999        0.0482238951
H                0.6780980386        0.2500000004        0.4517758953
H                0.3219019914        0.7499999996        0.5482241047
H                0.6780980386        0.7499999996        0.5482241047
H                0.3219019914        0.2500000004        0.4517758953
H                0.8219017709        0.2499999999        0.0482238951
H                0.1780981991        0.7500000001        0.9517761049
H                0.5000000000        0.9280984698        0.2017759572
H                0.5000000000        0.0719015602        0.7982240428
H                0.0000000000        0.0719014421        0.7017762831
H                0.0000000000        0.9280985879        0.2982237169



     Writing config-only to output data dir ./iceVIII/iceVIII.save/ :
     XML data file
     NEW-OLD atomic charge density approx. for the potential

     total cpu time spent up to now is       29.6 secs

     per-process dynamical memory:    20.8 Mb

     Self-consistent Calculation

     iteration #  1     ecut=    90.00 Ry     beta= 0.70
     Davidson diagonalization with overlap
     ethr =  1.00E-06,  avg # of iterations = 11.0

     total cpu time spent up to now is       35.8 secs

     total energy              =    -275.73974705 Ry
     estimated scf accuracy    <       0.16248488 Ry

     iteration #  2     ecut=    90.00 Ry     beta= 0.70
     Davidson diagonalization with overlap
     ethr =  2.54E-04,  avg # of iterations =  3.0

     total cpu time spent up to now is       38.0 secs

     total energy              =    -275.78697846 Ry
     estimated scf accuracy    <       0.04092092 Ry

     iteration #  3     ecut=    90.00 Ry     beta= 0.70
     Davidson diagonalization with overlap
     ethr =  6.39E-05,  avg # of iterations =  2.0

     total cpu time spent up to now is       39.8 secs

     total energy              =    -275.79166683 Ry
     estimated scf accuracy    <       0.00128863 Ry

     iteration #  4     ecut=    90.00 Ry     beta= 0.70
     Davidson diagonalization with overlap
     ethr =  2.01E-06,  avg # of iterations =  5.0

     total cpu time spent up to now is       42.6 secs

     total energy              =    -275.79236794 Ry
     estimated scf accuracy    <       0.00093470 Ry

     iteration #  5     ecut=    90.00 Ry     beta= 0.70
     Davidson diagonalization with overlap
     ethr =  1.46E-06,  avg # of iterations =  3.0

     total cpu time spent up to now is       44.8 secs

     total energy              =    -275.79264799 Ry
     estimated scf accuracy    <       0.00006594 Ry

     iteration #  6     ecut=    90.00 Ry     beta= 0.70
     Davidson diagonalization with overlap
     ethr =  1.03E-07,  avg # of iterations =  2.0

     total cpu time spent up to now is       46.5 secs

     total energy              =    -275.79265275 Ry
     estimated scf accuracy    <       0.00000687 Ry

     iteration #  7     ecut=    90.00 Ry     beta= 0.70
     Davidson diagonalization with overlap
     ethr =  1.07E-08,  avg # of iterations =  3.0

     total cpu time spent up to now is       48.7 secs

     total energy              =    -275.79265519 Ry
     estimated scf accuracy    <       0.00000073 Ry

     iteration #  8     ecut=    90.00 Ry     beta= 0.70
     Davidson diagonalization with overlap
     ethr =  1.15E-09,  avg # of iterations =  2.0

     total cpu time spent up to now is       50.3 secs

     total energy              =    -275.79265515 Ry
     estimated scf accuracy    <       0.00000028 Ry

     iteration #  9     ecut=    90.00 Ry     beta= 0.70
     Davidson diagonalization with overlap
     ethr =  4.43E-10,  avg # of iterations =  2.0

     total cpu time spent up to now is       51.9 secs

     End of self-consistent calculation

     Number of k-points >= 100: set verbosity='high' to print the bands.

     highest occupied level (ev):     0.9900

!    total energy              =    -275.79265513 Ry
     estimated scf accuracy    <       0.00000006 Ry

     The total energy is the sum of the following terms:
     one-electron contribution =    -100.79244692 Ry
     hartree contribution      =      80.54988268 Ry
     xc contribution           =     -67.49716562 Ry
     ewald contribution        =    -188.05292528 Ry

     convergence has been achieved in   9 iterations

     Forces acting on atoms (cartesian axes, Ry/au):

     atom    1 type  2   force =    -0.00000000    0.00000000    0.10843617
     atom    2 type  2   force =    -0.00000000   -0.00000000   -0.10843617
     atom    3 type  2   force =    -0.00000000    0.00000001    0.10845014
     atom    4 type  2   force =    -0.00000000   -0.00000001   -0.10845014
     atom    5 type  2   force =     0.00000000   -0.00000000    0.10846026
     atom    6 type  2   force =     0.00000000    0.00000000   -0.10846026
     atom    7 type  2   force =    -0.00000000   -0.00000001    0.10844629
     atom    8 type  2   force =    -0.00000000    0.00000001   -0.10844629
     atom    9 type  1   force =     0.00000000   -0.02721436   -0.04652587
     atom   10 type  1   force =     0.00000000    0.02721436    0.04652587
     atom   11 type  1   force =     0.00000000    0.02719464   -0.04649584
     atom   12 type  1   force =     0.00000000   -0.02719464    0.04649584
     atom   13 type  1   force =     0.02720231    0.00000000   -0.04651121
     atom   14 type  1   force =    -0.02720231   -0.00000000    0.04651121
     atom   15 type  1   force =    -0.02720238    0.00000000   -0.04650605
     atom   16 type  1   force =     0.02720238   -0.00000000    0.04650605
     atom   17 type  1   force =    -0.02720238   -0.00000000    0.04650605
     atom   18 type  1   force =     0.02720238    0.00000000   -0.04650605
     atom   19 type  1   force =     0.02720231   -0.00000000    0.04651121
     atom   20 type  1   force =    -0.02720231    0.00000000   -0.04651121
     atom   21 type  1   force =     0.00000000   -0.02719465   -0.04649584
     atom   22 type  1   force =     0.00000000    0.02719465    0.04649584
     atom   23 type  1   force =     0.00000000    0.02721436   -0.04652587
     atom   24 type  1   force =     0.00000000   -0.02721436    0.04652587

     Total force =     0.374885     Total SCF correction =     0.000401


     Computing stress (Cartesian axis) and pressure

          total   stress  (Ry/bohr**3)                   (kbar)     P=      -32.32
  -0.00002204   0.00000000   0.00000000           -3.24        0.00        0.00
   0.00000000  -0.00002230  -0.00000000            0.00       -3.28       -0.00
   0.00000000  -0.00000000  -0.00061477            0.00       -0.00      -90.44

     Energy error            =      7.1E-02 Ry
     Gradient error          =      1.1E-01 Ry/Bohr

     number of scf cycles    =   2
     number of bfgs steps    =   1

     energy             old  =    -275.7218823963 Ry
     energy             new  =    -275.7926551349 Ry

     CASE: energy            _new < energy            _old

     new trust radius        =       0.0701147772 bohr
     new conv_thr            =       0.0000001000 Ry


ATOMIC_POSITIONS (crystal)
O                0.0000000000        0.2500000008        0.6019074209
O                0.0000000000        0.7499999992        0.3980926081
O                0.5000000000        0.7500000004        0.1019177869
O                0.5000000000        0.2499999996        0.8980821841
O                0.0000000000        0.7500000014        0.8519146204
O                0.0000000000        0.2499999986        0.1480854086
O                0.5000000000        0.2500000027        0.3519123113
O                0.5000000000        0.7499999973        0.6480876597
H                0.0000000000        0.4262218361        0.6993377315
H                0.0000000000        0.5737781339        0.3006622685
H                0.5000000000        0.5737766813        0.1993390602
H                0.5000000000        0.4262232887        0.8006609398
H                0.8237775391        0.7500000002        0.9493383604
H                0.1762224309        0.2499999998        0.0506616396
H                0.6762222612        0.2500000005        0.4493384323
H                0.3237777688        0.7499999995        0.5506615677
H                0.6762222612        0.7499999995        0.5506615677
H                0.3237777688        0.2500000005        0.4493384323
H                0.8237775391        0.2499999998        0.0506616396
H                0.1762224309        0.7500000002        0.9493383604
H                0.5000000000        0.9262233192        0.1993390606
H                0.5000000000        0.0737767108        0.8006609394
H                0.0000000000        0.0737781651        0.6993377307
H                0.0000000000        0.9262218649        0.3006622693



     Writing config-only to output data dir ./iceVIII/iceVIII.save/ :
     XML data file
     NEW-OLD atomic charge density approx. for the potential

     total cpu time spent up to now is       53.5 secs

     per-process dynamical memory:    22.0 Mb

     Self-consistent Calculation

     iteration #  1     ecut=    90.00 Ry     beta= 0.70
     Davidson diagonalization with overlap
     ethr =  1.00E-06,  avg # of iterations =  9.0

     total cpu time spent up to now is       58.6 secs

     total energy              =    -275.84869142 Ry
     estimated scf accuracy    <       0.01675540 Ry

     iteration #  2     ecut=    90.00 Ry     beta= 0.70
     Davidson diagonalization with overlap
     ethr =  2.62E-05,  avg # of iterations =  2.0

     total cpu time spent up to now is       60.7 secs

     total energy              =    -275.85361331 Ry
     estimated scf accuracy    <       0.00314054 Ry

     iteration #  3     ecut=    90.00 Ry     beta= 0.70
     Davidson diagonalization with overlap
     ethr =  4.91E-06,  avg # of iterations =  2.0

     total cpu time spent up to now is       62.3 secs

     total energy              =    -275.85383511 Ry
     estimated scf accuracy    <       0.00014695 Ry

     iteration #  4     ecut=    90.00 Ry     beta= 0.70
     Davidson diagonalization with overlap
     ethr =  2.30E-07,  avg # of iterations =  2.7

     total cpu time spent up to now is       64.4 secs

     total energy              =    -275.85389370 Ry
     estimated scf accuracy    <       0.00005794 Ry

     iteration #  5     ecut=    90.00 Ry     beta= 0.70
     Davidson diagonalization with overlap
     ethr =  9.05E-08,  avg # of iterations =  3.0

     total cpu time spent up to now is       66.6 secs

     total energy              =    -275.85391071 Ry
     estimated scf accuracy    <       0.00000760 Ry

     iteration #  6     ecut=    90.00 Ry     beta= 0.70
     Davidson diagonalization with overlap
     ethr =  1.19E-08,  avg # of iterations =  2.0

     total cpu time spent up to now is       68.4 secs

     total energy              =    -275.85391218 Ry
     estimated scf accuracy    <       0.00000011 Ry

     iteration #  7     ecut=    90.00 Ry     beta= 0.70
     Davidson diagonalization with overlap
     ethr =  1.71E-10,  avg # of iterations =  4.1

     total cpu time spent up to now is       70.9 secs

     total energy              =    -275.85391219 Ry
     estimated scf accuracy    <       0.00000011 Ry

     iteration #  8     ecut=    90.00 Ry     beta= 0.70
     Davidson diagonalization with overlap
     ethr =  1.71E-10,  avg # of iterations =  2.0

     total cpu time spent up to now is       72.9 secs

     End of self-consistent calculation

     Number of k-points >= 100: set verbosity='high' to print the bands.

     highest occupied level (ev):     0.9303

!    total energy              =    -275.85391222 Ry
     estimated scf accuracy    <          1.7E-10 Ry

     The total energy is the sum of the following terms:
     one-electron contribution =    -103.98103586 Ry
     hartree contribution      =      81.88454685 Ry
     xc contribution           =     -67.91998683 Ry
     ewald contribution        =    -185.83743637 Ry

     convergence has been achieved in   8 iterations

     Forces acting on atoms (cartesian axes, Ry/au):

     atom    1 type  2   force =     0.00000000    0.00000000    0.03881634
     atom    2 type  2   force =     0.00000000   -0.00000000   -0.03881634
     atom    3 type  2   force =    -0.00000000    0.00000000    0.03869153
     atom    4 type  2   force =    -0.00000000   -0.00000000   -0.03869153
     atom    5 type  2   force =     0.00000000   -0.00000000    0.03874499
     atom    6 type  2   force =     0.00000000    0.00000000   -0.03874499
     atom    7 type  2   force =    -0.00000000   -0.00000000    0.03875748
     atom    8 type  2   force =    -0.00000000    0.00000000   -0.03875748
     atom    9 type  1   force =     0.00000000   -0.00510252   -0.01452787
     atom   10 type  1   force =     0.00000000    0.00510252    0.01452787
     atom   11 type  1   force =     0.00000000    0.00507988   -0.01449974
     atom   12 type  1   force =     0.00000000   -0.00507988    0.01449974
     atom   13 type  1   force =     0.00508597    0.00000000   -0.01450851
     atom   14 type  1   force =    -0.00508597   -0.00000000    0.01450851
     atom   15 type  1   force =    -0.00508976    0.00000000   -0.01451283
     atom   16 type  1   force =     0.00508976   -0.00000000    0.01451283
     atom   17 type  1   force =    -0.00508976   -0.00000000    0.01451283
     atom   18 type  1   force =     0.00508976    0.00000000   -0.01451283
     atom   19 type  1   force =     0.00508597   -0.00000000    0.01450851
     atom   20 type  1   force =    -0.00508597    0.00000000   -0.01450851
     atom   21 type  1   force =     0.00000000   -0.00507988   -0.01449974
     atom   22 type  1   force =     0.00000000    0.00507988    0.01449974
     atom   23 type  1   force =     0.00000000    0.00510252   -0.01452787
     atom   24 type  1   force =     0.00000000   -0.00510252    0.01452787

     Total force =     0.125691     Total SCF correction =     0.000012


     Computing stress (Cartesian axis) and pressure

          total   stress  (Ry/bohr**3)                   (kbar)     P=       46.60
   0.00038567   0.00000000   0.00000000           56.73        0.00        0.00
   0.00000000   0.00038538  -0.00000000            0.00       56.69       -0.00
   0.00000000  -0.00000000   0.00017937            0.00       -0.00       26.39

     Energy error            =      6.1E-02 Ry
     Gradient error          =      3.9E-02 Ry/Bohr

     number of scf cycles    =   3
     number of bfgs steps    =   2

     energy             old  =    -275.7926551349 Ry
     energy             new  =    -275.8539122163 Ry

     CASE: energy            _new < energy            _old

     new trust radius        =       0.0400211007 bohr
     new conv_thr            =       0.0000001000 Ry


ATOMIC_POSITIONS (crystal)
O                0.0000000000        0.2500000009        0.6051811416
O                0.0000000000        0.7499999991        0.3948188874
O                0.5000000000        0.7500000005        0.1051761853
O                0.5000000000        0.2499999995        0.8948237857
O                0.0000000000        0.7500000012        0.8551793978
O                0.0000000000        0.2499999988        0.1448206312
O                0.5000000000        0.2500000022        0.3551787616
O                0.5000000000        0.7499999978        0.6448212094
H                0.0000000000        0.4260058221        0.6982101120
H                0.0000000000        0.5739941479        0.3017898880
H                0.5000000000        0.5739890298        0.1982145304
H                0.5000000000        0.4260109402        0.8017854696
H                0.8239908377        0.7500000003        0.9482129394
H                0.1760091323        0.2499999997        0.0517870606
H                0.6760082913        0.2500000007        0.4482124166
H                0.3239917387        0.7499999993        0.5517875834
H                0.6760082913        0.7499999993        0.5517875834
H                0.3239917387        0.2500000007        0.4482124166
H                0.8239908377        0.2499999997        0.0517870606
H                0.1760091323        0.7500000003        0.9482129394
H                0.5000000000        0.9260109706        0.1982145307
H                0.5000000000        0.0739890594        0.8017854693
H                0.0000000000        0.0739941789        0.6982101113
H                0.0000000000        0.9260058511        0.3017898887



     Writing config-only to output data dir ./iceVIII/iceVIII.save/ :
     XML data file
     NEW-OLD atomic charge density approx. for the potential

     total cpu time spent up to now is       74.5 secs

     per-process dynamical memory:    22.0 Mb

     Self-consistent Calculation

     iteration #  1     ecut=    90.00 Ry     beta= 0.70
     Davidson diagonalization with overlap
     ethr =  1.00E-06,  avg # of iterations =  7.5

     total cpu time spent up to now is       78.7 secs

     total energy              =    -275.85967026 Ry
     estimated scf accuracy    <       0.00450669 Ry

     iteration #  2     ecut=    90.00 Ry     beta= 0.70
     Davidson diagonalization with overlap
     ethr =  7.04E-06,  avg # of iterations =  2.0

     total cpu time spent up to now is       80.7 secs

     total energy              =    -275.86090894 Ry
     estimated scf accuracy    <       0.00075573 Ry

     iteration #  3     ecut=    90.00 Ry     beta= 0.70
     Davidson diagonalization with overlap
     ethr =  1.18E-06,  avg # of iterations =  2.0

     total cpu time spent up to now is       82.5 secs

     total energy              =    -275.86098047 Ry
     estimated scf accuracy    <       0.00002882 Ry

     iteration #  4     ecut=    90.00 Ry     beta= 0.70
     Davidson diagonalization with overlap
     ethr =  4.50E-08,  avg # of iterations =  3.0

     total cpu time spent up to now is       84.7 secs

     total energy              =    -275.86099223 Ry
     estimated scf accuracy    <       0.00001001 Ry

     iteration #  5     ecut=    90.00 Ry     beta= 0.70
     Davidson diagonalization with overlap
     ethr =  1.56E-08,  avg # of iterations =  3.0

     total cpu time spent up to now is       87.0 secs

     total energy              =    -275.86099499 Ry
     estimated scf accuracy    <       0.00000210 Ry

     iteration #  6     ecut=    90.00 Ry     beta= 0.70
     Davidson diagonalization with overlap
     ethr =  3.28E-09,  avg # of iterations =  2.0

     total cpu time spent up to now is       88.9 secs

     End of self-consistent calculation

     Number of k-points >= 100: set verbosity='high' to print the bands.

     highest occupied level (ev):     0.9105

!    total energy              =    -275.86099540 Ry
     estimated scf accuracy    <       0.00000002 Ry

     The total energy is the sum of the following terms:
     one-electron contribution =    -105.57442456 Ry
     hartree contribution      =      82.55945357 Ry
     xc contribution           =     -68.12654758 Ry
     ewald contribution        =    -184.71947682 Ry

     convergence has been achieved in   6 iterations

     Forces acting on atoms (cartesian axes, Ry/au):

     atom    1 type  2   force =     0.00000000   -0.00000000   -0.00197386
     atom    2 type  2   force =     0.00000000    0.00000000    0.00197386
     atom    3 type  2   force =     0.00000000   -0.00000000   -0.00184514
     atom    4 type  2   force =     0.00000000    0.00000000    0.00184514
     atom    5 type  2   force =     0.00000000   -0.00000000   -0.00185037
     atom    6 type  2   force =     0.00000000    0.00000000    0.00185037
     atom    7 type  2   force =    -0.00000000   -0.00000000   -0.00195866
     atom    8 type  2   force =    -0.00000000    0.00000000    0.00195866
     atom    9 type  1   force =     0.00000000    0.00848023    0.00437030
     atom   10 type  1   force =     0.00000000   -0.00848023   -0.00437030
     atom   11 type  1   force =     0.00000000   -0.00841679    0.00430893
     atom   12 type  1   force =     0.00000000    0.00841679   -0.00430893
     atom   13 type  1   force =    -0.00844397    0.00000000    0.00433771
     atom   14 type  1   force =     0.00844397   -0.00000000   -0.00433771
     atom   15 type  1   force =     0.00844825    0.00000000    0.00433908
     atom   16 type  1   force =    -0.00844825   -0.00000000   -0.00433908
     atom   17 type  1   force =     0.00844825   -0.00000000   -0.00433908
     atom   18 type  1   force =    -0.00844825    0.00000000    0.00433908
     atom   19 type  1   force =    -0.00844397   -0.00000000   -0.00433771
     atom   20 type  1   force =     0.00844397    0.00000000    0.00433771
     atom   21 type  1   force =     0.00000000    0.00841680    0.00430893
     atom   22 type  1   force =     0.00000000   -0.00841680   -0.00430893
     atom   23 type  1   force =     0.00000000   -0.00848022    0.00437030
     atom   24 type  1   force =     0.00000000    0.00848022   -0.00437030

     Total force =     0.038368     Total SCF correction =     0.000547


     Computing stress (Cartesian axis) and pressure

          total   stress  (Ry/bohr**3)                   (kbar)     P=       88.03
   0.00061039   0.00000000   0.00000000           89.79        0.00        0.00
   0.00000000   0.00061021   0.00000000            0.00       89.76        0.00
   0.00000000   0.00000000   0.00057470            0.00        0.00       84.54

     Energy error            =      7.1E-03 Ry
     Gradient error          =      8.5E-03 Ry/Bohr

     number of scf cycles    =   4
     number of bfgs steps    =   3

     energy             old  =    -275.8539122163 Ry
     energy             new  =    -275.8609954019 Ry

     CASE: energy            _new < energy            _old

     new trust radius        =       0.0076279267 bohr
     new conv_thr            =       0.0000000708 Ry


ATOMIC_POSITIONS (crystal)
O                0.0000000000        0.2500000007        0.6053046011
O                0.0000000000        0.7499999993        0.3946954279
O                0.5000000000        0.7500000004        0.1053090654
O                0.5000000000        0.2499999996        0.8946909056
O                0.0000000000        0.7500000010        0.8553119487
O                0.0000000000        0.2499999990        0.1446880803
O                0.5000000000        0.2500000020        0.3553033348
O                0.5000000000        0.7499999980        0.6446966362
H                0.0000000000        0.4268523312        0.6984217972
H                0.0000000000        0.5731476388        0.3015782028
H                0.5000000000        0.5731491284        0.1984218163
H                0.5000000000        0.4268508416        0.8015781837
H                0.8231480997        0.7500000003        0.9484222884
H                0.1768518703        0.2499999997        0.0515777116
H                0.6768514774        0.2500000008        0.4484218753
H                0.3231485526        0.7499999992        0.5515781247
H                0.6768514774        0.7499999992        0.5515781247
H                0.3231485526        0.2500000008        0.4484218753
H                0.8231480997        0.2499999997        0.0515777116
H                0.1768518703        0.7500000003        0.9484222884
H                0.5000000000        0.9268508720        0.1984218165
H                0.5000000000        0.0731491580        0.8015781835
H                0.0000000000        0.0731476699        0.6984217966
H                0.0000000000        0.9268523601        0.3015782034



     Writing config-only to output data dir ./iceVIII/iceVIII.save/ :
     XML data file
     NEW-OLD atomic charge density approx. for the potential

     total cpu time spent up to now is       90.5 secs

     per-process dynamical memory:    22.0 Mb

     Self-consistent Calculation

     iteration #  1     ecut=    90.00 Ry     beta= 0.70
     Davidson diagonalization with overlap
     ethr =  1.00E-06,  avg # of iterations =  3.0

     total cpu time spent up to now is       92.7 secs

     total energy              =    -275.86182262 Ry
     estimated scf accuracy    <       0.00006536 Ry

     iteration #  2     ecut=    90.00 Ry     beta= 0.70
     Davidson diagonalization with overlap
     ethr =  1.02E-07,  avg # of iterations =  2.9

     total cpu time spent up to now is       94.8 secs

     total energy              =    -275.86184400 Ry
     estimated scf accuracy    <       0.00001149 Ry

     iteration #  3     ecut=    90.00 Ry     beta= 0.70
     Davidson diagonalization with overlap
     ethr =  1.80E-08,  avg # of iterations =  2.0

     total cpu time spent up to now is       96.7 secs

     total energy              =    -275.86184576 Ry
     estimated scf accuracy    <       0.00000033 Ry

     iteration #  4     ecut=    90.00 Ry     beta= 0.70
     Davidson diagonalization with overlap
     ethr =  5.13E-10,  avg # of iterations =  3.9

     total cpu time spent up to now is       99.3 secs

     total energy              =    -275.86184581 Ry
     estimated scf accuracy    <       0.00000021 Ry

     iteration #  5     ecut=    90.00 Ry     beta= 0.70
     Davidson diagonalization with overlap
     ethr =  3.30E-10,  avg # of iterations =  3.0

     total cpu time spent up to now is      101.7 secs

     total energy              =    -275.86184588 Ry
     estimated scf accuracy    <       0.00000010 Ry

     iteration #  6     ecut=    90.00 Ry     beta= 0.70
     Davidson diagonalization with overlap
     ethr =  1.53E-10,  avg # of iterations =  2.0

     total cpu time spent up to now is      103.4 secs

     End of self-consistent calculation

     Number of k-points >= 100: set verbosity='high' to print the bands.

     highest occupied level (ev):     0.9195

!    total energy              =    -275.86184589 Ry
     estimated scf accuracy    <          3.5E-09 Ry

     The total energy is the sum of the following terms:
     one-electron contribution =    -105.20166183 Ry
     hartree contribution      =      82.39820744 Ry
     xc contribution           =     -68.08809603 Ry
     ewald contribution        =    -184.97029547 Ry

     convergence has been achieved in   6 iterations

     Forces acting on atoms (cartesian axes, Ry/au):

     atom    1 type  2   force =    -0.00000000    0.00000000    0.00241872
     atom    2 type  2   force =    -0.00000000   -0.00000000   -0.00241872
     atom    3 type  2   force =     0.00000000    0.00000000    0.00238364
     atom    4 type  2   force =     0.00000000   -0.00000000   -0.00238364
     atom    5 type  2   force =     0.00000000   -0.00000000    0.00241863
     atom    6 type  2   force =     0.00000000    0.00000000   -0.00241863
     atom    7 type  2   force =     0.00000000   -0.00000000    0.00238030
     atom    8 type  2   force =     0.00000000    0.00000000   -0.00238030
     atom    9 type  1   force =     0.00000000    0.00404953    0.00216978
     atom   10 type  1   force =     0.00000000   -0.00404953   -0.00216978
     atom   11 type  1   force =     0.00000000   -0.00407359    0.00218883
     atom   12 type  1   force =     0.00000000    0.00407359   -0.00218883
     atom   13 type  1   force =    -0.00407530    0.00000000    0.00219779
     atom   14 type  1   force =     0.00407530   -0.00000000   -0.00219779
     atom   15 type  1   force =     0.00404802    0.00000000    0.00216373
     atom   16 type  1   force =    -0.00404802   -0.00000000   -0.00216373
     atom   17 type  1   force =     0.00404802   -0.00000000   -0.00216373
     atom   18 type  1   force =    -0.00404802    0.00000000    0.00216373
     atom   19 type  1   force =    -0.00407530   -0.00000000   -0.00219779
     atom   20 type  1   force =     0.00407530    0.00000000    0.00219779
     atom   21 type  1   force =     0.00000000    0.00407359    0.00218883
     atom   22 type  1   force =     0.00000000   -0.00407359   -0.00218883
     atom   23 type  1   force =     0.00000000   -0.00404953    0.00216979
     atom   24 type  1   force =     0.00000000    0.00404953   -0.00216979

     Total force =     0.019649     Total SCF correction =     0.000051


     Computing stress (Cartesian axis) and pressure

          total   stress  (Ry/bohr**3)                   (kbar)     P=       78.97
   0.00054694   0.00000000   0.00000000           80.46        0.00        0.00
   0.00000000   0.00054669  -0.00000000            0.00       80.42       -0.00
   0.00000000  -0.00000000   0.00051678            0.00       -0.00       76.02

     Energy error            =      8.5E-04 Ry
     Gradient error          =      4.1E-03 Ry/Bohr

     number of scf cycles    =   5
     number of bfgs steps    =   4

     energy             old  =    -275.8609954019 Ry
     energy             new  =    -275.8618458863 Ry

     CASE: energy            _new < energy            _old

     new trust radius        =       0.0083907193 bohr
     new conv_thr            =       0.0000000085 Ry


ATOMIC_POSITIONS (crystal)
O               -0.0000000000        0.2500000008        0.6058836884
O               -0.0000000000        0.7499999992        0.3941163406
O                0.5000000000        0.7500000004        0.1058860915
O                0.5000000000        0.2499999996        0.8941138795
O                0.0000000000        0.7500000008        0.8558933098
O                0.0000000000        0.2499999992        0.1441067192
O                0.5000000000        0.2500000016        0.3558779010
O                0.5000000000        0.7499999984        0.6441220700
H                0.0000000000        0.4277825188        0.6986469922
H                0.0000000000        0.5722174512        0.3013530078
H                0.5000000000        0.5722165037        0.1986481966
H                0.5000000000        0.4277834663        0.8013518034
H                0.8222144307        0.7500000004        0.9486502607
H                0.1777855393        0.2499999996        0.0513497393
H                0.6777805689        0.2500000009        0.4486458131
H                0.3222194611        0.7499999991        0.5513541869
H                0.6777805689        0.7499999991        0.5513541869
H                0.3222194611        0.2500000009        0.4486458131
H                0.8222144307        0.2499999996        0.0513497393
H                0.1777855393        0.7500000004        0.9486502607
H                0.5000000000        0.9277834967        0.1986481968
H                0.5000000000        0.0722165333        0.8013518032
H                0.0000000000        0.0722174822        0.6986469917
H                0.0000000000        0.9277825478        0.3013530083



     Writing config-only to output data dir ./iceVIII/iceVIII.save/ :
     XML data file
     NEW-OLD atomic charge density approx. for the potential

     total cpu time spent up to now is      105.0 secs

     per-process dynamical memory:    22.0 Mb

     Self-consistent Calculation

     iteration #  1     ecut=    90.00 Ry     beta= 0.70
     Davidson diagonalization with overlap
     ethr =  1.00E-06,  avg # of iterations =  3.0

     Threshold (ethr) on eigenvalues was too large:
     Diagonalizing with lowered threshold

     Davidson diagonalization with overlap
     ethr =  8.26E-08,  avg # of iterations =  3.3

     total cpu time spent up to now is      109.4 secs

     total energy              =    -275.86236788 Ry
     estimated scf accuracy    <       0.00006673 Ry

     iteration #  2     ecut=    90.00 Ry     beta= 0.70
     Davidson diagonalization with overlap
     ethr =  1.04E-07,  avg # of iterations =  2.0

     total cpu time spent up to now is      111.3 secs

     total energy              =    -275.86237927 Ry
     estimated scf accuracy    <       0.00000662 Ry

     iteration #  3     ecut=    90.00 Ry     beta= 0.70
     Davidson diagonalization with overlap
     ethr =  1.03E-08,  avg # of iterations =  2.0

     total cpu time spent up to now is      113.3 secs

     total energy              =    -275.86238070 Ry
     estimated scf accuracy    <       0.00000040 Ry

     iteration #  4     ecut=    90.00 Ry     beta= 0.70
     Davidson diagonalization with overlap
     ethr =  6.31E-10,  avg # of iterations =  2.0

     total cpu time spent up to now is      114.9 secs

     total energy              =    -275.86238072 Ry
     estimated scf accuracy    <       0.00000004 Ry

     iteration #  5     ecut=    90.00 Ry     beta= 0.70
     Davidson diagonalization with overlap
     ethr =  6.93E-11,  avg # of iterations =  3.0

     total cpu time spent up to now is      117.1 secs

     total energy              =    -275.86238074 Ry
     estimated scf accuracy    <       0.00000001 Ry

     iteration #  6     ecut=    90.00 Ry     beta= 0.70
     Davidson diagonalization with overlap
     ethr =  1.66E-11,  avg # of iterations =  2.9

     total cpu time spent up to now is      119.2 secs

     End of self-consistent calculation

     Number of k-points >= 100: set verbosity='high' to print the bands.

     highest occupied level (ev):     0.9282

!    total energy              =    -275.86238074 Ry
     estimated scf accuracy    <          1.3E-09 Ry

     The total energy is the sum of the following terms:
     one-electron contribution =    -104.92866481 Ry
     hartree contribution      =      82.27667791 Ry
     xc contribution           =     -68.06498292 Ry
     ewald contribution        =    -185.14541092 Ry

     convergence has been achieved in   6 iterations

     Forces acting on atoms (cartesian axes, Ry/au):

     atom    1 type  2   force =     0.00000000   -0.00000000    0.00281095
     atom    2 type  2   force =     0.00000000    0.00000000   -0.00281095
     atom    3 type  2   force =     0.00000000   -0.00000000    0.00284674
     atom    4 type  2   force =     0.00000000    0.00000000   -0.00284674
     atom    5 type  2   force =     0.00000000   -0.00000000    0.00284529
     atom    6 type  2   force =     0.00000000    0.00000000   -0.00284529
     atom    7 type  2   force =     0.00000000   -0.00000000    0.00281255
     atom    8 type  2   force =     0.00000000    0.00000000   -0.00281255
     atom    9 type  1   force =     0.00000000    0.00068563    0.00175409
     atom   10 type  1   force =     0.00000000   -0.00068563   -0.00175409
     atom   11 type  1   force =     0.00000000   -0.00068546    0.00175121
     atom   12 type  1   force =     0.00000000    0.00068546   -0.00175121
     atom   13 type  1   force =    -0.00069006    0.00000000    0.00177093
     atom   14 type  1   force =     0.00069006   -0.00000000   -0.00177093
     atom   15 type  1   force =     0.00067793    0.00000000    0.00173517
     atom   16 type  1   force =    -0.00067793   -0.00000000   -0.00173517
     atom   17 type  1   force =     0.00067793   -0.00000000   -0.00173517
     atom   18 type  1   force =    -0.00067793    0.00000000    0.00173517
     atom   19 type  1   force =    -0.00069006   -0.00000000   -0.00177093
     atom   20 type  1   force =     0.00069006    0.00000000    0.00177093
     atom   21 type  1   force =     0.00000000    0.00068546    0.00175121
     atom   22 type  1   force =     0.00000000   -0.00068546   -0.00175121
     atom   23 type  1   force =     0.00000000   -0.00068563    0.00175409
     atom   24 type  1   force =     0.00000000    0.00068563   -0.00175409

     Total force =     0.010986     Total SCF correction =     0.000031


     Computing stress (Cartesian axis) and pressure

          total   stress  (Ry/bohr**3)                   (kbar)     P=       72.73
   0.00049726   0.00000000   0.00000000           73.15        0.00        0.00
   0.00000000   0.00049703   0.00000000            0.00       73.12        0.00
   0.00000000   0.00000000   0.00048900            0.00        0.00       71.93

     Energy error            =      5.3E-04 Ry
     Gradient error          =      2.8E-03 Ry/Bohr

     number of scf cycles    =   6
     number of bfgs steps    =   5

     energy             old  =    -275.8618458863 Ry
     energy             new  =    -275.8623807435 Ry

     CASE: energy            _new < energy            _old

     new trust radius        =       0.0088882147 bohr
     new conv_thr            =       0.0000000053 Ry


ATOMIC_POSITIONS (crystal)
O                0.0000000000        0.2500000004        0.6066021961
O                0.0000000000        0.7499999996        0.3933978329
O                0.5000000000        0.7500000002        0.1066120885
O                0.5000000000        0.2499999998        0.8933878825
O                0.0000000000        0.7500000006        0.8566203646
O                0.0000000000        0.2499999994        0.1433796644
O                0.5000000000        0.2500000011        0.3565955782
O                0.5000000000        0.7499999989        0.6434043928
H                0.0000000000        0.4284922739        0.6990013303
H                0.0000000000        0.5715076961        0.3009986697
H                0.5000000000        0.5715083609        0.1990009739
H                0.5000000000        0.4284916091        0.8009990261
H                0.8215040658        0.7500000005        0.9490070273
H                0.1784959042        0.2499999995        0.0509929727
H                0.6784873040        0.2500000010        0.4489963359
H                0.3215127260        0.7499999990        0.5510036641
H                0.6784873040        0.7499999990        0.5510036641
H                0.3215127260        0.2500000010        0.4489963359
H                0.8215040658        0.2499999995        0.0509929727
H                0.1784959042        0.7500000005        0.9490070273
H                0.5000000000        0.9284916397        0.1990009740
H                0.5000000000        0.0715083903        0.8009990260
H                0.0000000000        0.0715077272        0.6990013299
H                0.0000000000        0.9284923028        0.3009986701



     Writing config-only to output data dir ./iceVIII/iceVIII.save/ :
     XML data file
     NEW-OLD atomic charge density approx. for the potential

     total cpu time spent up to now is      120.8 secs

     per-process dynamical memory:    22.0 Mb

     Self-consistent Calculation

     iteration #  1     ecut=    90.00 Ry     beta= 0.70
     Davidson diagonalization with overlap
     ethr =  1.00E-06,  avg # of iterations =  4.0

     Threshold (ethr) on eigenvalues was too large:
     Diagonalizing with lowered threshold

     Davidson diagonalization with overlap
     ethr =  9.96E-08,  avg # of iterations =  2.1

     total cpu time spent up to now is      125.4 secs

     total energy              =    -275.86262247 Ry
     estimated scf accuracy    <       0.00007547 Ry

     iteration #  2     ecut=    90.00 Ry     beta= 0.70
     Davidson diagonalization with overlap
     ethr =  1.18E-07,  avg # of iterations =  2.0

     total cpu time spent up to now is      127.2 secs

     total energy              =    -275.86263417 Ry
     estimated scf accuracy    <       0.00000360 Ry

     iteration #  3     ecut=    90.00 Ry     beta= 0.70
     Davidson diagonalization with overlap
     ethr =  5.62E-09,  avg # of iterations =  2.1

     total cpu time spent up to now is      129.2 secs

     total energy              =    -275.86263487 Ry
     estimated scf accuracy    <       0.00000038 Ry

     iteration #  4     ecut=    90.00 Ry     beta= 0.70
     Davidson diagonalization with overlap
     ethr =  5.97E-10,  avg # of iterations =  2.1

     total cpu time spent up to now is      131.1 secs

     total energy              =    -275.86263494 Ry
     estimated scf accuracy    <       0.00000002 Ry

     iteration #  5     ecut=    90.00 Ry     beta= 0.70
     Davidson diagonalization with overlap
     ethr =  3.67E-11,  avg # of iterations =  2.9

     total cpu time spent up to now is      133.0 secs

     End of self-consistent calculation

     Number of k-points >= 100: set verbosity='high' to print the bands.

     highest occupied level (ev):     0.9356

!    total energy              =    -275.86263495 Ry
     estimated scf accuracy    <          1.1E-09 Ry

     The total energy is the sum of the following terms:
     one-electron contribution =    -104.72749472 Ry
     hartree contribution      =      82.18575185 Ry
     xc contribution           =     -68.05182109 Ry
     ewald contribution        =    -185.26907098 Ry

     convergence has been achieved in   5 iterations

     Forces acting on atoms (cartesian axes, Ry/au):

     atom    1 type  2   force =     0.00000000    0.00000000    0.00201901
     atom    2 type  2   force =     0.00000000   -0.00000000   -0.00201901
     atom    3 type  2   force =     0.00000000    0.00000000    0.00199324
     atom    4 type  2   force =     0.00000000   -0.00000000   -0.00199324
     atom    5 type  2   force =     0.00000000   -0.00000000    0.00200918
     atom    6 type  2   force =     0.00000000    0.00000000   -0.00200918
     atom    7 type  2   force =     0.00000000   -0.00000000    0.00199692
     atom    8 type  2   force =     0.00000000    0.00000000   -0.00199692
     atom    9 type  1   force =     0.00000000   -0.00156911    0.00182661
     atom   10 type  1   force =     0.00000000    0.00156911   -0.00182661
     atom   11 type  1   force =     0.00000000    0.00152726    0.00186807
     atom   12 type  1   force =     0.00000000   -0.00152726   -0.00186807
     atom   13 type  1   force =     0.00154650   -0.00000000    0.00186911
     atom   14 type  1   force =    -0.00154650    0.00000000   -0.00186911
     atom   15 type  1   force =    -0.00154972   -0.00000000    0.00182867
     atom   16 type  1   force =     0.00154972    0.00000000   -0.00182867
     atom   17 type  1   force =    -0.00154972    0.00000000   -0.00182867
     atom   18 type  1   force =     0.00154972   -0.00000000    0.00182867
     atom   19 type  1   force =     0.00154650    0.00000000   -0.00186911
     atom   20 type  1   force =    -0.00154650   -0.00000000    0.00186911
     atom   21 type  1   force =     0.00000000   -0.00152726    0.00186807
     atom   22 type  1   force =     0.00000000    0.00152726   -0.00186807
     atom   23 type  1   force =     0.00000000    0.00156911    0.00182661
     atom   24 type  1   force =     0.00000000   -0.00156911   -0.00182661

     Total force =     0.011187     Total SCF correction =     0.000046


     Computing stress (Cartesian axis) and pressure

          total   stress  (Ry/bohr**3)                   (kbar)     P=       69.09
   0.00046579   0.00000000   0.00000000           68.52        0.00        0.00
   0.00000000   0.00046553  -0.00000000            0.00       68.48       -0.00
   0.00000000  -0.00000000   0.00047761            0.00       -0.00       70.26

     Energy error            =      2.5E-04 Ry
     Gradient error          =      2.0E-03 Ry/Bohr

     number of scf cycles    =   7
     number of bfgs steps    =   6

     energy             old  =    -275.8623807435 Ry
     energy             new  =    -275.8626349456 Ry

     CASE: energy            _new < energy            _old

     new trust radius        =       0.0072283304 bohr
     new conv_thr            =       0.0000000025 Ry


ATOMIC_POSITIONS (crystal)
O                0.0000000000        0.2500000006        0.6071893548
O                0.0000000000        0.7499999994        0.3928106742
O                0.5000000000        0.7500000004        0.1072006476
O                0.5000000000        0.2499999996        0.8927993234
O                0.0000000000        0.7500000004        0.8572116411
O                0.0000000000        0.2499999996        0.1427883879
O                0.5000000000        0.2500000007        0.3571794843
O                0.5000000000        0.7499999993        0.6428204867
H                0.0000000000        0.4287583445        0.6994369121
H                0.0000000000        0.5712416255        0.3005630879
H                0.5000000000        0.5712366869        0.1994401905
H                0.5000000000        0.4287632831        0.8005598095
H                0.8212341755        0.7500000005        0.9494485435
H                0.1787657945        0.2499999995        0.0505514565
H                0.6787547646        0.2500000010        0.4494300641
H                0.3212452654        0.7499999990        0.5505699359
H                0.6787547646        0.7499999990        0.5505699359
H                0.3212452654        0.2500000010        0.4494300641
H                0.8212341755        0.2499999995        0.0505514565
H                0.1787657945        0.7500000005        0.9494485435
H                0.5000000000        0.9287633136        0.1994401905
H                0.5000000000        0.0712367164        0.8005598095
H                0.0000000000        0.0712416562        0.6994369120
H                0.0000000000        0.9287583738        0.3005630880



     Writing config-only to output data dir ./iceVIII/iceVIII.save/ :
     XML data file
     NEW-OLD atomic charge density approx. for the potential

     total cpu time spent up to now is      134.6 secs

     per-process dynamical memory:    22.0 Mb

     Self-consistent Calculation

     iteration #  1     ecut=    90.00 Ry     beta= 0.70
     Davidson diagonalization with overlap
     ethr =  1.00E-06,  avg # of iterations =  3.0

     Threshold (ethr) on eigenvalues was too large:
     Diagonalizing with lowered threshold

     Davidson diagonalization with overlap
     ethr =  6.43E-08,  avg # of iterations =  2.8

     total cpu time spent up to now is      139.2 secs

     total energy              =    -275.86281319 Ry
     estimated scf accuracy    <       0.00004907 Ry

     iteration #  2     ecut=    90.00 Ry     beta= 0.70
     Davidson diagonalization with overlap
     ethr =  7.67E-08,  avg # of iterations =  2.0

     total cpu time spent up to now is      141.0 secs

     total energy              =    -275.86282085 Ry
     estimated scf accuracy    <       0.00000200 Ry

     iteration #  3     ecut=    90.00 Ry     beta= 0.70
     Davidson diagonalization with overlap
     ethr =  3.13E-09,  avg # of iterations =  2.1

     total cpu time spent up to now is      142.7 secs

     total energy              =    -275.86282116 Ry
     estimated scf accuracy    <       0.00000015 Ry

     iteration #  4     ecut=    90.00 Ry     beta= 0.70
     Davidson diagonalization with overlap
     ethr =  2.36E-10,  avg # of iterations =  3.4

     total cpu time spent up to now is      144.9 secs

     total energy              =    -275.86282120 Ry
     estimated scf accuracy    <       0.00000002 Ry

     iteration #  5     ecut=    90.00 Ry     beta= 0.70
     Davidson diagonalization with overlap
     ethr =  2.72E-11,  avg # of iterations =  2.4

     total cpu time spent up to now is      146.9 secs

     End of self-consistent calculation

     Number of k-points >= 100: set verbosity='high' to print the bands.

     highest occupied level (ev):     0.9403

!    total energy              =    -275.86282120 Ry
     estimated scf accuracy    <          6.9E-10 Ry

     The total energy is the sum of the following terms:
     one-electron contribution =    -104.61331376 Ry
     hartree contribution      =      82.13178305 Ry
     xc contribution           =     -68.04690909 Ry
     ewald contribution        =    -185.33438140 Ry

     convergence has been achieved in   5 iterations

     Forces acting on atoms (cartesian axes, Ry/au):

     atom    1 type  2   force =     0.00000000   -0.00000000    0.00130189
     atom    2 type  2   force =     0.00000000    0.00000000   -0.00130189
     atom    3 type  2   force =     0.00000000   -0.00000000    0.00134748
     atom    4 type  2   force =     0.00000000    0.00000000   -0.00134748
     atom    5 type  2   force =    -0.00000000    0.00000000    0.00132902
     atom    6 type  2   force =    -0.00000000   -0.00000000   -0.00132902
     atom    7 type  2   force =     0.00000000   -0.00000000    0.00132070
     atom    8 type  2   force =     0.00000000    0.00000000   -0.00132070
     atom    9 type  1   force =     0.00000000   -0.00233542    0.00189979
     atom   10 type  1   force =     0.00000000    0.00233542   -0.00189979
     atom   11 type  1   force =     0.00000000    0.00232854    0.00191569
     atom   12 type  1   force =     0.00000000   -0.00232854   -0.00191569
     atom   13 type  1   force =     0.00233816   -0.00000000    0.00192501
     atom   14 type  1   force =    -0.00233816    0.00000000   -0.00192501
     atom   15 type  1   force =    -0.00232769   -0.00000000    0.00189027
     atom   16 type  1   force =     0.00232769    0.00000000   -0.00189027
     atom   17 type  1   force =    -0.00232769    0.00000000   -0.00189027
     atom   18 type  1   force =     0.00232769   -0.00000000    0.00189027
     atom   19 type  1   force =     0.00233816    0.00000000   -0.00192501
     atom   20 type  1   force =    -0.00233816   -0.00000000    0.00192501
     atom   21 type  1   force =     0.00000000   -0.00232854    0.00191569
     atom   22 type  1   force =     0.00000000    0.00232854   -0.00191569
     atom   23 type  1   force =     0.00000000    0.00233542    0.00189979
     atom   24 type  1   force =     0.00000000   -0.00233542   -0.00189979

     Total force =     0.012622     Total SCF correction =     0.000010


     Computing stress (Cartesian axis) and pressure

          total   stress  (Ry/bohr**3)                   (kbar)     P=       67.61
   0.00045315   0.00000000   0.00000000           66.66        0.00        0.00
   0.00000000   0.00045290   0.00000000            0.00       66.62        0.00
   0.00000000   0.00000000   0.00047275            0.00        0.00       69.54

     Energy error            =      1.9E-04 Ry
     Gradient error          =      2.3E-03 Ry/Bohr

     number of scf cycles    =   8
     number of bfgs steps    =   7

     energy             old  =    -275.8626349456 Ry
     energy             new  =    -275.8628212028 Ry

     CASE: energy            _new < energy            _old

     new trust radius        =       0.0079511634 bohr
     new conv_thr            =       0.0000000019 Ry


ATOMIC_POSITIONS (crystal)
O                0.0000000000        0.2500000003        0.6078318674
O                0.0000000000        0.7499999997        0.3921681616
O                0.5000000000        0.7500000002        0.1078506122
O                0.5000000000        0.2499999998        0.8921493588
O                0.0000000000        0.7500000002        0.8578620452
O                0.0000000000        0.2499999998        0.1421379838
O                0.5000000000        0.2500000003        0.3578213332
O                0.5000000000        0.7499999997        0.6421786378
H                0.0000000000        0.4288829598        0.7000214408
H                0.0000000000        0.5711170102        0.2999785592
H                0.5000000000        0.5711082800        0.2000278849
H                0.5000000000        0.4288916900        0.7999721151
H                0.8211074271        0.7500000005        0.9500397397
H                0.1788925429        0.2499999995        0.0499602603
H                0.6788803021        0.2500000010        0.4500114007
H                0.3211197279        0.7499999990        0.5499885993
H                0.6788803021        0.7499999990        0.5499885993
H                0.3211197279        0.2500000010        0.4500114007
H                0.8211074271        0.2499999995        0.0499602603
H                0.1788925429        0.7500000005        0.9500397397
H                0.5000000000        0.9288917206        0.2000278848
H                0.5000000000        0.0711083094        0.7999721152
H                0.0000000000        0.0711170409        0.7000214407
H                0.0000000000        0.9288829891        0.2999785593



     Writing config-only to output data dir ./iceVIII/iceVIII.save/ :
     XML data file
     NEW-OLD atomic charge density approx. for the potential

     total cpu time spent up to now is      148.5 secs

     per-process dynamical memory:    22.0 Mb

     Self-consistent Calculation

     iteration #  1     ecut=    90.00 Ry     beta= 0.70
     Davidson diagonalization with overlap
     ethr =  1.00E-06,  avg # of iterations =  3.5

     Threshold (ethr) on eigenvalues was too large:
     Diagonalizing with lowered threshold

     Davidson diagonalization with overlap
     ethr =  8.21E-08,  avg # of iterations =  2.8

     total cpu time spent up to now is      157.1 secs

     total energy              =    -275.86305047 Ry
     estimated scf accuracy    <       0.00006159 Ry

     iteration #  2     ecut=    90.00 Ry     beta= 0.70
     Davidson diagonalization with overlap
     ethr =  9.62E-08,  avg # of iterations =  2.0

     total cpu time spent up to now is      158.9 secs

     total energy              =    -275.86306005 Ry
     estimated scf accuracy    <       0.00000269 Ry

     iteration #  3     ecut=    90.00 Ry     beta= 0.70
     Davidson diagonalization with overlap
     ethr =  4.20E-09,  avg # of iterations =  2.0

     total cpu time spent up to now is      160.6 secs

     total energy              =    -275.86306044 Ry
     estimated scf accuracy    <       0.00000018 Ry

     iteration #  4     ecut=    90.00 Ry     beta= 0.70
     Davidson diagonalization with overlap
     ethr =  2.87E-10,  avg # of iterations =  3.6

     total cpu time spent up to now is      162.8 secs

     total energy              =    -275.86306050 Ry
     estimated scf accuracy    <          9.7E-09 Ry

     iteration #  5     ecut=    90.00 Ry     beta= 0.70
     Davidson diagonalization with overlap
     ethr =  1.52E-11,  avg # of iterations =  3.3

     total cpu time spent up to now is      165.1 secs

     End of self-consistent calculation

     Number of k-points >= 100: set verbosity='high' to print the bands.

     highest occupied level (ev):     0.9447

!    total energy              =    -275.86306050 Ry
     estimated scf accuracy    <          9.9E-10 Ry

     The total energy is the sum of the following terms:
     one-electron contribution =    -104.50779359 Ry
     hartree contribution      =      82.08057282 Ry
     xc contribution           =     -68.04382443 Ry
     ewald contribution        =    -185.39201531 Ry

     convergence has been achieved in   5 iterations

     Forces acting on atoms (cartesian axes, Ry/au):

     atom    1 type  2   force =     0.00000000    0.00000000    0.00073191
     atom    2 type  2   force =     0.00000000   -0.00000000   -0.00073191
     atom    3 type  2   force =     0.00000000    0.00000000    0.00077712
     atom    4 type  2   force =     0.00000000   -0.00000000   -0.00077712
     atom    5 type  2   force =    -0.00000000    0.00000000    0.00075174
     atom    6 type  2   force =    -0.00000000   -0.00000000   -0.00075174
     atom    7 type  2   force =     0.00000000    0.00000000    0.00075820
     atom    8 type  2   force =     0.00000000   -0.00000000   -0.00075820
     atom    9 type  1   force =     0.00000000   -0.00269679    0.00185370
     atom   10 type  1   force =     0.00000000    0.00269679   -0.00185370
     atom   11 type  1   force =     0.00000000    0.00269069    0.00187957
     atom   12 type  1   force =     0.00000000   -0.00269069   -0.00187957
     atom   13 type  1   force =     0.00270452   -0.00000000    0.00187975
     atom   14 type  1   force =    -0.00270452    0.00000000   -0.00187975
     atom   15 type  1   force =    -0.00268297   -0.00000000    0.00185292
     atom   16 type  1   force =     0.00268297    0.00000000   -0.00185292
     atom   17 type  1   force =    -0.00268297    0.00000000   -0.00185292
     atom   18 type  1   force =     0.00268297   -0.00000000    0.00185292
     atom   19 type  1   force =     0.00270452    0.00000000   -0.00187975
     atom   20 type  1   force =    -0.00270452   -0.00000000    0.00187975
     atom   21 type  1   force =     0.00000000   -0.00269069    0.00187957
     atom   22 type  1   force =     0.00000000    0.00269069   -0.00187957
     atom   23 type  1   force =     0.00000000    0.00269679    0.00185370
     atom   24 type  1   force =     0.00000000   -0.00269679   -0.00185370

     Total force =     0.013282     Total SCF correction =     0.000018


     Computing stress (Cartesian axis) and pressure

          total   stress  (Ry/bohr**3)                   (kbar)     P=       66.68
   0.00044580   0.00000000   0.00000000           65.58        0.00        0.00
   0.00000000   0.00044554  -0.00000000            0.00       65.54       -0.00
   0.00000000  -0.00000000   0.00046857            0.00       -0.00       68.93

     Energy error            =      2.4E-04 Ry
     Gradient error          =      2.7E-03 Ry/Bohr

     number of scf cycles    =   9
     number of bfgs steps    =   8

     energy             old  =    -275.8628212028 Ry
     energy             new  =    -275.8630605022 Ry

     CASE: energy            _new < energy            _old

     new trust radius        =       0.0119267451 bohr
     new conv_thr            =       0.0000000024 Ry


ATOMIC_POSITIONS (crystal)
O                0.0000000000        0.2500000005        0.6087753860
O                0.0000000000        0.7499999995        0.3912246430
O                0.5000000000        0.7500000003        0.1088048626
O                0.5000000000        0.2499999997        0.8911951084
O                0.0000000000        0.7499999999        0.8588164378
O                0.0000000000        0.2500000001        0.1411835912
O                0.5000000000        0.2499999997        0.3587642398
O                0.5000000000        0.7500000003        0.6412357312
H                0.0000000000        0.4289060029        0.7009851025
H                0.0000000000        0.5710939671        0.2990148975
H                0.5000000000        0.5710776004        0.2009990771
H                0.5000000000        0.4289223696        0.7990009229
H                0.8210810096        0.7500000006        0.9510151739
H                0.1789189604        0.2499999994        0.0489848261
H                0.6789068224        0.2500000010        0.4509713327
H                0.3210932076        0.7499999990        0.5490286673
H                0.6789068224        0.7499999990        0.5490286673
H                0.3210932076        0.2500000010        0.4509713327
H                0.8210810096        0.2499999994        0.0489848261
H                0.1789189604        0.7500000006        0.9510151739
H                0.5000000000        0.9289224000        0.2009990768
H                0.5000000000        0.0710776300        0.7990009232
H                0.0000000000        0.0710939974        0.7009851027
H                0.0000000000        0.9289060326        0.2990148973



     Writing config-only to output data dir ./iceVIII/iceVIII.save/ :
     XML data file
     NEW-OLD atomic charge density approx. for the potential

     total cpu time spent up to now is      166.7 secs

     per-process dynamical memory:    22.0 Mb

     Self-consistent Calculation

     iteration #  1     ecut=    90.00 Ry     beta= 0.70
     Davidson diagonalization with overlap
     ethr =  1.00E-06,  avg # of iterations =  4.1

     total cpu time spent up to now is      169.7 secs

     total energy              =    -275.86340325 Ry
     estimated scf accuracy    <       0.00012533 Ry

     iteration #  2     ecut=    90.00 Ry     beta= 0.70
     Davidson diagonalization with overlap
     ethr =  1.96E-07,  avg # of iterations =  2.1

     total cpu time spent up to now is      171.6 secs

     total energy              =    -275.86342551 Ry
     estimated scf accuracy    <       0.00000731 Ry

     iteration #  3     ecut=    90.00 Ry     beta= 0.70
     Davidson diagonalization with overlap
     ethr =  1.14E-08,  avg # of iterations =  2.8

     total cpu time spent up to now is      173.7 secs

     total energy              =    -275.86342701 Ry
     estimated scf accuracy    <       0.00000075 Ry

     iteration #  4     ecut=    90.00 Ry     beta= 0.70
     Davidson diagonalization with overlap
     ethr =  1.17E-09,  avg # of iterations =  2.9

     total cpu time spent up to now is      175.8 secs

     total energy              =    -275.86342721 Ry
     estimated scf accuracy    <       0.00000013 Ry

     iteration #  5     ecut=    90.00 Ry     beta= 0.70
     Davidson diagonalization with overlap
     ethr =  2.10E-10,  avg # of iterations =  2.0

     total cpu time spent up to now is      177.6 secs

     total energy              =    -275.86342722 Ry
     estimated scf accuracy    <          8.3E-09 Ry

     iteration #  6     ecut=    90.00 Ry     beta= 0.70
     Davidson diagonalization with overlap
     ethr =  1.29E-11,  avg # of iterations =  3.0

     total cpu time spent up to now is      179.9 secs

     End of self-consistent calculation

     Number of k-points >= 100: set verbosity='high' to print the bands.

     highest occupied level (ev):     0.9508

!    total energy              =    -275.86342723 Ry
     estimated scf accuracy    <          2.1E-09 Ry

     The total energy is the sum of the following terms:
     one-electron contribution =    -104.37280800 Ry
     hartree contribution      =      82.01353457 Ry
     xc contribution           =     -68.04109773 Ry
     ewald contribution        =    -185.46305607 Ry

     convergence has been achieved in   6 iterations

     Forces acting on atoms (cartesian axes, Ry/au):

     atom    1 type  2   force =     0.00000000   -0.00000000    0.00012658
     atom    2 type  2   force =     0.00000000    0.00000000   -0.00012658
     atom    3 type  2   force =     0.00000000   -0.00000000    0.00019536
     atom    4 type  2   force =     0.00000000    0.00000000   -0.00019536
     atom    5 type  2   force =     0.00000000    0.00000000    0.00014910
     atom    6 type  2   force =     0.00000000   -0.00000000   -0.00014910
     atom    7 type  2   force =     0.00000000    0.00000000    0.00017830
     atom    8 type  2   force =     0.00000000   -0.00000000   -0.00017830
     atom    9 type  1   force =     0.00000000   -0.00277110    0.00165999
     atom   10 type  1   force =     0.00000000    0.00277110   -0.00165999
     atom   11 type  1   force =     0.00000000    0.00278764    0.00168089
     atom   12 type  1   force =     0.00000000   -0.00278764   -0.00168089
     atom   13 type  1   force =     0.00279636   -0.00000000    0.00167412
     atom   14 type  1   force =    -0.00279636    0.00000000   -0.00167412
     atom   15 type  1   force =    -0.00276185   -0.00000000    0.00166367
     atom   16 type  1   force =     0.00276185    0.00000000   -0.00166367
     atom   17 type  1   force =    -0.00276185    0.00000000   -0.00166367
     atom   18 type  1   force =     0.00276185   -0.00000000    0.00166367
     atom   19 type  1   force =     0.00279636    0.00000000   -0.00167412
     atom   20 type  1   force =    -0.00279636   -0.00000000    0.00167412
     atom   21 type  1   force =     0.00000000   -0.00278764    0.00168090
     atom   22 type  1   force =     0.00000000    0.00278764   -0.00168090
     atom   23 type  1   force =     0.00000000    0.00277110    0.00165998
     atom   24 type  1   force =     0.00000000   -0.00277110   -0.00165998

     Total force =     0.012977     Total SCF correction =     0.000049


     Computing stress (Cartesian axis) and pressure

          total   stress  (Ry/bohr**3)                   (kbar)     P=       65.82
   0.00044011   0.00000000   0.00000000           64.74        0.00        0.00
   0.00000000   0.00043986   0.00000000            0.00       64.71        0.00
   0.00000000   0.00000000   0.00046234            0.00        0.00       68.01

     Energy error            =      3.7E-04 Ry
     Gradient error          =      2.8E-03 Ry/Bohr

     number of scf cycles    =  10
     number of bfgs steps    =   9

     energy             old  =    -275.8630605022 Ry
     energy             new  =    -275.8634272252 Ry

     CASE: energy            _new < energy            _old

     new trust radius        =       0.0178901177 bohr
     new conv_thr            =       0.0000000037 Ry


ATOMIC_POSITIONS (crystal)
O                0.0000000000        0.2499999998        0.6100692534
O                0.0000000000        0.7500000002        0.3899307756
O                0.5000000000        0.7500000000        0.1101173529
O                0.5000000000        0.2500000000        0.8898826181
O                0.0000000000        0.7499999996        0.8601260788
O                0.0000000000        0.2500000004        0.1398739502
[...]
     atom    4 type  2   force =     0.00000000   -0.00000001    0.00039325
     atom    5 type  2   force =     0.00000000    0.00000000   -0.00042663
     atom    6 type  2   force =     0.00000000   -0.00000000    0.00042663
     atom    7 type  2   force =     0.00000000    0.00000000   -0.00034245
     atom    8 type  2   force =     0.00000000   -0.00000000    0.00034245
     atom    9 type  1   force =     0.00000000   -0.00042882    0.00009484
     atom   10 type  1   force =     0.00000000    0.00042882   -0.00009484
     atom   11 type  1   force =     0.00000000    0.00047769    0.00009862
     atom   12 type  1   force =     0.00000000   -0.00047769   -0.00009862
     atom   13 type  1   force =     0.00045871   -0.00000000    0.00005961
     atom   14 type  1   force =    -0.00045871    0.00000000   -0.00005961
     atom   15 type  1   force =    -0.00044197   -0.00000000    0.00013105
     atom   16 type  1   force =     0.00044197    0.00000000   -0.00013105
     atom   17 type  1   force =    -0.00044197    0.00000000   -0.00013105
     atom   18 type  1   force =     0.00044197   -0.00000000    0.00013105
     atom   19 type  1   force =     0.00045871    0.00000000   -0.00005961
     atom   20 type  1   force =    -0.00045871   -0.00000000    0.00005961
     atom   21 type  1   force =     0.00000000   -0.00047770    0.00009861
     atom   22 type  1   force =     0.00000000    0.00047770   -0.00009861
     atom   23 type  1   force =     0.00000000    0.00042881    0.00009485
     atom   24 type  1   force =     0.00000000   -0.00042881   -0.00009485

     Total force =     0.002151     Total SCF correction =     0.000064


     Computing stress (Cartesian axis) and pressure

          total   stress  (Ry/bohr**3)                   (kbar)     P=       66.77
   0.00045757   0.00000000   0.00000000           67.31        0.00        0.00
   0.00000000   0.00045732  -0.00000000            0.00       67.27       -0.00
   0.00000000  -0.00000000   0.00044678            0.00       -0.00       65.72

     Energy error            =      3.7E-05 Ry
     Gradient error          =      4.8E-04 Ry/Bohr

     number of scf cycles    =  13
     number of bfgs steps    =  12

     energy             old  =    -275.8642352423 Ry
     energy             new  =    -275.8642722543 Ry

     CASE: energy            _new < energy            _old

     new trust radius        =       0.0014091666 bohr
     new conv_thr            =       0.0000000010 Ry


ATOMIC_POSITIONS (crystal)
O                0.0000000000        0.2500000010        0.6119635729
O                0.0000000000        0.7499999990        0.3880364561
O                0.5000000000        0.7500000007        0.1120320063
O                0.5000000000        0.2499999993        0.8879679647
O                0.0000000000        0.7499999995        0.8620284757
O                0.0000000000        0.2500000005        0.1379715533
O                0.5000000000        0.2499999990        0.3619686825
O                0.5000000000        0.7500000010        0.6380312885
H                0.0000000000        0.4279118493        0.7049727594
H                0.0000000000        0.5720881207        0.2950272406
H                0.5000000000        0.5720677069        0.2050263487
H                0.5000000000        0.4279322631        0.7949736513
H                0.8220849502        0.7500000002        0.9550411919
H                0.1779150198        0.2499999998        0.0449588081
H                0.6779270968        0.2500000002        0.4549605235
H                0.3220729332        0.7499999998        0.5450394765
H                0.6779270968        0.7499999998        0.5450394765
H                0.3220729332        0.2500000002        0.4549605235
H                0.8220849502        0.2499999998        0.0449588081
H                0.1779150198        0.7500000002        0.9550411919
H                0.5000000000        0.9279322928        0.2050263482
H                0.5000000000        0.0720677372        0.7949736518
H                0.0000000000        0.0720881496        0.7049727602
H                0.0000000000        0.9279118804        0.2950272398



     Writing config-only to output data dir ./iceVIII/iceVIII.save/ :
     XML data file
     NEW-OLD atomic charge density approx. for the potential

     total cpu time spent up to now is      232.0 secs

     per-process dynamical memory:    22.0 Mb

     Self-consistent Calculation

     iteration #  1     ecut=    90.00 Ry     beta= 0.70
     Davidson diagonalization with overlap
     ethr =  1.00E-06,  avg # of iterations =  2.0

     Threshold (ethr) on eigenvalues was too large:
     Diagonalizing with lowered threshold

     Davidson diagonalization with overlap
     ethr =  1.79E-09,  avg # of iterations =  4.0

     total cpu time spent up to now is      236.5 secs

     total energy              =    -275.86427925 Ry
     estimated scf accuracy    <       0.00000180 Ry

     iteration #  2     ecut=    90.00 Ry     beta= 0.70
     Davidson diagonalization with overlap
     ethr =  2.81E-09,  avg # of iterations =  2.0

     total cpu time spent up to now is      238.3 secs

     total energy              =    -275.86427953 Ry
     estimated scf accuracy    <       0.00000007 Ry

     iteration #  3     ecut=    90.00 Ry     beta= 0.70
     Davidson diagonalization with overlap
     ethr =  1.16E-10,  avg # of iterations =  2.1

     total cpu time spent up to now is      240.4 secs

     total energy              =    -275.86427954 Ry
     estimated scf accuracy    <          7.9E-09 Ry

     iteration #  4     ecut=    90.00 Ry     beta= 0.70
     Davidson diagonalization with overlap
     ethr =  1.24E-11,  avg # of iterations =  2.2

     total cpu time spent up to now is      242.3 secs

     End of self-consistent calculation

     Number of k-points >= 100: set verbosity='high' to print the bands.

     highest occupied level (ev):     0.9680

!    total energy              =    -275.86427955 Ry
     estimated scf accuracy    <          6.8E-10 Ry

     The total energy is the sum of the following terms:
     one-electron contribution =    -104.08388736 Ry
     hartree contribution      =      81.86033242 Ry
     xc contribution           =     -68.04504898 Ry
     ewald contribution        =    -185.59567564 Ry

     convergence has been achieved in   4 iterations

     Forces acting on atoms (cartesian axes, Ry/au):

     atom    1 type  2   force =    -0.00000000   -0.00000002   -0.00010131
     atom    2 type  2   force =    -0.00000000    0.00000002    0.00010131
     atom    3 type  2   force =     0.00000000   -0.00000001   -0.00011237
     atom    4 type  2   force =     0.00000000    0.00000001    0.00011237
     atom    5 type  2   force =     0.00000000    0.00000000   -0.00014109
     atom    6 type  2   force =     0.00000000   -0.00000000    0.00014109
     atom    7 type  2   force =     0.00000000    0.00000000   -0.00006960
     atom    8 type  2   force =     0.00000000   -0.00000000    0.00006960
     atom    9 type  1   force =     0.00000000   -0.00006328   -0.00000179
     atom   10 type  1   force =     0.00000000    0.00006328    0.00000179
     atom   11 type  1   force =     0.00000000    0.00008863    0.00000426
     atom   12 type  1   force =     0.00000000   -0.00008863   -0.00000426
     atom   13 type  1   force =     0.00007809   -0.00000000   -0.00003538
     atom   14 type  1   force =    -0.00007809    0.00000000    0.00003538
     atom   15 type  1   force =    -0.00007088   -0.00000000    0.00003565
     atom   16 type  1   force =     0.00007088    0.00000000   -0.00003565
     atom   17 type  1   force =    -0.00007088    0.00000000   -0.00003565
     atom   18 type  1   force =     0.00007088   -0.00000000    0.00003565
     atom   19 type  1   force =     0.00007809    0.00000000    0.00003538
     atom   20 type  1   force =    -0.00007809   -0.00000000   -0.00003538
     atom   21 type  1   force =     0.00000000   -0.00008862    0.00000427
     atom   22 type  1   force =     0.00000000    0.00008862   -0.00000427
     atom   23 type  1   force =     0.00000000    0.00006329   -0.00000180
     atom   24 type  1   force =     0.00000000   -0.00006329    0.00000180

     Total force =     0.000444     Total SCF correction =     0.000014


     Computing stress (Cartesian axis) and pressure

          total   stress  (Ry/bohr**3)                   (kbar)     P=       67.32
   0.00046280   0.00000000   0.00000000           68.08        0.00        0.00
   0.00000000   0.00046257   0.00000000            0.00       68.05        0.00
   0.00000000   0.00000000   0.00044748            0.00        0.00       65.83

     Energy error            =      7.3E-06 Ry
     Gradient error          =      1.4E-04 Ry/Bohr

     number of scf cycles    =  14
     number of bfgs steps    =  13

     energy             old  =    -275.8642722543 Ry
     energy             new  =    -275.8642795455 Ry

     CASE: energy            _new < energy            _old

     new trust radius        =       0.0011572433 bohr
     new conv_thr            =       0.0000000010 Ry


ATOMIC_POSITIONS (crystal)
O                0.0000000000        0.2499999984        0.6118743941
O                0.0000000000        0.7500000016        0.3881256349
O                0.5000000000        0.7499999992        0.1119403543
O                0.5000000000        0.2500000008        0.8880596167
O                0.0000000000        0.7499999998        0.8619338133
O                0.0000000000        0.2500000002        0.1380662157
O                0.5000000000        0.2499999994        0.3618828506
O                0.5000000000        0.7500000006        0.6381171204
H                0.0000000000        0.4278853997        0.7048984497
H                0.0000000000        0.5721145703        0.2951015503
H                0.5000000000        0.5720987511        0.2049522075
H                0.5000000000        0.4279012189        0.7950477925
H                0.8221139787        0.7500000002        0.9549623207
H                0.1778859913        0.2499999998        0.0450376793
H                0.6778991967        0.2500000001        0.4548906758
H                0.3221008333        0.7499999999        0.5451093242
H                0.6778991967        0.7499999999        0.5451093242
H                0.3221008333        0.2500000001        0.4548906758
H                0.8221139787        0.2499999998        0.0450376793
H                0.1778859913        0.7500000002        0.9549623207
H                0.5000000000        0.9279012500        0.2049522077
H                0.5000000000        0.0720987800        0.7950477923
H                0.0000000000        0.0721146015        0.7048984492
H                0.0000000000        0.9278854285        0.2951015508



     Writing config-only to output data dir ./iceVIII/iceVIII.save/ :
     XML data file
     NEW-OLD atomic charge density approx. for the potential

     total cpu time spent up to now is      243.9 secs

     per-process dynamical memory:    22.0 Mb

     Self-consistent Calculation

     iteration #  1     ecut=    90.00 Ry     beta= 0.70
     Davidson diagonalization with overlap
     ethr =  1.00E-06,  avg # of iterations =  2.0

     Threshold (ethr) on eigenvalues was too large:
     Diagonalizing with lowered threshold

     Davidson diagonalization with overlap
     ethr =  1.06E-09,  avg # of iterations =  4.1

     total cpu time spent up to now is      248.7 secs

     total energy              =    -275.86428005 Ry
     estimated scf accuracy    <       0.00000121 Ry

     iteration #  2     ecut=    90.00 Ry     beta= 0.70
     Davidson diagonalization with overlap
     ethr =  1.89E-09,  avg # of iterations =  2.0

     total cpu time spent up to now is      250.5 secs

     total energy              =    -275.86428024 Ry
     estimated scf accuracy    <       0.00000006 Ry

     iteration #  3     ecut=    90.00 Ry     beta= 0.70
     Davidson diagonalization with overlap
     ethr =  8.84E-11,  avg # of iterations =  2.0

     total cpu time spent up to now is      252.3 secs

     total energy              =    -275.86428025 Ry
     estimated scf accuracy    <          5.3E-09 Ry

     iteration #  4     ecut=    90.00 Ry     beta= 0.70
     Davidson diagonalization with overlap
     ethr =  8.36E-12,  avg # of iterations =  2.2

     total cpu time spent up to now is      254.3 secs

     End of self-consistent calculation

     Number of k-points >= 100: set verbosity='high' to print the bands.

     highest occupied level (ev):     0.9673

!    total energy              =    -275.86428025 Ry
     estimated scf accuracy    <          5.4E-10 Ry

     The total energy is the sum of the following terms:
     one-electron contribution =    -104.09483945 Ry
     hartree contribution      =      81.86541798 Ry
     xc contribution           =     -68.04551624 Ry
     ewald contribution        =    -185.58934254 Ry

     convergence has been achieved in   4 iterations

     Forces acting on atoms (cartesian axes, Ry/au):

     atom    1 type  2   force =    -0.00000000    0.00000002   -0.00000661
     atom    2 type  2   force =    -0.00000000   -0.00000002    0.00000661
     atom    3 type  2   force =     0.00000000    0.00000001   -0.00001364
     atom    4 type  2   force =     0.00000000   -0.00000001    0.00001364
     atom    5 type  2   force =    -0.00000000   -0.00000000   -0.00004345
     atom    6 type  2   force =    -0.00000000    0.00000000    0.00004345
     atom    7 type  2   force =     0.00000000    0.00000000    0.00002346
     atom    8 type  2   force =     0.00000000   -0.00000000   -0.00002346
     atom    9 type  1   force =     0.00000000    0.00001143   -0.00000654
     atom   10 type  1   force =     0.00000000   -0.00001143    0.00000654
     atom   11 type  1   force =     0.00000000    0.00000182    0.00000030
     atom   12 type  1   force =     0.00000000   -0.00000182   -0.00000030
     atom   13 type  1   force =    -0.00000485   -0.00000000   -0.00003685
     atom   14 type  1   force =     0.00000485    0.00000000    0.00003685
     atom   15 type  1   force =     0.00000692   -0.00000000    0.00002967
     atom   16 type  1   force =    -0.00000692    0.00000000   -0.00002967
     atom   17 type  1   force =     0.00000692    0.00000000   -0.00002967
     atom   18 type  1   force =    -0.00000692   -0.00000000    0.00002967
     atom   19 type  1   force =    -0.00000485    0.00000000    0.00003685
     atom   20 type  1   force =     0.00000485   -0.00000000   -0.00003685
     atom   21 type  1   force =     0.00000000   -0.00000183    0.00000029
     atom   22 type  1   force =     0.00000000    0.00000183   -0.00000029
     atom   23 type  1   force =     0.00000000   -0.00001145   -0.00000653
     atom   24 type  1   force =     0.00000000    0.00001145    0.00000653

     Total force =     0.000124     Total SCF correction =     0.000011


     Computing stress (Cartesian axis) and pressure

          total   stress  (Ry/bohr**3)                   (kbar)     P=       67.46
   0.00046408   0.00000000   0.00000000           68.27        0.00        0.00
   0.00000000   0.00046385  -0.00000000            0.00       68.24       -0.00
   0.00000000  -0.00000000   0.00044788            0.00       -0.00       65.89

     Energy error            =      7.1E-07 Ry
     Gradient error          =      4.3E-05 Ry/Bohr

     bfgs converged in  15 scf cycles and  14 bfgs steps
     (criteria: energy <  1.0E-04 Ry, force <  1.0E-04 Ry/Bohr)

     End of BFGS Geometry Optimization

     Final energy             =    -275.8642802526 Ry

     File ./iceVIII/iceVIII.bfgs deleted, as requested
Begin final coordinates

ATOMIC_POSITIONS (crystal)
O                0.0000000000        0.2499999984        0.6118743941
O                0.0000000000        0.7500000016        0.3881256349
O                0.5000000000        0.7499999992        0.1119403543
O                0.5000000000        0.2500000008        0.8880596167
O                0.0000000000        0.7499999998        0.8619338133
O                0.0000000000        0.2500000002        0.1380662157
O                0.5000000000        0.2499999994        0.3618828506
O                0.5000000000        0.7500000006        0.6381171204
H                0.0000000000        0.4278853997        0.7048984497
H                0.0000000000        0.5721145703        0.2951015503
H                0.5000000000        0.5720987511        0.2049522075
H                0.5000000000        0.4279012189        0.7950477925
H                0.8221139787        0.7500000002        0.9549623207
H                0.1778859913        0.2499999998        0.0450376793
H                0.6778991967        0.2500000001        0.4548906758
H                0.3221008333        0.7499999999        0.5451093242
H                0.6778991967        0.7499999999        0.5451093242
H                0.3221008333        0.2500000001        0.4548906758
H                0.8221139787        0.2499999998        0.0450376793
H                0.1778859913        0.7500000002        0.9549623207
H                0.5000000000        0.9279012500        0.2049522077
H                0.5000000000        0.0720987800        0.7950477923
H                0.0000000000        0.0721146015        0.7048984492
H                0.0000000000        0.9278854285        0.2951015508
End final coordinates



     Writing all to output data dir ./iceVIII/iceVIII.save/ :
     XML data file, charge density, pseudopotentials, collected wavefunctions

     init_run     :      1.08s CPU      1.14s WALL (       1 calls)
     electrons    :    218.55s CPU    230.41s WALL (      15 calls)
     update_pot   :      0.12s CPU      0.14s WALL (      14 calls)
     forces       :      1.81s CPU      1.83s WALL (      15 calls)
     stress       :     21.18s CPU     21.21s WALL (      15 calls)

     Called by init_run:
     wfcinit      :      0.83s CPU      0.85s WALL (       1 calls)
     potinit      :      0.02s CPU      0.04s WALL (       1 calls)
     hinit0       :      0.18s CPU      0.18s WALL (       1 calls)

     Called by electrons:
     c_bands      :    194.33s CPU    201.70s WALL (     102 calls)
     sum_band     :     23.17s CPU     23.43s WALL (     102 calls)
     v_of_rho     :      0.71s CPU      0.73s WALL (     110 calls)
     newd         :      0.13s CPU      0.14s WALL (     110 calls)
     mix_rho      :      0.09s CPU      0.09s WALL (     102 calls)

     Called by c_bands:
     init_us_2    :      2.30s CPU      2.39s WALL (    8460 calls)
     cegterg      :    187.53s CPU    190.31s WALL (    3672 calls)

     Called by *egterg:
     cdiaghg      :     23.24s CPU     23.40s WALL (   13596 calls)
     h_psi        :    139.38s CPU    141.80s WALL (   14388 calls)
     s_psi        :      4.94s CPU      5.00s WALL (   14388 calls)
     g_psi        :      0.42s CPU      0.42s WALL (   10680 calls)

     Called by h_psi:
     h_psi:calbec :      6.60s CPU      6.69s WALL (   14388 calls)
     vloc_psi     :    127.03s CPU    129.26s WALL (   14388 calls)
     add_vuspsi   :      5.25s CPU      5.33s WALL (   14388 calls)

     General routines
     calbec       :      9.98s CPU     10.12s WALL (   20760 calls)
     fft          :      0.57s CPU      0.58s WALL (    1351 calls)
     ffts         :      0.04s CPU      0.04s WALL (     102 calls)
     fftw         :    135.82s CPU    138.09s WALL (  865754 calls)

     Parallel routines

     PWSCF        :   4m 4.08s CPU   4m17.65s WALL


   This run was terminated on:  17:33:20  31Mar2026            

=------------------------------------------------------------------------------=
   JOB DONE.
=------------------------------------------------------------------------------=
