
     Program PWSCF v.7.3.1 starts on 21Mar2026 at 19: 9:18 

     This program is part of the open-source Quantum ESPRESSO suite
     for quantum simulation of materials; please cite
         "P. Giannozzi et al., J. Phys.:Condens. Matter 21 395502 (2009);
         "P. Giannozzi et al., J. Phys.:Condens. Matter 29 465901 (2017);
         "P. Giannozzi et al., J. Chem. Phys. 152 154105 (2020);
          URL http://www.quantum-espresso.org", 
     in publications or presentations arising from this work. More details at
     http://www.quantum-espresso.org/quote

     Parallel version (MPI), running on   128 processors

     MPI processes distributed on     1 nodes
     242476 MiB available memory on the printing compute node when the environment starts

     Waiting for input...
     Reading input from standard input

     Current dimensions of program PWSCF are:
     Max number of different atomic species (ntypx) = 10
     Max number of k-points (npk) =  40000
     Max angular momentum in pseudopotentials (lmaxx) =  4
     Found identity + ( -0.5000 -0.5000  0.5000) symmetry
     This is a supercell, fractional translations are disabled

     K-points division:     npool     =       4
     R & G space division:  proc/nbgrp/npool/nimage =      32
     Subspace diagonalization in iterative solution of the eigenvalue problem:
     a serial algorithm will be used


     Parallelization info
     --------------------
     sticks:   dense  smooth     PW     G-vecs:    dense   smooth      PW
     Min          65      65     18                 3235     3235     472
     Max          66      66     19                 3240     3240     477
     Sum        2085    2085    577               103599   103599   15175

     Using Slab Decomposition



     bravais-lattice index     =            6
     lattice parameter (alat)  =       8.5388  a.u.
     unit-cell volume          =     897.8588 (a.u.)^3
     number of atoms/cell      =           24
     number of atomic types    =            2
     number of electrons       =        64.00
     number of Kohn-Sham states=           32
     kinetic-energy cutoff     =      90.0000  Ry
     charge density cutoff     =     360.0000  Ry
     scf convergence threshold =      1.0E-07
     mixing beta               =       0.7000
     number of iterations used =            8  plain     mixing
     Exchange-correlation=  SLA  PW   PBE  PBE
                           (   1   4   3   4   0   0   0)

     celldm(1)=   8.538753  celldm(2)=   0.000000  celldm(3)=   1.442197
     celldm(4)=   0.000000  celldm(5)=   0.000000  celldm(6)=   0.000000

     crystal axes: (cart. coord. in units of alat)
               a(1) = (   1.000000   0.000000   0.000000 )  
               a(2) = (   0.000000   1.000000   0.000000 )  
               a(3) = (   0.000000   0.000000   1.442197 )  

     reciprocal axes: (cart. coord. in units 2 pi/alat)
               b(1) = (  1.000000  0.000000  0.000000 )  
               b(2) = (  0.000000  1.000000  0.000000 )  
               b(3) = (  0.000000  0.000000  0.693386 )  


     PseudoPot. # 1 for H  read from file:
     ./H.pbe-van_ak.UPF
     MD5 check sum: 077eb6d537518a38cb46c6de387227b7
     Pseudo is Ultrasoft, Zval =  1.0
     Generated by new atomic code, or converted to UPF format
     Using radial grid of  615 points,  1 beta functions with: 
                l(1) =   0
     Q(r) pseudized with  8 coefficients,  rinner =    0.800

     PseudoPot. # 2 for O  read from file:
     ./O.pbe-van_ak.UPF
     MD5 check sum: 78c19812648e8988a0fe644b0f25305e
     Pseudo is Ultrasoft, Zval =  6.0
     Generated by new atomic code, or converted to UPF format
     Using radial grid of  737 points,  4 beta functions with: 
                l(1) =   0
                l(2) =   0
                l(3) =   1
                l(4) =   1
     Q(r) pseudized with  8 coefficients,  rinner =    0.800   0.800   0.800


     atomic species   valence    mass     pseudopotential
     H                 1.00     1.00800     H ( 1.00)
     O                 6.00    16.00000     O ( 1.00)

      4 Sym. Ops., with inversion, found



   Cartesian axes

     site n.     atom                  positions (alat units)
         1        O      tau(   1) = (   0.0000000   0.2500000   0.8781106  )
         2        O      tau(   2) = (   0.0000000   0.7500000   0.5640866  )
         3        O      tau(   3) = (   0.5000000   0.7500000   0.1570120  )
         4        O      tau(   4) = (   0.5000000   0.2500000   1.2851851  )
         5        O      tau(   5) = (   0.0000000   0.7500000   1.2386599  )
         6        O      tau(   6) = (   0.0000000   0.2500000   0.2035373  )
         7        O      tau(   7) = (   0.5000000   0.2500000   0.5175613  )
         8        O      tau(   8) = (   0.5000000   0.7500000   0.9246358  )
         9        H      tau(   9) = (   0.0000000   0.4142500   1.0027885  )
        10        H      tau(  10) = (   0.0000000   0.5857500   0.4394086  )
        11        H      tau(  11) = (   0.5000000   0.5857500   0.2816900  )
        12        H      tau(  12) = (   0.5000000   0.4142500   1.1605072  )
        13        H      tau(  13) = (   0.8357500   0.7500000   1.3633378  )
        14        H      tau(  14) = (   0.1642500   0.2500000   0.0788593  )
        15        H      tau(  15) = (   0.6642500   0.2500000   0.6422392  )
        16        H      tau(  16) = (   0.3357500   0.7500000   0.7999579  )
        17        H      tau(  17) = (   0.6642500   0.7500000   0.7999579  )
        18        H      tau(  18) = (   0.3357500   0.2500000   0.6422392  )
        19        H      tau(  19) = (   0.8357500   0.2500000   0.0788593  )
        20        H      tau(  20) = (   0.1642500   0.7500000   1.3633378  )
        21        H      tau(  21) = (   0.5000000   0.9142500   0.2816900  )
        22        H      tau(  22) = (   0.5000000   0.0857500   1.1605072  )
        23        H      tau(  23) = (   0.0000000   0.0857500   1.0027885  )
        24        H      tau(  24) = (   0.0000000   0.9142500   0.4394086  )

     number of k points=   144

     Number of k-points >= 100: set verbosity='high' to print them.

     Dense  grid:   103599 G-vectors     FFT dimensions: (  54,  54,  75)

     Estimated max dynamical RAM per process >      12.12 MB

     Estimated total dynamical RAM >       1.44 GB

     Initial potential from superposition of free atoms

     starting charge      63.9998, renormalised to      64.0000
     Starting wfcs are   48 randomized atomic wfcs

     total cpu time spent up to now is        1.4 secs

     per-process dynamical memory:    18.6 Mb

     Self-consistent Calculation

     iteration #  1     ecut=    90.00 Ry     beta= 0.70
     Davidson diagonalization with overlap
     ethr =  1.00E-02,  avg # of iterations =  2.0

     total cpu time spent up to now is        3.4 secs

     total energy              =    -274.68425101 Ry
     estimated scf accuracy    <       2.77729596 Ry

     iteration #  2     ecut=    90.00 Ry     beta= 0.70
     Davidson diagonalization with overlap
     ethr =  4.34E-03,  avg # of iterations =  3.0

     total cpu time spent up to now is        5.8 secs

     total energy              =    -275.57978976 Ry
     estimated scf accuracy    <       1.21422727 Ry

     iteration #  3     ecut=    90.00 Ry     beta= 0.70
     Davidson diagonalization with overlap
     ethr =  1.90E-03,  avg # of iterations =  2.0

     total cpu time spent up to now is        7.6 secs

     total energy              =    -275.72024051 Ry
     estimated scf accuracy    <       0.05084876 Ry

     iteration #  4     ecut=    90.00 Ry     beta= 0.70
     Davidson diagonalization with overlap
     ethr =  7.95E-05,  avg # of iterations =  4.0

     total cpu time spent up to now is       10.3 secs

     total energy              =    -275.75536470 Ry
     estimated scf accuracy    <       0.07171651 Ry

     iteration #  5     ecut=    90.00 Ry     beta= 0.70
     Davidson diagonalization with overlap
     ethr =  7.95E-05,  avg # of iterations =  2.0

     total cpu time spent up to now is       12.1 secs

     total energy              =    -275.75709658 Ry
     estimated scf accuracy    <       0.01068588 Ry

     iteration #  6     ecut=    90.00 Ry     beta= 0.70
     Davidson diagonalization with overlap
     ethr =  1.67E-05,  avg # of iterations =  3.0

     total cpu time spent up to now is       14.2 secs

     total energy              =    -275.76022040 Ry
     estimated scf accuracy    <       0.00004688 Ry

     iteration #  7     ecut=    90.00 Ry     beta= 0.70
     Davidson diagonalization with overlap
     ethr =  7.32E-08,  avg # of iterations =  6.0

     total cpu time spent up to now is       17.8 secs

     total energy              =    -275.76041257 Ry
     estimated scf accuracy    <       0.00021834 Ry

     iteration #  8     ecut=    90.00 Ry     beta= 0.70
     Davidson diagonalization with overlap
     ethr =  7.32E-08,  avg # of iterations =  3.0

     total cpu time spent up to now is       20.0 secs

     total energy              =    -275.76041651 Ry
     estimated scf accuracy    <       0.00003210 Ry

     iteration #  9     ecut=    90.00 Ry     beta= 0.70
     Davidson diagonalization with overlap
     ethr =  5.02E-08,  avg # of iterations =  2.2

     total cpu time spent up to now is       22.0 secs

     total energy              =    -275.76042388 Ry
     estimated scf accuracy    <       0.00000048 Ry

     iteration # 10     ecut=    90.00 Ry     beta= 0.70
     Davidson diagonalization with overlap
     ethr =  7.47E-10,  avg # of iterations =  5.2

     total cpu time spent up to now is       25.2 secs

     total energy              =    -275.76042473 Ry
     estimated scf accuracy    <       0.00000093 Ry

     iteration # 11     ecut=    90.00 Ry     beta= 0.70
     Davidson diagonalization with overlap
     ethr =  7.47E-10,  avg # of iterations =  1.7

     total cpu time spent up to now is       26.7 secs

     total energy              =    -275.76042460 Ry
     estimated scf accuracy    <       0.00000033 Ry

     iteration # 12     ecut=    90.00 Ry     beta= 0.70
     Davidson diagonalization with overlap
     ethr =  5.14E-10,  avg # of iterations =  2.3

     total cpu time spent up to now is       28.8 secs

     End of self-consistent calculation

     Number of k-points >= 100: set verbosity='high' to print the bands.

     highest occupied level (ev):     0.5862

!    total energy              =    -275.76042469 Ry
     estimated scf accuracy    <          1.3E-09 Ry

     The total energy is the sum of the following terms:
     one-electron contribution =    -115.66284243 Ry
     hartree contribution      =      86.70619320 Ry
     xc contribution           =     -68.84256027 Ry
     ewald contribution        =    -177.96121519 Ry

     convergence has been achieved in  12 iterations

     Forces acting on atoms (cartesian axes, Ry/au):

     atom    1 type  2   force =     0.00000000   -0.00000002   -0.13577555
     atom    2 type  2   force =     0.00000000    0.00000002    0.13577555
     atom    3 type  2   force =     0.00000000   -0.00000002   -0.13564581
     atom    4 type  2   force =     0.00000000    0.00000002    0.13564581
     atom    5 type  2   force =     0.00000000   -0.00000000   -0.13569293
     atom    6 type  2   force =     0.00000000    0.00000000    0.13569293
     atom    7 type  2   force =     0.00000000    0.00000000   -0.13570275
     atom    8 type  2   force =     0.00000000   -0.00000000    0.13570275
     atom    9 type  1   force =     0.00000000    0.10278942    0.06898532
     atom   10 type  1   force =     0.00000000   -0.10278942   -0.06898532
     atom   11 type  1   force =     0.00000000   -0.10278730    0.06898926
     atom   12 type  1   force =     0.00000000    0.10278730   -0.06898926
     atom   13 type  1   force =    -0.10278646    0.00000000    0.06898756
     atom   14 type  1   force =     0.10278646   -0.00000000   -0.06898756
     atom   15 type  1   force =     0.10278213    0.00000000    0.06898513
     atom   16 type  1   force =    -0.10278213   -0.00000000   -0.06898513
     atom   17 type  1   force =     0.10278213   -0.00000000   -0.06898513
     atom   18 type  1   force =    -0.10278213    0.00000000    0.06898513
     atom   19 type  1   force =    -0.10278646   -0.00000000   -0.06898756
     atom   20 type  1   force =     0.10278646    0.00000000    0.06898756
     atom   21 type  1   force =     0.00000000    0.10278730    0.06898926
     atom   22 type  1   force =     0.00000000   -0.10278730   -0.06898926
     atom   23 type  1   force =     0.00000000   -0.10278941    0.06898532
     atom   24 type  1   force =     0.00000000    0.10278941   -0.06898532

     Total force =     0.626508     Total SCF correction =     0.000043


     Computing stress (Cartesian axis) and pressure

          total   stress  (Ry/bohr**3)                   (kbar)     P=      263.72
   0.00177008   0.00000000   0.00000000          260.39        0.00        0.00
   0.00000000   0.00176980  -0.00000000            0.00      260.35       -0.00
   0.00000000  -0.00000000   0.00183840            0.00       -0.00      270.44


     Writing all to output data dir ./iceVIII/iceVIII.save/ :
     XML data file, charge density, pseudopotentials, collected wavefunctions

     init_run     :      1.11s CPU      1.19s WALL (       1 calls)
     electrons    :     26.88s CPU     27.48s WALL (       1 calls)
     forces       :      0.14s CPU      0.15s WALL (       1 calls)
     stress       :      1.45s CPU      1.46s WALL (       1 calls)

     Called by init_run:
     wfcinit      :      0.85s CPU      0.88s WALL (       1 calls)
     potinit      :      0.02s CPU      0.04s WALL (       1 calls)
     hinit0       :      0.19s CPU      0.19s WALL (       1 calls)

     Called by electrons:
     c_bands      :     24.04s CPU     24.52s WALL (      12 calls)
     sum_band     :      2.71s CPU      2.76s WALL (      12 calls)
     v_of_rho     :      0.09s CPU      0.10s WALL (      13 calls)
     newd         :      0.02s CPU      0.02s WALL (      13 calls)
     mix_rho      :      0.02s CPU      0.02s WALL (      12 calls)

     Called by c_bands:
     init_us_2    :      0.27s CPU      0.28s WALL (     972 calls)
     cegterg      :     23.30s CPU     23.58s WALL (     432 calls)

     Called by *egterg:
     cdiaghg      :      2.96s CPU      2.98s WALL (    1757 calls)
     h_psi        :     17.83s CPU     18.09s WALL (    1793 calls)
     s_psi        :      0.63s CPU      0.64s WALL (    1793 calls)
     g_psi        :      0.05s CPU      0.05s WALL (    1325 calls)

     Called by h_psi:
     h_psi:calbec :      0.85s CPU      0.86s WALL (    1793 calls)
     vloc_psi     :     16.25s CPU     16.49s WALL (    1793 calls)
     add_vuspsi   :      0.66s CPU      0.67s WALL (    1793 calls)

     General routines
     calbec       :      1.20s CPU      1.22s WALL (    2405 calls)
     fft          :      0.22s CPU      0.22s WALL (     151 calls)
     ffts         :      0.00s CPU      0.00s WALL (      12 calls)
     fftw         :     17.22s CPU     17.48s WALL (  107436 calls)

     Parallel routines

     PWSCF        :     30.41s CPU     31.80s WALL


   This run was terminated on:  19: 9:50  21Mar2026            

=------------------------------------------------------------------------------=
   JOB DONE.
=------------------------------------------------------------------------------=
