
     Program PWSCF v.7.3.1 starts on 23Mar2026 at 18: 0:38 

     This program is part of the open-source Quantum ESPRESSO suite
     for quantum simulation of materials; please cite
         "P. Giannozzi et al., J. Phys.:Condens. Matter 21 395502 (2009);
         "P. Giannozzi et al., J. Phys.:Condens. Matter 29 465901 (2017);
         "P. Giannozzi et al., J. Chem. Phys. 152 154105 (2020);
          URL http://www.quantum-espresso.org", 
     in publications or presentations arising from this work. More details at
     http://www.quantum-espresso.org/quote

     Parallel version (MPI), running on   128 processors

     MPI processes distributed on     1 nodes
     242510 MiB available memory on the printing compute node when the environment starts

     Waiting for input...
     Reading input from standard input

     Current dimensions of program PWSCF are:
     Max number of different atomic species (ntypx) = 10
     Max number of k-points (npk) =  40000
     Max angular momentum in pseudopotentials (lmaxx) =  4
     Found identity + ( -0.5000 -0.5000  0.5000) symmetry
     This is a supercell, fractional translations are disabled

     K-points division:     npool     =       4
     R & G space division:  proc/nbgrp/npool/nimage =      32
     Subspace diagonalization in iterative solution of the eigenvalue problem:
     a serial algorithm will be used


     Parallelization info
     --------------------
     sticks:   dense  smooth     PW     G-vecs:    dense   smooth      PW
     Min          66      66     18                 3338     3338     488
     Max          67      67     19                 3342     3342     493
     Sum        2129    2129    593               106891   106891   15687

     Using Slab Decomposition



     bravais-lattice index     =            6
     lattice parameter (alat)  =       8.6275  a.u.
     unit-cell volume          =     926.1506 (a.u.)^3
     number of atoms/cell      =           24
     number of atomic types    =            2
     number of electrons       =        64.00
     number of Kohn-Sham states=           32
     kinetic-energy cutoff     =      90.0000  Ry
     charge density cutoff     =     360.0000  Ry
     scf convergence threshold =      1.0E-07
     mixing beta               =       0.7000
     number of iterations used =            8  plain     mixing
     Exchange-correlation=  SLA  PW   PBE  PBE
                           (   1   4   3   4   0   0   0)

     celldm(1)=   8.627514  celldm(2)=   0.000000  celldm(3)=   1.442197
     celldm(4)=   0.000000  celldm(5)=   0.000000  celldm(6)=   0.000000

     crystal axes: (cart. coord. in units of alat)
               a(1) = (   1.000000   0.000000   0.000000 )  
               a(2) = (   0.000000   1.000000   0.000000 )  
               a(3) = (   0.000000   0.000000   1.442197 )  

     reciprocal axes: (cart. coord. in units 2 pi/alat)
               b(1) = (  1.000000  0.000000  0.000000 )  
               b(2) = (  0.000000  1.000000  0.000000 )  
               b(3) = (  0.000000  0.000000  0.693386 )  


     PseudoPot. # 1 for H  read from file:
     ./H.pbe-van_ak.UPF
     MD5 check sum: 077eb6d537518a38cb46c6de387227b7
     Pseudo is Ultrasoft, Zval =  1.0
     Generated by new atomic code, or converted to UPF format
     Using radial grid of  615 points,  1 beta functions with: 
                l(1) =   0
     Q(r) pseudized with  8 coefficients,  rinner =    0.800

     PseudoPot. # 2 for O  read from file:
     ./O.pbe-van_ak.UPF
     MD5 check sum: 78c19812648e8988a0fe644b0f25305e
     Pseudo is Ultrasoft, Zval =  6.0
     Generated by new atomic code, or converted to UPF format
     Using radial grid of  737 points,  4 beta functions with: 
                l(1) =   0
                l(2) =   0
                l(3) =   1
                l(4) =   1
     Q(r) pseudized with  8 coefficients,  rinner =    0.800   0.800   0.800


     atomic species   valence    mass     pseudopotential
     H                 1.00     1.00800     H ( 1.00)
     O                 6.00    16.00000     O ( 1.00)

      4 Sym. Ops., with inversion, found



   Cartesian axes

     site n.     atom                  positions (alat units)
         1        O      tau(   1) = (   0.0000000   0.2500000   0.8766577  )
         2        O      tau(   2) = (   0.0000000   0.7500000   0.5655395  )
         3        O      tau(   3) = (   0.5000000   0.7500000   0.1555590  )
         4        O      tau(   4) = (   0.5000000   0.2500000   1.2866381  )
         5        O      tau(   5) = (   0.0000000   0.7500000   1.2372108  )
         6        O      tau(   6) = (   0.0000000   0.2500000   0.2049863  )
         7        O      tau(   7) = (   0.5000000   0.2500000   0.5161123  )
         8        O      tau(   8) = (   0.5000000   0.7500000   0.9260848  )
         9        H      tau(   9) = (   0.0000000   0.4186701   1.0041518  )
        10        H      tau(  10) = (   0.0000000   0.5813299   0.4380453  )
        11        H      tau(  11) = (   0.5000000   0.5813299   0.2830532  )
        12        H      tau(  12) = (   0.5000000   0.4186701   1.1591439  )
        13        H      tau(  13) = (   0.8313288   0.7500000   1.3647034  )
        14        H      tau(  14) = (   0.1686712   0.2500000   0.0774938  )
        15        H      tau(  15) = (   0.6686712   0.2500000   0.6436049  )
        16        H      tau(  16) = (   0.3313288   0.7500000   0.7985923  )
        17        H      tau(  17) = (   0.6686712   0.7500000   0.7985923  )
        18        H      tau(  18) = (   0.3313288   0.2500000   0.6436049  )
        19        H      tau(  19) = (   0.8313288   0.2500000   0.0774938  )
        20        H      tau(  20) = (   0.1686712   0.7500000   1.3647034  )
        21        H      tau(  21) = (   0.5000000   0.9186701   0.2830532  )
        22        H      tau(  22) = (   0.5000000   0.0813299   1.1591439  )
        23        H      tau(  23) = (   0.0000000   0.0813299   1.0041518  )
        24        H      tau(  24) = (   0.0000000   0.9186701   0.4380454  )

     number of k points=   144

     Number of k-points >= 100: set verbosity='high' to print them.

     Dense  grid:   106891 G-vectors     FFT dimensions: (  54,  54,  75)

     Estimated max dynamical RAM per process >      12.45 MB

     Estimated total dynamical RAM >       1.48 GB

     Initial potential from superposition of free atoms

     starting charge      63.9998, renormalised to      64.0000
     Starting wfcs are   48 randomized atomic wfcs

     total cpu time spent up to now is        1.4 secs

     per-process dynamical memory:    19.0 Mb

     Self-consistent Calculation

     iteration #  1     ecut=    90.00 Ry     beta= 0.70
     Davidson diagonalization with overlap
     ethr =  1.00E-02,  avg # of iterations =  2.0

     total cpu time spent up to now is        3.4 secs

     total energy              =    -274.84028098 Ry
     estimated scf accuracy    <       2.57145544 Ry

     iteration #  2     ecut=    90.00 Ry     beta= 0.70
     Davidson diagonalization with overlap
     ethr =  4.02E-03,  avg # of iterations =  3.0

     total cpu time spent up to now is        5.8 secs

     total energy              =    -275.66981754 Ry
     estimated scf accuracy    <       1.25766609 Ry

     iteration #  3     ecut=    90.00 Ry     beta= 0.70
     Davidson diagonalization with overlap
     ethr =  1.97E-03,  avg # of iterations =  2.0

     total cpu time spent up to now is        7.6 secs

     total energy              =    -275.81722947 Ry
     estimated scf accuracy    <       0.05385579 Ry

     iteration #  4     ecut=    90.00 Ry     beta= 0.70
     Davidson diagonalization with overlap
     ethr =  8.41E-05,  avg # of iterations =  4.2

     total cpu time spent up to now is       10.4 secs

     total energy              =    -275.85519132 Ry
     estimated scf accuracy    <       0.07583926 Ry

     iteration #  5     ecut=    90.00 Ry     beta= 0.70
     Davidson diagonalization with overlap
     ethr =  8.41E-05,  avg # of iterations =  2.0

     total cpu time spent up to now is       12.3 secs

     total energy              =    -275.85713301 Ry
     estimated scf accuracy    <       0.01127167 Ry

     iteration #  6     ecut=    90.00 Ry     beta= 0.70
     Davidson diagonalization with overlap
     ethr =  1.76E-05,  avg # of iterations =  2.8

     total cpu time spent up to now is       14.4 secs

     total energy              =    -275.86027437 Ry
     estimated scf accuracy    <       0.00007865 Ry

     iteration #  7     ecut=    90.00 Ry     beta= 0.70
     Davidson diagonalization with overlap
     ethr =  1.23E-07,  avg # of iterations =  5.7

     total cpu time spent up to now is       17.8 secs

     total energy              =    -275.86048480 Ry
     estimated scf accuracy    <       0.00020557 Ry

     iteration #  8     ecut=    90.00 Ry     beta= 0.70
     Davidson diagonalization with overlap
     ethr =  1.23E-07,  avg # of iterations =  2.0

     total cpu time spent up to now is       19.8 secs

     total energy              =    -275.86048732 Ry
     estimated scf accuracy    <       0.00003446 Ry

     iteration #  9     ecut=    90.00 Ry     beta= 0.70
     Davidson diagonalization with overlap
     ethr =  5.38E-08,  avg # of iterations =  2.0

     total cpu time spent up to now is       21.7 secs

     total energy              =    -275.86049382 Ry
     estimated scf accuracy    <       0.00000172 Ry

     iteration # 10     ecut=    90.00 Ry     beta= 0.70
     Davidson diagonalization with overlap
     ethr =  2.68E-09,  avg # of iterations =  4.0

     total cpu time spent up to now is       24.5 secs

     total energy              =    -275.86049548 Ry
     estimated scf accuracy    <       0.00000087 Ry

     iteration # 11     ecut=    90.00 Ry     beta= 0.70
     Davidson diagonalization with overlap
     ethr =  1.36E-09,  avg # of iterations =  1.6

     total cpu time spent up to now is       26.0 secs

     total energy              =    -275.86049538 Ry
     estimated scf accuracy    <       0.00000028 Ry

     iteration # 12     ecut=    90.00 Ry     beta= 0.70
     Davidson diagonalization with overlap
     ethr =  4.39E-10,  avg # of iterations =  2.0

     total cpu time spent up to now is       28.0 secs

     End of self-consistent calculation

     Number of k-points >= 100: set verbosity='high' to print the bands.

     highest occupied level (ev):     0.4075

!    total energy              =    -275.86049544 Ry
     estimated scf accuracy    <          1.3E-09 Ry

     The total energy is the sum of the following terms:
     one-electron contribution =    -115.89408816 Ry
     hartree contribution      =      86.50838686 Ry
     xc contribution           =     -68.32219768 Ry
     ewald contribution        =    -178.15259647 Ry

     convergence has been achieved in  12 iterations

     Forces acting on atoms (cartesian axes, Ry/au):

     atom    1 type  2   force =     0.00000000    0.00000022   -0.05462055
     atom    2 type  2   force =     0.00000000   -0.00000022    0.05462055
     atom    3 type  2   force =    -0.00000000    0.00000008   -0.05458160
     atom    4 type  2   force =    -0.00000000   -0.00000008    0.05458160
     atom    5 type  2   force =     0.00000000   -0.00000001   -0.05463056
     atom    6 type  2   force =     0.00000000    0.00000001    0.05463056
     atom    7 type  2   force =     0.00000000   -0.00000001   -0.05460289
     atom    8 type  2   force =     0.00000000    0.00000001    0.05460289
     atom    9 type  1   force =     0.00000000    0.04204820    0.02863551
     atom   10 type  1   force =     0.00000000   -0.04204820   -0.02863551
     atom   11 type  1   force =     0.00000000   -0.04204709    0.02864749
     atom   12 type  1   force =     0.00000000    0.04204709   -0.02864749
     atom   13 type  1   force =    -0.04204441   -0.00000001    0.02863404
     atom   14 type  1   force =     0.04204441    0.00000001   -0.02863404
     atom   15 type  1   force =     0.04204237   -0.00000001    0.02864608
     atom   16 type  1   force =    -0.04204237    0.00000001   -0.02864608
     atom   17 type  1   force =     0.04204237    0.00000001   -0.02864608
     atom   18 type  1   force =    -0.04204237   -0.00000001    0.02864608
     atom   19 type  1   force =    -0.04204441    0.00000001   -0.02863404
     atom   20 type  1   force =     0.04204441   -0.00000001    0.02863404
     atom   21 type  1   force =     0.00000000    0.04204701    0.02864743
     atom   22 type  1   force =     0.00000000   -0.04204701   -0.02864743
     atom   23 type  1   force =     0.00000000   -0.04204841    0.02863567
     atom   24 type  1   force =     0.00000000    0.04204841   -0.02863567

     Total force =     0.255474     Total SCF correction =     0.000033


     Computing stress (Cartesian axis) and pressure

          total   stress  (Ry/bohr**3)                   (kbar)     P=      131.08
   0.00088275   0.00000000   0.00000000          129.86        0.00        0.00
   0.00000000   0.00088248  -0.00000000            0.00      129.82       -0.00
   0.00000000  -0.00000000   0.00090796            0.00       -0.00      133.57


     Writing all to output data dir ./iceVIII/iceVIII.save/ :
     XML data file, charge density, pseudopotentials, collected wavefunctions

     init_run     :      1.11s CPU      1.16s WALL (       1 calls)
     electrons    :     26.10s CPU     26.65s WALL (       1 calls)
     forces       :      0.12s CPU      0.14s WALL (       1 calls)
     stress       :      1.50s CPU      1.52s WALL (       1 calls)

     Called by init_run:
     wfcinit      :      0.87s CPU      0.87s WALL (       1 calls)
     potinit      :      0.01s CPU      0.03s WALL (       1 calls)
     hinit0       :      0.18s CPU      0.19s WALL (       1 calls)

     Called by electrons:
     c_bands      :     23.25s CPU     23.72s WALL (      12 calls)
     sum_band     :      2.72s CPU      2.76s WALL (      12 calls)
     v_of_rho     :      0.08s CPU      0.10s WALL (      13 calls)
     newd         :      0.02s CPU      0.02s WALL (      13 calls)
     mix_rho      :      0.02s CPU      0.02s WALL (      12 calls)

     Called by c_bands:
     init_us_2    :      0.28s CPU      0.29s WALL (     972 calls)
     cegterg      :     22.00s CPU     22.29s WALL (     432 calls)

     Called by *egterg:
     cdiaghg      :      2.73s CPU      2.75s WALL (    1621 calls)
     h_psi        :     16.92s CPU     17.18s WALL (    1657 calls)
     s_psi        :      0.62s CPU      0.62s WALL (    1657 calls)
     g_psi        :      0.05s CPU      0.05s WALL (    1189 calls)

     Called by h_psi:
     h_psi:calbec :      0.83s CPU      0.84s WALL (    1657 calls)
     vloc_psi     :     15.37s CPU     15.61s WALL (    1657 calls)
     add_vuspsi   :      0.65s CPU      0.66s WALL (    1657 calls)

     General routines
     calbec       :      1.20s CPU      1.22s WALL (    2269 calls)
     fft          :      0.21s CPU      0.22s WALL (     151 calls)
     ffts         :      0.00s CPU      0.00s WALL (      12 calls)
     fftw         :     16.36s CPU     16.60s WALL (  104114 calls)

     Parallel routines

     PWSCF        :     29.55s CPU     30.86s WALL


   This run was terminated on:  18: 1: 9  23Mar2026            

=------------------------------------------------------------------------------=
   JOB DONE.
=------------------------------------------------------------------------------=
