
     Program PWSCF v.7.3.1 starts on 23Mar2026 at 18: 1:48 

     This program is part of the open-source Quantum ESPRESSO suite
     for quantum simulation of materials; please cite
         "P. Giannozzi et al., J. Phys.:Condens. Matter 21 395502 (2009);
         "P. Giannozzi et al., J. Phys.:Condens. Matter 29 465901 (2017);
         "P. Giannozzi et al., J. Chem. Phys. 152 154105 (2020);
          URL http://www.quantum-espresso.org", 
     in publications or presentations arising from this work. More details at
     http://www.quantum-espresso.org/quote

     Parallel version (MPI), running on   128 processors

     MPI processes distributed on     1 nodes
     242393 MiB available memory on the printing compute node when the environment starts

     Waiting for input...
     Reading input from standard input

     Current dimensions of program PWSCF are:
     Max number of different atomic species (ntypx) = 10
     Max number of k-points (npk) =  40000
     Max angular momentum in pseudopotentials (lmaxx) =  4
     Found identity + ( -0.5000 -0.5000  0.5000) symmetry
     This is a supercell, fractional translations are disabled

     K-points division:     npool     =       4
     R & G space division:  proc/nbgrp/npool/nimage =      32
     Subspace diagonalization in iterative solution of the eigenvalue problem:
     a serial algorithm will be used


     Parallelization info
     --------------------
     sticks:   dense  smooth     PW     G-vecs:    dense   smooth      PW
     Min          67      67     18                 3375     3375     490
     Max          68      68     19                 3382     3382     497
     Sum        2145    2145    593               108075   108075   15791

     Using Slab Decomposition



     bravais-lattice index     =            6
     lattice parameter (alat)  =       8.6630  a.u.
     unit-cell volume          =     937.6317 (a.u.)^3
     number of atoms/cell      =           24
     number of atomic types    =            2
     number of electrons       =        64.00
     number of Kohn-Sham states=           32
     kinetic-energy cutoff     =      90.0000  Ry
     charge density cutoff     =     360.0000  Ry
     scf convergence threshold =      1.0E-07
     mixing beta               =       0.7000
     number of iterations used =            8  plain     mixing
     Exchange-correlation=  SLA  PW   PBE  PBE
                           (   1   4   3   4   0   0   0)

     celldm(1)=   8.663018  celldm(2)=   0.000000  celldm(3)=   1.442197
     celldm(4)=   0.000000  celldm(5)=   0.000000  celldm(6)=   0.000000

     crystal axes: (cart. coord. in units of alat)
               a(1) = (   1.000000   0.000000   0.000000 )  
               a(2) = (   0.000000   1.000000   0.000000 )  
               a(3) = (   0.000000   0.000000   1.442197 )  

     reciprocal axes: (cart. coord. in units 2 pi/alat)
               b(1) = (  1.000000  0.000000  0.000000 )  
               b(2) = (  0.000000  1.000000  0.000000 )  
               b(3) = (  0.000000  0.000000  0.693386 )  


     PseudoPot. # 1 for H  read from file:
     ./H.pbe-van_ak.UPF
     MD5 check sum: 077eb6d537518a38cb46c6de387227b7
     Pseudo is Ultrasoft, Zval =  1.0
     Generated by new atomic code, or converted to UPF format
     Using radial grid of  615 points,  1 beta functions with: 
                l(1) =   0
     Q(r) pseudized with  8 coefficients,  rinner =    0.800

     PseudoPot. # 2 for O  read from file:
     ./O.pbe-van_ak.UPF
     MD5 check sum: 78c19812648e8988a0fe644b0f25305e
     Pseudo is Ultrasoft, Zval =  6.0
     Generated by new atomic code, or converted to UPF format
     Using radial grid of  737 points,  4 beta functions with: 
                l(1) =   0
                l(2) =   0
                l(3) =   1
                l(4) =   1
     Q(r) pseudized with  8 coefficients,  rinner =    0.800   0.800   0.800


     atomic species   valence    mass     pseudopotential
     H                 1.00     1.00800     H ( 1.00)
     O                 6.00    16.00000     O ( 1.00)

      4 Sym. Ops., with inversion, found



   Cartesian axes

     site n.     atom                  positions (alat units)
         1        O      tau(   1) = (   0.0000000   0.2500000   0.8766577  )
         2        O      tau(   2) = (   0.0000000   0.7500000   0.5655395  )
         3        O      tau(   3) = (   0.5000000   0.7500000   0.1555590  )
         4        O      tau(   4) = (   0.5000000   0.2500000   1.2866381  )
         5        O      tau(   5) = (   0.0000000   0.7500000   1.2372108  )
         6        O      tau(   6) = (   0.0000000   0.2500000   0.2049863  )
         7        O      tau(   7) = (   0.5000000   0.2500000   0.5161123  )
         8        O      tau(   8) = (   0.5000000   0.7500000   0.9260848  )
         9        H      tau(   9) = (   0.0000000   0.4186701   1.0041518  )
        10        H      tau(  10) = (   0.0000000   0.5813299   0.4380453  )
        11        H      tau(  11) = (   0.5000000   0.5813299   0.2830532  )
        12        H      tau(  12) = (   0.5000000   0.4186701   1.1591439  )
        13        H      tau(  13) = (   0.8313288   0.7500000   1.3647034  )
        14        H      tau(  14) = (   0.1686712   0.2500000   0.0774938  )
        15        H      tau(  15) = (   0.6686712   0.2500000   0.6436049  )
        16        H      tau(  16) = (   0.3313288   0.7500000   0.7985923  )
        17        H      tau(  17) = (   0.6686712   0.7500000   0.7985923  )
        18        H      tau(  18) = (   0.3313288   0.2500000   0.6436049  )
        19        H      tau(  19) = (   0.8313288   0.2500000   0.0774938  )
        20        H      tau(  20) = (   0.1686712   0.7500000   1.3647034  )
        21        H      tau(  21) = (   0.5000000   0.9186701   0.2830532  )
        22        H      tau(  22) = (   0.5000000   0.0813299   1.1591439  )
        23        H      tau(  23) = (   0.0000000   0.0813299   1.0041518  )
        24        H      tau(  24) = (   0.0000000   0.9186701   0.4380454  )

     number of k points=   144

     Number of k-points >= 100: set verbosity='high' to print them.

     Dense  grid:   108075 G-vectors     FFT dimensions: (  54,  54,  75)

     Estimated max dynamical RAM per process >      12.58 MB

     Estimated total dynamical RAM >       1.50 GB

     Initial potential from superposition of free atoms

     starting charge      63.9998, renormalised to      64.0000
     Starting wfcs are   48 randomized atomic wfcs

     total cpu time spent up to now is        1.4 secs

     per-process dynamical memory:    19.2 Mb

     Self-consistent Calculation

     iteration #  1     ecut=    90.00 Ry     beta= 0.70
     Davidson diagonalization with overlap
     ethr =  1.00E-02,  avg # of iterations =  2.0

     total cpu time spent up to now is        3.4 secs

     total energy              =    -274.85028248 Ry
     estimated scf accuracy    <       2.55985652 Ry

     iteration #  2     ecut=    90.00 Ry     beta= 0.70
     Davidson diagonalization with overlap
     ethr =  4.00E-03,  avg # of iterations =  3.0

     total cpu time spent up to now is        5.8 secs

     total energy              =    -275.67612808 Ry
     estimated scf accuracy    <       1.27863825 Ry

     iteration #  3     ecut=    90.00 Ry     beta= 0.70
     Davidson diagonalization with overlap
     ethr =  2.00E-03,  avg # of iterations =  2.0

     total cpu time spent up to now is        7.6 secs

     total energy              =    -275.82604319 Ry
     estimated scf accuracy    <       0.05504331 Ry

     iteration #  4     ecut=    90.00 Ry     beta= 0.70
     Davidson diagonalization with overlap
     ethr =  8.60E-05,  avg # of iterations =  4.3

     total cpu time spent up to now is       10.4 secs

     total energy              =    -275.86507443 Ry
     estimated scf accuracy    <       0.07752752 Ry

     iteration #  5     ecut=    90.00 Ry     beta= 0.70
     Davidson diagonalization with overlap
     ethr =  8.60E-05,  avg # of iterations =  2.0

     total cpu time spent up to now is       12.3 secs

     total energy              =    -275.86698278 Ry
     estimated scf accuracy    <       0.01157699 Ry

     iteration #  6     ecut=    90.00 Ry     beta= 0.70
     Davidson diagonalization with overlap
     ethr =  1.81E-05,  avg # of iterations =  2.8

     total cpu time spent up to now is       14.5 secs

     total energy              =    -275.87021612 Ry
     estimated scf accuracy    <       0.00007281 Ry

     iteration #  7     ecut=    90.00 Ry     beta= 0.70
     Davidson diagonalization with overlap
     ethr =  1.14E-07,  avg # of iterations =  5.8

     total cpu time spent up to now is       17.9 secs

     total energy              =    -275.87042421 Ry
     estimated scf accuracy    <       0.00018625 Ry

     iteration #  8     ecut=    90.00 Ry     beta= 0.70
     Davidson diagonalization with overlap
     ethr =  1.14E-07,  avg # of iterations =  2.0

     total cpu time spent up to now is       19.9 secs

     total energy              =    -275.87042458 Ry
     estimated scf accuracy    <       0.00003077 Ry

     iteration #  9     ecut=    90.00 Ry     beta= 0.70
     Davidson diagonalization with overlap
     ethr =  4.81E-08,  avg # of iterations =  3.0

     total cpu time spent up to now is       22.1 secs

     total energy              =    -275.87043275 Ry
     estimated scf accuracy    <       0.00000019 Ry

     iteration # 10     ecut=    90.00 Ry     beta= 0.70
     Davidson diagonalization with overlap
     ethr =  2.96E-10,  avg # of iterations =  5.9

     total cpu time spent up to now is       25.6 secs

     total energy              =    -275.87043342 Ry
     estimated scf accuracy    <       0.00000049 Ry

     iteration # 11     ecut=    90.00 Ry     beta= 0.70
     Davidson diagonalization with overlap
     ethr =  2.96E-10,  avg # of iterations =  2.0

     total cpu time spent up to now is       27.2 secs

     total energy              =    -275.87043331 Ry
     estimated scf accuracy    <       0.00000019 Ry

     iteration # 12     ecut=    90.00 Ry     beta= 0.70
     Davidson diagonalization with overlap
     ethr =  2.95E-10,  avg # of iterations =  3.0

     total cpu time spent up to now is       29.7 secs

     End of self-consistent calculation

     Number of k-points >= 100: set verbosity='high' to print the bands.

     highest occupied level (ev):     0.3158

!    total energy              =    -275.87043335 Ry
     estimated scf accuracy    <       0.00000009 Ry

     The total energy is the sum of the following terms:
     one-electron contribution =    -117.13918852 Ry
     hartree contribution      =      86.93243559 Ry
     xc contribution           =     -68.24121754 Ry
     ewald contribution        =    -177.42246288 Ry

     convergence has been achieved in  12 iterations

     Forces acting on atoms (cartesian axes, Ry/au):

     atom    1 type  2   force =     0.00000000    0.00000020   -0.04607020
     atom    2 type  2   force =     0.00000000   -0.00000020    0.04607020
     atom    3 type  2   force =     0.00000000    0.00000010   -0.04615213
     atom    4 type  2   force =     0.00000000   -0.00000010    0.04615213
     atom    5 type  2   force =     0.00000000   -0.00000002   -0.04616530
     atom    6 type  2   force =     0.00000000    0.00000002    0.04616530
     atom    7 type  2   force =     0.00000000   -0.00000001   -0.04609338
     atom    8 type  2   force =     0.00000000    0.00000001    0.04609338
     atom    9 type  1   force =     0.00000000    0.03557154    0.02430263
     atom   10 type  1   force =     0.00000000   -0.03557154   -0.02430263
     atom   11 type  1   force =     0.00000000   -0.03556753    0.02432223
     atom   12 type  1   force =     0.00000000    0.03556753   -0.02432223
     atom   13 type  1   force =    -0.03556793   -0.00000000    0.02431568
     atom   14 type  1   force =     0.03556793    0.00000000   -0.02431568
     atom   15 type  1   force =     0.03556743   -0.00000000    0.02431079
     atom   16 type  1   force =    -0.03556743    0.00000000   -0.02431079
     atom   17 type  1   force =     0.03556743    0.00000000   -0.02431079
     atom   18 type  1   force =    -0.03556743   -0.00000000    0.02431079
     atom   19 type  1   force =    -0.03556793    0.00000000   -0.02431568
     atom   20 type  1   force =     0.03556793   -0.00000000    0.02431568
     atom   21 type  1   force =     0.00000000    0.03556745    0.02432217
     atom   22 type  1   force =     0.00000000   -0.03556745   -0.02432217
     atom   23 type  1   force =     0.00000000   -0.03557174    0.02430278
     atom   24 type  1   force =     0.00000000    0.03557174   -0.02430278

     Total force =     0.216140     Total SCF correction =     0.000318


     Computing stress (Cartesian axis) and pressure

          total   stress  (Ry/bohr**3)                   (kbar)     P=      111.73
   0.00075255   0.00000000   0.00000000          110.70        0.00        0.00
   0.00000000   0.00075254  -0.00000000            0.00      110.70       -0.00
   0.00000000  -0.00000000   0.00077347            0.00       -0.00      113.78


     Writing all to output data dir ./iceVIII/iceVIII.save/ :
     XML data file, charge density, pseudopotentials, collected wavefunctions

     init_run     :      1.09s CPU      1.15s WALL (       1 calls)
     electrons    :     27.76s CPU     28.32s WALL (       1 calls)
     forces       :      0.13s CPU      0.14s WALL (       1 calls)
     stress       :      1.50s CPU      1.52s WALL (       1 calls)

     Called by init_run:
     wfcinit      :      0.83s CPU      0.86s WALL (       1 calls)
     potinit      :      0.02s CPU      0.03s WALL (       1 calls)
     hinit0       :      0.19s CPU      0.19s WALL (       1 calls)

     Called by electrons:
     c_bands      :     24.89s CPU     25.37s WALL (      12 calls)
     sum_band     :      2.72s CPU      2.77s WALL (      12 calls)
     v_of_rho     :      0.09s CPU      0.10s WALL (      13 calls)
     newd         :      0.02s CPU      0.02s WALL (      13 calls)
     mix_rho      :      0.02s CPU      0.02s WALL (      12 calls)

     Called by c_bands:
     init_us_2    :      0.28s CPU      0.29s WALL (     972 calls)
     cegterg      :     23.60s CPU     23.91s WALL (     432 calls)

     Called by *egterg:
     cdiaghg      :      3.00s CPU      3.02s WALL (    1777 calls)
     h_psi        :     17.88s CPU     18.17s WALL (    1813 calls)
     s_psi        :      0.68s CPU      0.69s WALL (    1813 calls)
     g_psi        :      0.05s CPU      0.05s WALL (    1345 calls)

     Called by h_psi:
     h_psi:calbec :      0.89s CPU      0.90s WALL (    1813 calls)
     vloc_psi     :     16.18s CPU     16.46s WALL (    1813 calls)
     add_vuspsi   :      0.72s CPU      0.73s WALL (    1813 calls)

     General routines
     calbec       :      1.23s CPU      1.25s WALL (    2425 calls)
     fft          :      0.22s CPU      0.22s WALL (     151 calls)
     ffts         :      0.00s CPU      0.00s WALL (      12 calls)
     fftw         :     17.08s CPU     17.36s WALL (  108966 calls)

     Parallel routines

     PWSCF        :     31.20s CPU     32.54s WALL


   This run was terminated on:  18: 2:20  23Mar2026            

=------------------------------------------------------------------------------=
   JOB DONE.
=------------------------------------------------------------------------------=
