
     Program PWSCF v.7.3.1 starts on 23Mar2026 at 18: 2:55 

     This program is part of the open-source Quantum ESPRESSO suite
     for quantum simulation of materials; please cite
         "P. Giannozzi et al., J. Phys.:Condens. Matter 21 395502 (2009);
         "P. Giannozzi et al., J. Phys.:Condens. Matter 29 465901 (2017);
         "P. Giannozzi et al., J. Chem. Phys. 152 154105 (2020);
          URL http://www.quantum-espresso.org", 
     in publications or presentations arising from this work. More details at
     http://www.quantum-espresso.org/quote

     Parallel version (MPI), running on   128 processors

     MPI processes distributed on     1 nodes
     242458 MiB available memory on the printing compute node when the environment starts

     Waiting for input...
     Reading input from standard input

     Current dimensions of program PWSCF are:
     Max number of different atomic species (ntypx) = 10
     Max number of k-points (npk) =  40000
     Max angular momentum in pseudopotentials (lmaxx) =  4
     Found identity + ( -0.5000 -0.5000  0.5000) symmetry
     This is a supercell, fractional translations are disabled

     K-points division:     npool     =       4
     R & G space division:  proc/nbgrp/npool/nimage =      32
     Subspace diagonalization in iterative solution of the eigenvalue problem:
     a serial algorithm will be used


     Parallelization info
     --------------------
     sticks:   dense  smooth     PW     G-vecs:    dense   smooth      PW
     Min          68      68     18                 3420     3420     496
     Max          69      69     19                 3424     3424     503
     Sum        2177    2177    593               109483   109483   15959

     Using Slab Decomposition



     bravais-lattice index     =            6
     lattice parameter (alat)  =       8.6985  a.u.
     unit-cell volume          =     949.2073 (a.u.)^3
     number of atoms/cell      =           24
     number of atomic types    =            2
     number of electrons       =        64.00
     number of Kohn-Sham states=           32
     kinetic-energy cutoff     =      90.0000  Ry
     charge density cutoff     =     360.0000  Ry
     scf convergence threshold =      1.0E-07
     mixing beta               =       0.7000
     number of iterations used =            8  plain     mixing
     Exchange-correlation=  SLA  PW   PBE  PBE
                           (   1   4   3   4   0   0   0)

     celldm(1)=   8.698522  celldm(2)=   0.000000  celldm(3)=   1.442197
     celldm(4)=   0.000000  celldm(5)=   0.000000  celldm(6)=   0.000000

     crystal axes: (cart. coord. in units of alat)
               a(1) = (   1.000000   0.000000   0.000000 )  
               a(2) = (   0.000000   1.000000   0.000000 )  
               a(3) = (   0.000000   0.000000   1.442197 )  

     reciprocal axes: (cart. coord. in units 2 pi/alat)
               b(1) = (  1.000000  0.000000  0.000000 )  
               b(2) = (  0.000000  1.000000  0.000000 )  
               b(3) = (  0.000000  0.000000  0.693386 )  


     PseudoPot. # 1 for H  read from file:
     ./H.pbe-van_ak.UPF
     MD5 check sum: 077eb6d537518a38cb46c6de387227b7
     Pseudo is Ultrasoft, Zval =  1.0
     Generated by new atomic code, or converted to UPF format
     Using radial grid of  615 points,  1 beta functions with: 
                l(1) =   0
     Q(r) pseudized with  8 coefficients,  rinner =    0.800

     PseudoPot. # 2 for O  read from file:
     ./O.pbe-van_ak.UPF
     MD5 check sum: 78c19812648e8988a0fe644b0f25305e
     Pseudo is Ultrasoft, Zval =  6.0
     Generated by new atomic code, or converted to UPF format
     Using radial grid of  737 points,  4 beta functions with: 
                l(1) =   0
                l(2) =   0
                l(3) =   1
                l(4) =   1
     Q(r) pseudized with  8 coefficients,  rinner =    0.800   0.800   0.800


     atomic species   valence    mass     pseudopotential
     H                 1.00     1.00800     H ( 1.00)
     O                 6.00    16.00000     O ( 1.00)

      4 Sym. Ops., with inversion, found



   Cartesian axes

     site n.     atom                  positions (alat units)
         1        O      tau(   1) = (   0.0000000   0.2500000   0.8766577  )
         2        O      tau(   2) = (   0.0000000   0.7500000   0.5655395  )
         3        O      tau(   3) = (   0.5000000   0.7500000   0.1555590  )
         4        O      tau(   4) = (   0.5000000   0.2500000   1.2866381  )
         5        O      tau(   5) = (   0.0000000   0.7500000   1.2372108  )
         6        O      tau(   6) = (   0.0000000   0.2500000   0.2049863  )
         7        O      tau(   7) = (   0.5000000   0.2500000   0.5161123  )
         8        O      tau(   8) = (   0.5000000   0.7500000   0.9260848  )
         9        H      tau(   9) = (   0.0000000   0.4186701   1.0041518  )
        10        H      tau(  10) = (   0.0000000   0.5813299   0.4380453  )
        11        H      tau(  11) = (   0.5000000   0.5813299   0.2830532  )
        12        H      tau(  12) = (   0.5000000   0.4186701   1.1591439  )
        13        H      tau(  13) = (   0.8313288   0.7500000   1.3647034  )
        14        H      tau(  14) = (   0.1686712   0.2500000   0.0774938  )
        15        H      tau(  15) = (   0.6686712   0.2500000   0.6436049  )
        16        H      tau(  16) = (   0.3313288   0.7500000   0.7985923  )
        17        H      tau(  17) = (   0.6686712   0.7500000   0.7985923  )
        18        H      tau(  18) = (   0.3313288   0.2500000   0.6436049  )
        19        H      tau(  19) = (   0.8313288   0.2500000   0.0774938  )
        20        H      tau(  20) = (   0.1686712   0.7500000   1.3647034  )
        21        H      tau(  21) = (   0.5000000   0.9186701   0.2830532  )
        22        H      tau(  22) = (   0.5000000   0.0813299   1.1591439  )
        23        H      tau(  23) = (   0.0000000   0.0813299   1.0041518  )
        24        H      tau(  24) = (   0.0000000   0.9186701   0.4380454  )

     number of k points=   144

     Number of k-points >= 100: set verbosity='high' to print them.

     Dense  grid:   109483 G-vectors     FFT dimensions: (  54,  54,  75)

     Estimated max dynamical RAM per process >      12.71 MB

     Estimated total dynamical RAM >       1.51 GB

     Initial potential from superposition of free atoms

     starting charge      63.9998, renormalised to      64.0000
     Starting wfcs are   48 randomized atomic wfcs

     total cpu time spent up to now is        1.4 secs

     per-process dynamical memory:    19.3 Mb

     Self-consistent Calculation

     iteration #  1     ecut=    90.00 Ry     beta= 0.70
     Davidson diagonalization with overlap
     ethr =  1.00E-02,  avg # of iterations =  2.0

     total cpu time spent up to now is        3.4 secs

     total energy              =    -274.85856742 Ry
     estimated scf accuracy    <       2.54905161 Ry

     iteration #  2     ecut=    90.00 Ry     beta= 0.70
     Davidson diagonalization with overlap
     ethr =  3.98E-03,  avg # of iterations =  3.0

     total cpu time spent up to now is        5.8 secs

     total energy              =    -275.68076447 Ry
     estimated scf accuracy    <       1.30094795 Ry

     iteration #  3     ecut=    90.00 Ry     beta= 0.70
     Davidson diagonalization with overlap
     ethr =  2.03E-03,  avg # of iterations =  2.0

     total cpu time spent up to now is        7.6 secs

     total energy              =    -275.83343054 Ry
     estimated scf accuracy    <       0.05627947 Ry

     iteration #  4     ecut=    90.00 Ry     beta= 0.70
     Davidson diagonalization with overlap
     ethr =  8.79E-05,  avg # of iterations =  4.4

     total cpu time spent up to now is       10.5 secs

     total energy              =    -275.87371909 Ry
     estimated scf accuracy    <       0.07878463 Ry

     iteration #  5     ecut=    90.00 Ry     beta= 0.70
     Davidson diagonalization with overlap
     ethr =  8.79E-05,  avg # of iterations =  2.0

     total cpu time spent up to now is       12.3 secs

     total energy              =    -275.87548891 Ry
     estimated scf accuracy    <       0.01188146 Ry

     iteration #  6     ecut=    90.00 Ry     beta= 0.70
     Davidson diagonalization with overlap
     ethr =  1.86E-05,  avg # of iterations =  2.7

     total cpu time spent up to now is       14.5 secs

     total energy              =    -275.87877293 Ry
     estimated scf accuracy    <       0.00007742 Ry

     iteration #  7     ecut=    90.00 Ry     beta= 0.70
     Davidson diagonalization with overlap
     ethr =  1.21E-07,  avg # of iterations =  5.7

     total cpu time spent up to now is       18.0 secs

     total energy              =    -275.87898613 Ry
     estimated scf accuracy    <       0.00019579 Ry

     iteration #  8     ecut=    90.00 Ry     beta= 0.70
     Davidson diagonalization with overlap
     ethr =  1.21E-07,  avg # of iterations =  2.0

     total cpu time spent up to now is       19.9 secs

     total energy              =    -275.87898466 Ry
     estimated scf accuracy    <       0.00003666 Ry

     iteration #  9     ecut=    90.00 Ry     beta= 0.70
     Davidson diagonalization with overlap
     ethr =  5.73E-08,  avg # of iterations =  2.0

     total cpu time spent up to now is       21.8 secs

     total energy              =    -275.87899140 Ry
     estimated scf accuracy    <       0.00000176 Ry

     iteration # 10     ecut=    90.00 Ry     beta= 0.70
     Davidson diagonalization with overlap
     ethr =  2.75E-09,  avg # of iterations =  4.1

     total cpu time spent up to now is       24.6 secs

     total energy              =    -275.87899296 Ry
     estimated scf accuracy    <       0.00000059 Ry

     iteration # 11     ecut=    90.00 Ry     beta= 0.70
     Davidson diagonalization with overlap
     ethr =  9.16E-10,  avg # of iterations =  2.0

     total cpu time spent up to now is       26.2 secs

     total energy              =    -275.87899288 Ry
     estimated scf accuracy    <       0.00000021 Ry

     iteration # 12     ecut=    90.00 Ry     beta= 0.70
     Davidson diagonalization with overlap
     ethr =  3.24E-10,  avg # of iterations =  2.0

     total cpu time spent up to now is       28.2 secs

     End of self-consistent calculation

     Number of k-points >= 100: set verbosity='high' to print the bands.

     highest occupied level (ev):     0.2248

!    total energy              =    -275.87899293 Ry
     estimated scf accuracy    <          6.0E-10 Ry

     The total energy is the sum of the following terms:
     one-electron contribution =    -118.37950259 Ry
     hartree contribution      =      87.36136771 Ry
     xc contribution           =     -68.16256849 Ry
     ewald contribution        =    -176.69828956 Ry

     convergence has been achieved in  12 iterations

     Forces acting on atoms (cartesian axes, Ry/au):

     atom    1 type  2   force =     0.00000000    0.00000019   -0.03783842
     atom    2 type  2   force =     0.00000000   -0.00000019    0.03783842
     atom    3 type  2   force =     0.00000000    0.00000005   -0.03792648
     atom    4 type  2   force =     0.00000000   -0.00000005    0.03792648
     atom    5 type  2   force =     0.00000000    0.00000003   -0.03793340
     atom    6 type  2   force =     0.00000000   -0.00000003    0.03793340
     atom    7 type  2   force =     0.00000000    0.00000002   -0.03785914
     atom    8 type  2   force =     0.00000000   -0.00000002    0.03785914
     atom    9 type  1   force =     0.00000000    0.02924180    0.02007491
     atom   10 type  1   force =     0.00000000   -0.02924180   -0.02007491
     atom   11 type  1   force =     0.00000000   -0.02923797    0.02009141
     atom   12 type  1   force =     0.00000000    0.02923797   -0.02009141
     atom   13 type  1   force =    -0.02923628    0.00000000    0.02008241
     atom   14 type  1   force =     0.02923628   -0.00000000   -0.02008241
     atom   15 type  1   force =     0.02923580    0.00000000    0.02008800
     atom   16 type  1   force =    -0.02923580   -0.00000000   -0.02008800
     atom   17 type  1   force =     0.02923580   -0.00000000   -0.02008800
     atom   18 type  1   force =    -0.02923580    0.00000000    0.02008800
     atom   19 type  1   force =    -0.02923628   -0.00000000   -0.02008241
     atom   20 type  1   force =     0.02923628    0.00000000    0.02008241
     atom   21 type  1   force =     0.00000000    0.02923790    0.02009135
     atom   22 type  1   force =     0.00000000   -0.02923790   -0.02009135
     atom   23 type  1   force =     0.00000000   -0.02924199    0.02007505
     atom   24 type  1   force =     0.00000000    0.02924199   -0.02007505

     Total force =     0.177811     Total SCF correction =     0.000014


     Computing stress (Cartesian axis) and pressure

          total   stress  (Ry/bohr**3)                   (kbar)     P=       94.41
   0.00063595   0.00000000   0.00000000           93.55        0.00        0.00
   0.00000000   0.00063613  -0.00000000            0.00       93.58       -0.00
   0.00000000  -0.00000000   0.00065318            0.00       -0.00       96.09


     Writing all to output data dir ./iceVIII/iceVIII.save/ :
     XML data file, charge density, pseudopotentials, collected wavefunctions

     init_run     :      1.10s CPU      1.16s WALL (       1 calls)
     electrons    :     26.37s CPU     26.84s WALL (       1 calls)
     forces       :      0.13s CPU      0.14s WALL (       1 calls)
     stress       :      1.55s CPU      1.56s WALL (       1 calls)

     Called by init_run:
     wfcinit      :      0.84s CPU      0.87s WALL (       1 calls)
     potinit      :      0.02s CPU      0.03s WALL (       1 calls)
     hinit0       :      0.18s CPU      0.20s WALL (       1 calls)

     Called by electrons:
     c_bands      :     23.50s CPU     23.90s WALL (      12 calls)
     sum_band     :      2.73s CPU      2.76s WALL (      12 calls)
     v_of_rho     :      0.09s CPU      0.10s WALL (      13 calls)
     newd         :      0.02s CPU      0.02s WALL (      13 calls)
     mix_rho      :      0.02s CPU      0.02s WALL (      12 calls)

     Called by c_bands:
     init_us_2    :      0.28s CPU      0.29s WALL (     972 calls)
     cegterg      :     22.19s CPU     22.43s WALL (     432 calls)

     Called by *egterg:
     cdiaghg      :      2.75s CPU      2.77s WALL (    1642 calls)
     h_psi        :     16.95s CPU     17.18s WALL (    1678 calls)
     s_psi        :      0.63s CPU      0.63s WALL (    1678 calls)
     g_psi        :      0.05s CPU      0.05s WALL (    1210 calls)

     Called by h_psi:
     h_psi:calbec :      0.86s CPU      0.87s WALL (    1678 calls)
     vloc_psi     :     15.35s CPU     15.56s WALL (    1678 calls)
     add_vuspsi   :      0.67s CPU      0.68s WALL (    1678 calls)

     General routines
     calbec       :      1.23s CPU      1.25s WALL (    2290 calls)
     fft          :      0.22s CPU      0.22s WALL (     151 calls)
     ffts         :      0.00s CPU      0.00s WALL (      12 calls)
     fftw         :     16.35s CPU     16.56s WALL (  104110 calls)

     Parallel routines

     PWSCF        :     29.91s CPU     31.07s WALL


   This run was terminated on:  18: 3:26  23Mar2026            

=------------------------------------------------------------------------------=
   JOB DONE.
=------------------------------------------------------------------------------=
