
     Program PWSCF v.7.3.1 starts on 23Mar2026 at 18: 3:29 

     This program is part of the open-source Quantum ESPRESSO suite
     for quantum simulation of materials; please cite
         "P. Giannozzi et al., J. Phys.:Condens. Matter 21 395502 (2009);
         "P. Giannozzi et al., J. Phys.:Condens. Matter 29 465901 (2017);
         "P. Giannozzi et al., J. Chem. Phys. 152 154105 (2020);
          URL http://www.quantum-espresso.org", 
     in publications or presentations arising from this work. More details at
     http://www.quantum-espresso.org/quote

     Parallel version (MPI), running on   128 processors

     MPI processes distributed on     1 nodes
     242550 MiB available memory on the printing compute node when the environment starts

     Waiting for input...
     Reading input from standard input
Warning: card NECESSARY ignored
Warning: card 8 14 13  0 0 0 ignored

     Current dimensions of program PWSCF are:
     Max number of different atomic species (ntypx) = 10
     Max number of k-points (npk) =  40000
     Max angular momentum in pseudopotentials (lmaxx) =  4
     Found identity + ( -0.5000 -0.5000  0.5000) symmetry
     This is a supercell, fractional translations are disabled

     K-points division:     npool     =       4
     R & G space division:  proc/nbgrp/npool/nimage =      32
     Subspace diagonalization in iterative solution of the eigenvalue problem:
     a serial algorithm will be used


     Parallelization info
     --------------------
     sticks:   dense  smooth     PW     G-vecs:    dense   smooth      PW
     Min          68      68     18                 3438     3438     498
     Max          69      69     19                 3443     3443     505
     Sum        2185    2185    593               110091   110091   16023

     Using Slab Decomposition



     bravais-lattice index     =            6
     lattice parameter (alat)  =       8.7163  a.u.
     unit-cell volume          =     955.0306 (a.u.)^3
     number of atoms/cell      =           24
     number of atomic types    =            2
     number of electrons       =        64.00
     number of Kohn-Sham states=           32
     kinetic-energy cutoff     =      90.0000  Ry
     charge density cutoff     =     360.0000  Ry
     scf convergence threshold =      1.0E-07
     mixing beta               =       0.7000
     number of iterations used =            8  plain     mixing
     Exchange-correlation=  SLA  PW   PBE  PBE
                           (   1   4   3   4   0   0   0)

     celldm(1)=   8.716274  celldm(2)=   0.000000  celldm(3)=   1.442197
     celldm(4)=   0.000000  celldm(5)=   0.000000  celldm(6)=   0.000000

     crystal axes: (cart. coord. in units of alat)
               a(1) = (   1.000000   0.000000   0.000000 )  
               a(2) = (   0.000000   1.000000   0.000000 )  
               a(3) = (   0.000000   0.000000   1.442197 )  

     reciprocal axes: (cart. coord. in units 2 pi/alat)
               b(1) = (  1.000000  0.000000  0.000000 )  
               b(2) = (  0.000000  1.000000  0.000000 )  
               b(3) = (  0.000000  0.000000  0.693386 )  


     PseudoPot. # 1 for H  read from file:
     ./H.pbe-van_ak.UPF
     MD5 check sum: 077eb6d537518a38cb46c6de387227b7
     Pseudo is Ultrasoft, Zval =  1.0
     Generated by new atomic code, or converted to UPF format
     Using radial grid of  615 points,  1 beta functions with: 
                l(1) =   0
     Q(r) pseudized with  8 coefficients,  rinner =    0.800

     PseudoPot. # 2 for O  read from file:
     ./O.pbe-van_ak.UPF
     MD5 check sum: 78c19812648e8988a0fe644b0f25305e
     Pseudo is Ultrasoft, Zval =  6.0
     Generated by new atomic code, or converted to UPF format
     Using radial grid of  737 points,  4 beta functions with: 
                l(1) =   0
                l(2) =   0
                l(3) =   1
                l(4) =   1
     Q(r) pseudized with  8 coefficients,  rinner =    0.800   0.800   0.800


     atomic species   valence    mass     pseudopotential
     H                 1.00     1.00800     H ( 1.00)
     O                 6.00    16.00000     O ( 1.00)

      4 Sym. Ops., with inversion, found



   Cartesian axes

     site n.     atom                  positions (alat units)
         1        O      tau(   1) = (   0.0000000   0.2500000   0.8766577  )
         2        O      tau(   2) = (   0.0000000   0.7500000   0.5655395  )
         3        O      tau(   3) = (   0.5000000   0.7500000   0.1555590  )
         4        O      tau(   4) = (   0.5000000   0.2500000   1.2866381  )
         5        O      tau(   5) = (   0.0000000   0.7500000   1.2372108  )
         6        O      tau(   6) = (   0.0000000   0.2500000   0.2049863  )
         7        O      tau(   7) = (   0.5000000   0.2500000   0.5161123  )
         8        O      tau(   8) = (   0.5000000   0.7500000   0.9260848  )
         9        H      tau(   9) = (   0.0000000   0.4186701   1.0041518  )
        10        H      tau(  10) = (   0.0000000   0.5813299   0.4380453  )
        11        H      tau(  11) = (   0.5000000   0.5813299   0.2830532  )
        12        H      tau(  12) = (   0.5000000   0.4186701   1.1591439  )
        13        H      tau(  13) = (   0.8313288   0.7500000   1.3647034  )
        14        H      tau(  14) = (   0.1686712   0.2500000   0.0774938  )
        15        H      tau(  15) = (   0.6686712   0.2500000   0.6436049  )
        16        H      tau(  16) = (   0.3313288   0.7500000   0.7985923  )
        17        H      tau(  17) = (   0.6686712   0.7500000   0.7985923  )
        18        H      tau(  18) = (   0.3313288   0.2500000   0.6436049  )
        19        H      tau(  19) = (   0.8313288   0.2500000   0.0774938  )
        20        H      tau(  20) = (   0.1686712   0.7500000   1.3647034  )
        21        H      tau(  21) = (   0.5000000   0.9186701   0.2830532  )
        22        H      tau(  22) = (   0.5000000   0.0813299   1.1591439  )
        23        H      tau(  23) = (   0.0000000   0.0813299   1.0041518  )
        24        H      tau(  24) = (   0.0000000   0.9186701   0.4380454  )

     number of k points=   144

     Number of k-points >= 100: set verbosity='high' to print them.

     Dense  grid:   110091 G-vectors     FFT dimensions: (  54,  54,  75)

     Estimated max dynamical RAM per process >      12.79 MB

     Estimated total dynamical RAM >       1.52 GB

     Initial potential from superposition of free atoms

     starting charge      63.9998, renormalised to      64.0000
     Starting wfcs are   48 randomized atomic wfcs

     total cpu time spent up to now is        1.4 secs

     per-process dynamical memory:    19.5 Mb

     Self-consistent Calculation

     iteration #  1     ecut=    90.00 Ry     beta= 0.70
     Davidson diagonalization with overlap
     ethr =  1.00E-02,  avg # of iterations =  2.0

     total cpu time spent up to now is        3.4 secs

     total energy              =    -274.86217757 Ry
     estimated scf accuracy    <       2.54376971 Ry

     iteration #  2     ecut=    90.00 Ry     beta= 0.70
     Davidson diagonalization with overlap
     ethr =  3.97E-03,  avg # of iterations =  3.0

     total cpu time spent up to now is        5.9 secs

     total energy              =    -275.68239219 Ry
     estimated scf accuracy    <       1.31260198 Ry

     iteration #  3     ecut=    90.00 Ry     beta= 0.70
     Davidson diagonalization with overlap
     ethr =  2.05E-03,  avg # of iterations =  2.0

     total cpu time spent up to now is        7.7 secs

     total energy              =    -275.83663852 Ry
     estimated scf accuracy    <       0.05686402 Ry

     iteration #  4     ecut=    90.00 Ry     beta= 0.70
     Davidson diagonalization with overlap
     ethr =  8.89E-05,  avg # of iterations =  4.5

     total cpu time spent up to now is       10.5 secs

     total energy              =    -275.87761133 Ry
     estimated scf accuracy    <       0.07914724 Ry

     iteration #  5     ecut=    90.00 Ry     beta= 0.70
     Davidson diagonalization with overlap
     ethr =  8.89E-05,  avg # of iterations =  2.0

     total cpu time spent up to now is       12.4 secs

     total energy              =    -275.87927361 Ry
     estimated scf accuracy    <       0.01201287 Ry

     iteration #  6     ecut=    90.00 Ry     beta= 0.70
     Davidson diagonalization with overlap
     ethr =  1.88E-05,  avg # of iterations =  2.7

     total cpu time spent up to now is       14.6 secs

     total energy              =    -275.88257060 Ry
     estimated scf accuracy    <       0.00008046 Ry

     iteration #  7     ecut=    90.00 Ry     beta= 0.70
     Davidson diagonalization with overlap
     ethr =  1.26E-07,  avg # of iterations =  5.6

     total cpu time spent up to now is       18.1 secs

     total energy              =    -275.88278632 Ry
     estimated scf accuracy    <       0.00020764 Ry

     iteration #  8     ecut=    90.00 Ry     beta= 0.70
     Davidson diagonalization with overlap
     ethr =  1.26E-07,  avg # of iterations =  2.0

     total cpu time spent up to now is       20.0 secs

     total energy              =    -275.88278280 Ry
     estimated scf accuracy    <       0.00004601 Ry

     iteration #  9     ecut=    90.00 Ry     beta= 0.70
     Davidson diagonalization with overlap
     ethr =  7.19E-08,  avg # of iterations =  2.0

     total cpu time spent up to now is       21.9 secs

     total energy              =    -275.88278726 Ry
     estimated scf accuracy    <       0.00000538 Ry

     iteration # 10     ecut=    90.00 Ry     beta= 0.70
     Davidson diagonalization with overlap
     ethr =  8.41E-09,  avg # of iterations =  3.0

     total cpu time spent up to now is       24.1 secs

     End of self-consistent calculation

     Number of k-points >= 100: set verbosity='high' to print the bands.

     highest occupied level (ev):     0.1796

!    total energy              =    -275.88278934 Ry
     estimated scf accuracy    <          7.9E-09 Ry

     The total energy is the sum of the following terms:
     one-electron contribution =    -118.99360166 Ry
     hartree contribution      =      87.57223373 Ry
     xc contribution           =     -68.12300617 Ry
     ewald contribution        =    -176.33841524 Ry

     convergence has been achieved in  10 iterations

     Forces acting on atoms (cartesian axes, Ry/au):

     atom    1 type  2   force =    -0.00000000    0.00000009   -0.03363673
     atom    2 type  2   force =    -0.00000000   -0.00000009    0.03363673
     atom    3 type  2   force =    -0.00000000   -0.00000010   -0.03378859
     atom    4 type  2   force =    -0.00000000    0.00000010    0.03378859
     atom    5 type  2   force =     0.00000000   -0.00000013   -0.03375947
     atom    6 type  2   force =     0.00000000    0.00000013    0.03375947
     atom    7 type  2   force =     0.00000000   -0.00000013   -0.03368881
     atom    8 type  2   force =     0.00000000    0.00000013    0.03368881
     atom    9 type  1   force =     0.00000000    0.02616877    0.01804229
     atom   10 type  1   force =     0.00000000   -0.02616877   -0.01804229
     atom   11 type  1   force =     0.00000000   -0.02616306    0.01805895
     atom   12 type  1   force =     0.00000000    0.02616306   -0.01805895
     atom   13 type  1   force =    -0.02616474   -0.00000004    0.01804804
     atom   14 type  1   force =     0.02616474    0.00000004   -0.01804804
     atom   15 type  1   force =     0.02616447   -0.00000004    0.01805613
     atom   16 type  1   force =    -0.02616447    0.00000004   -0.01805613
     atom   17 type  1   force =     0.02616447    0.00000004   -0.01805613
     atom   18 type  1   force =    -0.02616447   -0.00000004    0.01805613
     atom   19 type  1   force =    -0.02616474    0.00000004   -0.01804804
     atom   20 type  1   force =     0.02616474   -0.00000004    0.01804804
     atom   21 type  1   force =     0.00000000    0.02616299    0.01805887
     atom   22 type  1   force =     0.00000000   -0.02616299   -0.01805887
     atom   23 type  1   force =     0.00000000   -0.02616894    0.01804245
     atom   24 type  1   force =     0.00000000    0.02616894   -0.01804245

     Total force =     0.158944     Total SCF correction =     0.000080


     Computing stress (Cartesian axis) and pressure

          total   stress  (Ry/bohr**3)                   (kbar)     P=       85.76
   0.00057766   0.00000000   0.00000000           84.98        0.00        0.00
   0.00000000   0.00057788   0.00000000            0.00       85.01        0.00
   0.00000000   0.00000000   0.00059341            0.00        0.00       87.29


     Writing all to output data dir ./iceVIII/iceVIII.save/ :
     XML data file, charge density, pseudopotentials, collected wavefunctions

     init_run     :      1.09s CPU      1.16s WALL (       1 calls)
     electrons    :     22.24s CPU     22.72s WALL (       1 calls)
     forces       :      0.13s CPU      0.14s WALL (       1 calls)
     stress       :      1.54s CPU      1.55s WALL (       1 calls)

     Called by init_run:
     wfcinit      :      0.85s CPU      0.87s WALL (       1 calls)
     potinit      :      0.02s CPU      0.03s WALL (       1 calls)
     hinit0       :      0.17s CPU      0.19s WALL (       1 calls)

     Called by electrons:
     c_bands      :     19.85s CPU     20.24s WALL (      10 calls)
     sum_band     :      2.27s CPU      2.33s WALL (      10 calls)
     v_of_rho     :      0.08s CPU      0.08s WALL (      11 calls)
     newd         :      0.02s CPU      0.02s WALL (      11 calls)
     mix_rho      :      0.02s CPU      0.02s WALL (      10 calls)

     Called by c_bands:
     init_us_2    :      0.25s CPU      0.26s WALL (     828 calls)
     cegterg      :     18.59s CPU     18.82s WALL (     360 calls)

     Called by *egterg:
     cdiaghg      :      2.31s CPU      2.33s WALL (    1385 calls)
     h_psi        :     14.30s CPU     14.50s WALL (    1421 calls)
     s_psi        :      0.54s CPU      0.54s WALL (    1421 calls)
     g_psi        :      0.04s CPU      0.04s WALL (    1025 calls)

     Called by h_psi:
     h_psi:calbec :      0.73s CPU      0.74s WALL (    1421 calls)
     vloc_psi     :     12.92s CPU     13.12s WALL (    1421 calls)
     add_vuspsi   :      0.58s CPU      0.58s WALL (    1421 calls)

     General routines
     calbec       :      1.03s CPU      1.04s WALL (    1961 calls)
     fft          :      0.21s CPU      0.21s WALL (     129 calls)
     ffts         :      0.00s CPU      0.00s WALL (      10 calls)
     fftw         :     13.72s CPU     13.94s WALL (   87308 calls)

     Parallel routines

     PWSCF        :     25.77s CPU     26.95s WALL


   This run was terminated on:  18: 3:56  23Mar2026            

=------------------------------------------------------------------------------=
   JOB DONE.
=------------------------------------------------------------------------------=
